 vasp.5.4.4.18Apr17-6-g9f103f2a35 (build Nov 22 2021 14:44:17) complex          
  
 executed on             LinuxIFC date 2022.08.08  12:18:39
 running on   64 total cores
 distrk:  each k-point on   64 cores,    1 groups
 distr:  one band on NCORES_PER_BAND=   4 cores,   16 groups


--------------------------------------------------------------------------------------------------------


 INCAR:
 POTCAR:    PAW_PBE Li 17Jan2003                  
 POTCAR:    PAW_PBE Co 02Aug2007                  
 POTCAR:    PAW_PBE O 08Apr2002                   
 POTCAR:    PAW_PBE Li 17Jan2003                  
   VRHFIN =Li: s1p0                                                             
   LEXCH  = PE                                                                  
   EATOM  =     5.3001 eV,    0.3895 Ry                                         
                                                                                
   TITEL  = PAW_PBE Li 17Jan2003                                                
   LULTRA =        F    use ultrasoft PP ?                                      
   IUNSCR =        1    unscreen: 0-lin 1-nonlin 2-no                           
   RPACOR =    1.500    partial core radius                                     
   POMASS =    7.010; ZVAL   =    1.000    mass and valenz                      
   RCORE  =    2.050    outmost cutoff radius                                   
   RWIGS  =    2.600; RWIGS  =    1.376    wigner-seitz radius (au A)           
   ENMAX  =  140.000; ENMIN  =  100.000 eV                                      
   ICORE  =        2    local potential                                         
   LCOR   =        T    correct aug charges                                     
   LPAW   =        T    paw PP                                                  
   EAUG   =  331.638                                                            
   DEXC   =    0.000                                                            
   RMAX   =    2.098    core radius for proj-oper                               
   RAUG   =    1.300    factor for augmentation sphere                          
   RDEP   =    2.094    radius for radial grids                                 
   RDEPT  =    1.810    core radius for aug-charge                              
                                                                                
   Atomic configuration                                                         
    4 entries                                                                   
     n  l   j            E        occ.                                          
     1  0  0.50       -51.8549   2.0000                                         
     2  0  0.50        -2.8742   1.0000                                         
     2  1  0.50        -1.3606   0.0000                                         
     3  2  1.50        -1.3606   0.0000                                         
   Description                                                                  
     l       E           TYP  RCUT    TYP  RCUT                                 
     0     -2.8742052     23  2.050                                             
     0     27.2116520     23  2.050                                             
     1     -1.3605826     23  2.050                                             
     2     -1.3605826     23  2.050                                             
  local pseudopotential read in
  partial core-charges read in
  partial kinetic energy density read in
  atomic valenz-charges read in
  non local Contribution for L=           0  read in
    real space projection operators read in
  non local Contribution for L=           0  read in
    real space projection operators read in
  non local Contribution for L=           1  read in
    real space projection operators read in
    PAW grid and wavefunctions read in
 
   number of l-projection  operators is LMAX  =           3
   number of lm-projection operators is LMMAX =           5
 
 POTCAR:    PAW_PBE Co 02Aug2007                  
   VRHFIN =Co: d8 s1                                                            
   LEXCH  = PE                                                                  
   EATOM  =   813.3670 eV,   59.7808 Ry                                         
                                                                                
   TITEL  = PAW_PBE Co 02Aug2007                                                
   LULTRA =        F    use ultrasoft PP ?                                      
   IUNSCR =        1    unscreen: 0-lin 1-nonlin 2-no                           
   RPACOR =    2.000    partial core radius                                     
   POMASS =   58.933; ZVAL   =    9.000    mass and valenz                      
   RCORE  =    2.300    outmost cutoff radius                                   
   RWIGS  =    2.460; RWIGS  =    1.302    wigner-seitz radius (au A)           
   ENMAX  =  267.968; ENMIN  =  200.976 eV                                      
   RCLOC  =    1.203    cutoff for local pot                                    
   LCOR   =        T    correct aug charges                                     
   LPAW   =        T    paw PP                                                  
   EAUG   =  477.818                                                            
   DEXC   =    0.000                                                            
   RMAX   =    2.360    core radius for proj-oper                               
   RAUG   =    1.300    factor for augmentation sphere                          
   RDEP   =    2.393    radius for radial grids                                 
   RDEPT  =    1.864    core radius for aug-charge                              
                                                                                
   Atomic configuration                                                         
    9 entries                                                                   
     n  l   j            E        occ.                                          
     1  0  0.50     -7587.6674   2.0000                                         
     2  0  0.50      -893.6084   2.0000                                         
     2  1  1.50      -764.5805   6.0000                                         
     3  0  0.50       -97.5973   2.0000                                         
     3  1  1.50       -60.9648   6.0000                                         
     3  2  2.50        -4.2382   8.0000                                         
     4  0  0.50        -4.3746   1.0000                                         
     4  1  1.50        -4.0817   0.0000                                         
     4  3  2.50        -1.3606   0.0000                                         
   Description                                                                  
     l       E           TYP  RCUT    TYP  RCUT                                 
     2     -4.2382362     23  2.300                                             
     2     -5.5988188     23  2.300                                             
     0     -4.3745797     23  2.300                                             
     0      5.7660125     23  2.300                                             
     1     -2.7211652     23  2.300                                             
     1     16.9860234     23  2.300                                             
  local pseudopotential read in
  partial core-charges read in
  partial kinetic energy density read in
  atomic valenz-charges read in
  non local Contribution for L=           2  read in
    real space projection operators read in
  non local Contribution for L=           2  read in
    real space projection operators read in
  non local Contribution for L=           0  read in
    real space projection operators read in
  non local Contribution for L=           0  read in
    real space projection operators read in
  non local Contribution for L=           1  read in
    real space projection operators read in
  non local Contribution for L=           1  read in
    real space projection operators read in
    PAW grid and wavefunctions read in
 
   number of l-projection  operators is LMAX  =           6
   number of lm-projection operators is LMMAX =          18
 
 POTCAR:    PAW_PBE O 08Apr2002                   
   VRHFIN =O: s2p4                                                              
   LEXCH  = PE                                                                  
   EATOM  =   432.3788 eV,   31.7789 Ry                                         
                                                                                
   TITEL  = PAW_PBE O 08Apr2002                                                 
   LULTRA =        F    use ultrasoft PP ?                                      
   IUNSCR =        1    unscreen: 0-lin 1-nonlin 2-no                           
   RPACOR =    1.200    partial core radius                                     
   POMASS =   16.000; ZVAL   =    6.000    mass and valenz                      
   RCORE  =    1.520    outmost cutoff radius                                   
   RWIGS  =    1.550; RWIGS  =    0.820    wigner-seitz radius (au A)           
   ENMAX  =  400.000; ENMIN  =  300.000 eV                                      
   ICORE  =        2    local potential                                         
   LCOR   =        T    correct aug charges                                     
   LPAW   =        T    paw PP                                                  
   EAUG   =  605.392                                                            
   DEXC   =    0.000                                                            
   RMAX   =    1.553    core radius for proj-oper                               
   RAUG   =    1.300    factor for augmentation sphere                          
   RDEP   =    1.550    radius for radial grids                                 
   RDEPT  =    1.329    core radius for aug-charge                              
                                                                                
   Atomic configuration                                                         
    4 entries                                                                   
     n  l   j            E        occ.                                          
     1  0  0.50      -514.6923   2.0000                                         
     2  0  0.50       -23.9615   2.0000                                         
     2  1  0.50        -9.0305   4.0000                                         
     3  2  1.50        -9.5241   0.0000                                         
   Description                                                                  
     l       E           TYP  RCUT    TYP  RCUT                                 
     0    -23.9615318     23  1.200                                             
     0     -9.5240782     23  1.200                                             
     1     -9.0304911     23  1.520                                             
     1      8.1634956     23  1.520                                             
     2     -9.5240782      7  1.500                                             
  local pseudopotential read in
  partial core-charges read in
  partial kinetic energy density read in
  kinetic energy density of atom read in
  atomic valenz-charges read in
  non local Contribution for L=           0  read in
    real space projection operators read in
  non local Contribution for L=           0  read in
    real space projection operators read in
  non local Contribution for L=           1  read in
    real space projection operators read in
  non local Contribution for L=           1  read in
    real space projection operators read in
    PAW grid and wavefunctions read in
 
   number of l-projection  operators is LMAX  =           4
   number of lm-projection operators is LMMAX =           8
 
 Optimization of the real space projectors (new method)

 maximal supplied QI-value         = 18.33
 optimisation between [QCUT,QGAM] = [ 12.46, 24.93] = [ 43.51,174.03] Ry 
 Optimized for a Real-space Cutoff    1.13 Angstroem

   l    n(q)    QCUT    max X(q) W(low)/X(q) W(high)/X(q)  e(spline) 
   0      8    12.465    33.825    0.12E-03    0.29E-03    0.99E-07
   0      8    12.465     8.944    0.86E-04    0.22E-03    0.72E-07
   1      8    12.465     4.214    0.27E-03    0.11E-03    0.82E-07
 Optimization of the real space projectors (new method)

 maximal supplied QI-value         = 16.25
 optimisation between [QCUT,QGAM] = [ 12.51, 25.03] = [ 43.85,175.40] Ry 
 Optimized for a Real-space Cutoff    1.31 Angstroem

   l    n(q)    QCUT    max X(q) W(low)/X(q) W(high)/X(q)  e(spline) 
   2      9    12.514    65.824    0.30E-03    0.46E-03    0.43E-06
   2      9    12.514    61.429    0.31E-03    0.46E-03    0.44E-06
   0     10    12.514    56.174    0.90E-04    0.33E-03    0.30E-06
   0     10    12.514    31.263    0.81E-04    0.30E-03    0.28E-06
   1      9    12.514    19.828    0.38E-03    0.65E-04    0.24E-06
   1      9    12.514    15.139    0.32E-03    0.60E-04    0.20E-06
 Optimization of the real space projectors (new method)

 maximal supplied QI-value         = 24.76
 optimisation between [QCUT,QGAM] = [ 12.38, 25.00] = [ 42.90,175.06] Ry 
 Optimized for a Real-space Cutoff    1.13 Angstroem

   l    n(q)    QCUT    max X(q) W(low)/X(q) W(high)/X(q)  e(spline) 
   0      8    12.378    20.381    0.16E-03    0.54E-05    0.27E-06
   0      8    12.378    15.268    0.17E-03    0.61E-05    0.29E-06
   1      8    12.378     5.964    0.38E-03    0.23E-03    0.28E-06
   1      8    12.378     5.382    0.33E-03    0.20E-03    0.25E-06
  PAW_PBE Li 17Jan2003                  :
 energy of atom  1       EATOM=   -5.3001
 kinetic energy error for atom=    0.0000 (will be added to EATOM!!)
  PAW_PBE Co 02Aug2007                  :
 energy of atom  2       EATOM= -813.3670
 kinetic energy error for atom=    0.0018 (will be added to EATOM!!)
  PAW_PBE O 08Apr2002                   :
 energy of atom  3       EATOM= -432.3788
 kinetic energy error for atom=    0.0168 (will be added to EATOM!!)
 
 
 POSCAR: Li6 Co12 O24                            
  positions in cartesian coordinates
  No initial velocities read in
 exchange correlation table for  LEXCH =        8
   RHO(1)=    0.500       N(1)  =     2000
   RHO(2)=  100.500       N(2)  =     4000
 


--------------------------------------------------------------------------------------------------------


 ion  position               nearest neighbor table
   1  0.018  0.050  0.003-  23 1.95  26 1.97  35 2.08  38 2.13  25 2.17  36 2.36   3 2.63   2 2.77
                            17 2.77   8 2.78   7 2.85  10 2.86   2 2.93  18 2.93  15 3.01   3 3.04
   2  0.494  0.031  0.987-  36 1.89  37 1.98  38 2.16  24 2.22  25 2.32  23 2.36   3 2.71  15 2.71
                            16 2.74   1 2.77  17 2.82  10 2.93   1 2.93   8 2.95   3 3.00   9 3.00
   3  0.489  0.506  0.001-  35 1.90  23 1.96  26 2.11  24 2.15  38 2.16  37 2.22   1 2.63   9 2.67
                             2 2.71  16 2.83  15 2.86   7 2.87   2 3.00  18 3.02  10 3.02   1 3.04
   4  0.950  0.852  0.328-  19 1.98  20 2.01  32 2.02  34 2.22  31 2.26  22 2.28  11 2.53   8 2.68
                            10 2.84   9 2.88
   5  0.642  0.270  0.680-  42 1.93  40 1.96  41 2.02  27 2.07  29 2.21  30 2.28  18 2.64  15 2.64
                            17 2.66   6 2.83   6 2.87  14 2.96  13 2.99  12 3.03
   6  0.645  0.766  0.671-  39 1.95  41 1.97  42 2.07  28 2.08  30 2.09  29 2.36  14 2.70  18 2.73
                            17 2.74  11 2.80  16 2.80   5 2.83   5 2.87  13 2.95
   7  0.203  0.434  0.172-  22 1.83  19 1.84  25 1.84  23 1.86  20 1.91  24 1.92  10 2.76   9 2.77
                             8 2.83   1 2.85   8 2.87   3 2.87   9 2.91  10 2.92
   8  0.216  0.937  0.167-  21 1.87  20 1.88  23 1.92  24 1.96  19 2.00  26 2.02   4 2.68  10 2.75
                             9 2.78   1 2.78   7 2.83   7 2.87   9 2.90  10 2.93   2 2.95
   9  0.692  0.438  0.165-  21 1.85  23 1.91  20 1.93  25 1.96  22 1.96  26 2.02   3 2.67   7 2.77
                             8 2.78  10 2.80   4 2.88  10 2.89   8 2.90   7 2.91   2 3.00
  10  0.709  0.955  0.168-  19 1.87  21 1.87  26 1.89  22 1.89  25 1.90  24 1.94   8 2.75   7 2.76
                             9 2.80   4 2.84   1 2.86   9 2.89   7 2.92   2 2.93   8 2.93   3 3.02
  11  0.954  0.910  0.510-  34 1.80  29 1.87  32 1.90  30 1.90  27 1.96  31 1.96   4 2.53  14 2.70
                            13 2.74   6 2.80  12 2.84  12 2.86  13 2.96  14 2.98
  12  0.956  0.410  0.501-  29 1.83  31 1.88  30 1.90  32 1.92  33 1.92  28 1.94  14 2.75  13 2.80
                            11 2.84  11 2.86  13 2.87  14 2.93   5 3.03
  13  0.469  0.905  0.493-  28 1.80  29 1.83  34 1.84  33 1.91  32 1.95  27 1.98  11 2.74  14 2.77
                            12 2.80  12 2.87  14 2.94   6 2.95  11 2.96   5 2.99
  14  0.481  0.428  0.503-  30 1.77  34 1.88  28 1.90  27 1.92  33 1.94  31 1.94  11 2.70   6 2.70
                            12 2.75  13 2.77  12 2.93  13 2.94   5 2.96  11 2.98
  15  0.323  0.147  0.824-  42 1.85  39 1.86  35 1.89  37 1.89  36 1.93  41 2.04   5 2.64   2 2.71
                            17 2.79  16 2.80  18 2.82  18 2.86   3 2.86  17 2.89  16 2.90   1 3.01
  16  0.329  0.643  0.830-  40 1.85  36 1.86  38 1.86  41 1.91  35 1.95  42 1.98   2 2.74  15 2.80
                             6 2.80  18 2.82  17 2.82   3 2.83  17 2.85  18 2.86  15 2.90
  17  0.829  0.141  0.832-  39 1.91  37 1.92  41 1.95  35 1.96  38 1.97  40 1.98   5 2.66   6 2.74
                             1 2.77  15 2.79   2 2.82  16 2.82  18 2.83  16 2.85  18 2.87  15 2.89
  18  0.834  0.647  0.831-  39 1.87  36 1.88  42 1.89  38 1.96  40 1.96  37 1.97   5 2.64   6 2.73
                            15 2.82  16 2.82  17 2.83  16 2.86  15 2.86  17 2.87   1 2.93   3 3.02
  19  0.051  0.132  0.238-   7 1.84  10 1.87   4 1.98   8 2.00
  20  0.047  0.630  0.235-   8 1.88   7 1.91   9 1.93   4 2.01
  21  0.561  0.143  0.235-   9 1.85  10 1.87   8 1.87
  22  0.544  0.642  0.235-   7 1.83  10 1.89   9 1.96   4 2.28
  23  0.336  0.248  0.097-   7 1.86   9 1.91   8 1.92   1 1.95   3 1.96   2 2.36
  24  0.357  0.731  0.094-   7 1.92  10 1.94   8 1.96   3 2.15   2 2.22
  25  0.873  0.264  0.098-   7 1.84  10 1.90   9 1.96   1 2.17   2 2.32
  26  0.848  0.768  0.092-  10 1.89   1 1.97   9 2.02   8 2.02   3 2.11
  27  0.329  0.110  0.571-  14 1.92  11 1.96  13 1.98   5 2.07
  28  0.324  0.623  0.564-  13 1.80  14 1.90  12 1.94   6 2.08
  29  0.798  0.105  0.565-  13 1.83  12 1.83  11 1.87   5 2.21   6 2.36
  30  0.799  0.588  0.574-  14 1.77  12 1.90  11 1.90   6 2.09   5 2.28
  31  0.116  0.228  0.437-  12 1.88  14 1.94  11 1.96   4 2.26
  32  0.096  0.726  0.433-  11 1.90  12 1.92  13 1.95   4 2.02
  33  0.609  0.222  0.426-  13 1.91  12 1.92  14 1.94
  34  0.637  0.733  0.434-  11 1.80  13 1.84  14 1.88   4 2.22
  35  0.191  0.332  0.904-  15 1.89   3 1.90  16 1.95  17 1.96   1 2.08
  36  0.187  0.835  0.896-  16 1.86  18 1.88   2 1.89  15 1.93   1 2.36
  37  0.661  0.319  0.900-  15 1.89  17 1.92  18 1.97   2 1.98   3 2.22
  38  0.663  0.820  0.905-  16 1.86  18 1.96  17 1.97   1 2.13   2 2.16   3 2.16
  39  0.973  0.948  0.761-  15 1.86  18 1.87  17 1.91   6 1.95
  40  0.994  0.460  0.758-  16 1.85   5 1.96  18 1.96  17 1.98
  41  0.481  0.938  0.752-  16 1.91  17 1.95   6 1.97   5 2.02  15 2.04
  42  0.493  0.452  0.758-  15 1.85  18 1.89   5 1.93  16 1.98   6 2.07
 

IMPORTANT INFORMATION: All symmetrisations will be switched off!
NOSYMM: (Re-)initialisation of all symmetry stuff for point group C_1.

 
 

Automatic generation of k-mesh.
 generate k-points for:    6    6    2
Space group operators:
 irot       det(A)        alpha          n_x          n_y          n_z        tau_x        tau_y        tau_z
    1     1.000000     0.000000     1.000000     0.000000     0.000000     0.000000     0.000000     0.000000
 
 Subroutine IBZKPT returns following result:
 ===========================================
 
 Found     36 irreducible k-points:
 
 Following reciprocal coordinates:
            Coordinates               Weight
  0.083333  0.083333  0.250000      2.000000
  0.250000  0.083333  0.250000      2.000000
  0.416667  0.083333  0.250000      2.000000
 -0.416667  0.083333  0.250000      2.000000
 -0.250000  0.083333  0.250000      2.000000
 -0.083333  0.083333  0.250000      2.000000
  0.083333  0.250000  0.250000      2.000000
  0.250000  0.250000  0.250000      2.000000
  0.416667  0.250000  0.250000      2.000000
 -0.416667  0.250000  0.250000      2.000000
 -0.250000  0.250000  0.250000      2.000000
 -0.083333  0.250000  0.250000      2.000000
  0.083333  0.416667  0.250000      2.000000
  0.250000  0.416667  0.250000      2.000000
  0.416667  0.416667  0.250000      2.000000
 -0.416667  0.416667  0.250000      2.000000
 -0.250000  0.416667  0.250000      2.000000
 -0.083333  0.416667  0.250000      2.000000
  0.083333 -0.416667  0.250000      2.000000
  0.250000 -0.416667  0.250000      2.000000
  0.416667 -0.416667  0.250000      2.000000
 -0.416667 -0.416667  0.250000      2.000000
 -0.250000 -0.416667  0.250000      2.000000
 -0.083333 -0.416667  0.250000      2.000000
  0.083333 -0.250000  0.250000      2.000000
  0.250000 -0.250000  0.250000      2.000000
  0.416667 -0.250000  0.250000      2.000000
 -0.416667 -0.250000  0.250000      2.000000
 -0.250000 -0.250000  0.250000      2.000000
 -0.083333 -0.250000  0.250000      2.000000
  0.083333 -0.083333  0.250000      2.000000
  0.250000 -0.083333  0.250000      2.000000
  0.416667 -0.083333  0.250000      2.000000
 -0.416667 -0.083333  0.250000      2.000000
 -0.250000 -0.083333  0.250000      2.000000
 -0.083333 -0.083333  0.250000      2.000000
 
 Following cartesian coordinates:
            Coordinates               Weight
  0.014676  0.025461  0.021519      2.000000
  0.044028  0.042527  0.024413      2.000000
  0.073380  0.059593  0.027307      2.000000
 -0.073380 -0.025738  0.012838      2.000000
 -0.044028 -0.008671  0.015732      2.000000
 -0.014676  0.008395  0.018626      2.000000
  0.014676  0.059317  0.025520      2.000000
  0.044028  0.076383  0.028413      2.000000
  0.073380  0.093449  0.031307      2.000000
 -0.073380  0.008118  0.016838      2.000000
 -0.044028  0.025184  0.019732      2.000000
 -0.014676  0.042251  0.022626      2.000000
  0.014676  0.093173  0.029520      2.000000
  0.044028  0.110239  0.032413      2.000000
  0.073380  0.127305  0.035307      2.000000
 -0.073380  0.041974  0.020838      2.000000
 -0.044028  0.059040  0.023732      2.000000
 -0.014676  0.076106  0.026626      2.000000
  0.014676 -0.076106  0.009519      2.000000
  0.044028 -0.059040  0.012413      2.000000
  0.073380 -0.041974  0.015306      2.000000
 -0.073380 -0.127305  0.000837      2.000000
 -0.044028 -0.110239  0.003731      2.000000
 -0.014676 -0.093173  0.006625      2.000000
  0.014676 -0.042251  0.013519      2.000000
  0.044028 -0.025184  0.016413      2.000000
  0.073380 -0.008118  0.019307      2.000000
 -0.073380 -0.093449  0.004838      2.000000
 -0.044028 -0.076383  0.007731      2.000000
 -0.014676 -0.059317  0.010625      2.000000
  0.014676 -0.008395  0.017519      2.000000
  0.044028  0.008671  0.020413      2.000000
  0.073380  0.025738  0.023307      2.000000
 -0.073380 -0.059593  0.008838      2.000000
 -0.044028 -0.042527  0.011732      2.000000
 -0.014676 -0.025461  0.014625      2.000000
 


--------------------------------------------------------------------------------------------------------




 Dimension of arrays:
   k-points           NKPTS =     36   k-points in BZ     NKDIM =     36   number of bands    NBANDS=    160
   number of dos      NEDOS =    301   number of ions     NIONS =     42
   non local maximal  LDIM  =      6   non local SUM 2l+1 LMDIM =     18
   total plane-waves  NPLWV = 108864
   max r-space proj   IRMAX =   2681   max aug-charges    IRDMAX=  11302
   dimension x,y,z NGX =    36 NGY =   36 NGZ =   84
   dimension x,y,z NGXF=    72 NGYF=   72 NGZF=  168
   support grid    NGXF=    72 NGYF=   72 NGZF=  168
   ions per type =               6  12  24
   NGX,Y,Z   is equivalent  to a cutoff of  10.54, 10.51, 10.02 a.u.
   NGXF,Y,Z  is equivalent  to a cutoff of  21.08, 21.02, 20.04 a.u.

 SYSTEM =  LiCoO2                                  
 POSCAR =  Li6 Co12 O24                            

 Startparameter for this run:
   NWRITE =      2    write-flag & timer
   PREC   = normal    normal or accurate (medium, high low for compatibility)
   ISTART =      0    job   : 0-new  1-cont  2-samecut
   ICHARG =      2    charge: 1-file 2-atom 10-const
   ISPIN  =      2    spin polarized calculation?
   LNONCOLLINEAR =      F non collinear calculations
   LSORBIT =      F    spin-orbit coupling
   INIWAV =      1    electr: 0-lowe 1-rand  2-diag
   LASPH  =      F    aspherical Exc in radial PAW
   METAGGA=      F    non-selfconsistent MetaGGA calc.

 Electronic Relaxation 1
   ENCUT  =  600.0 eV  44.10 Ry    6.64 a.u.  11.34 11.37 27.83*2*pi/ulx,y,z
   ENINI  =  600.0     initial cutoff
   ENAUG  =  605.4 eV  augmentation charge cutoff
   NELM   =    600;   NELMIN=  2; NELMDL= -5     # of ELM steps 
   EDIFF  = 0.1E-05   stopping-criterion for ELM
   LREAL  =      T    real-space projection
   NLSPLINE    = F    spline interpolate recip. space projectors
   LCOMPAT=      F    compatible to vasp.4.4
   GGA_COMPAT  = T    GGA compatible to vasp.4.4-vasp.4.6
   LMAXPAW     = -100 max onsite density
   LMAXMIX     =    2 max onsite mixed and CHGCAR
   VOSKOWN=      0    Vosko Wilk Nusair interpolation
   ROPT   =   -0.00050  -0.00050  -0.00050
 Ionic relaxation
   EDIFFG = 0.1E-04   stopping-criterion for IOM
   NSW    =      0    number of steps for IOM
   NBLOCK =      1;   KBLOCK =      1    inner block; outer block 
   IBRION =     -1    ionic relax: 0-MD 1-quasi-New 2-CG
   NFREE  =      0    steps in history (QN), initial steepest desc. (CG)
   ISIF   =      2    stress and relaxation
   IWAVPR =     10    prediction:  0-non 1-charg 2-wave 3-comb
   ISYM   =      0    0-nonsym 1-usesym 2-fastsym
   LCORR  =      T    Harris-Foulkes like correction to forces

   POTIM  = 0.5000    time-step for ionic-motion
   TEIN   =    0.0    initial temperature
   TEBEG  =    0.0;   TEEND  =   0.0 temperature during run
   SMASS  =  -3.00    Nose mass-parameter (am)
   estimated Nose-frequenzy (Omega)   =  0.10E-29 period in steps =****** mass=  -0.737E-27a.u.
   SCALEE = 1.0000    scale energy and forces
   NPACO  =    256;   APACO  = 16.0  distance and # of slots for P.C.
   PSTRESS=    0.0 pullay stress

  Mass of Ions in am
   POMASS =   7.01 58.93 16.00
  Ionic Valenz
   ZVAL   =   1.00  9.00  6.00
  Atomic Wigner-Seitz radii
   RWIGS  =  -1.00 -1.00 -1.00
  virtual crystal weights 
   VCA    =   1.00  1.00  1.00
   NELECT =     258.0000    total number of electrons
   NUPDOWN=       6.0000    fix difference up-down

 DOS related values:
   EMIN   =  10.00;   EMAX   =-10.00  energy-range for DOS
   EFERMI =   0.00
   ISMEAR =     0;   SIGMA  =   0.05  broadening in eV -4-tet -1-fermi 0-gaus

 Electronic relaxation 2 (details)
   IALGO  =     58    algorithm
   LDIAG  =      T    sub-space diagonalisation (order eigenvalues)
   LSUBROT=      F    optimize rotation matrix (better conditioning)
   TURBO    =      0    0=normal 1=particle mesh
   IRESTART =      0    0=no restart 2=restart with 2 vectors
   NREBOOT  =      0    no. of reboots
   NMIN     =      0    reboot dimension
   EREF     =   0.00    reference energy to select bands
   IMIX   =      4    mixing-type and parameters
     AMIX     =   0.40;   BMIX     =  1.00
     AMIX_MAG =   1.60;   BMIX_MAG =  1.00
     AMIN     =   0.10
     WC   =   100.;   INIMIX=   1;  MIXPRE=   1;  MAXMIX= -45

 Intra band minimization:
   WEIMIN = 0.0000     energy-eigenvalue tresh-hold
   EBREAK =  0.16E-08  absolut break condition
   DEPER  =   0.30     relativ break condition  

   TIME   =   0.40     timestep for ELM

  volume/ion in A,a.u.               =       9.21        62.13
  Fermi-wavevector in a.u.,A,eV,Ry     =   1.430533  2.703316 27.843307  2.046425
  Thomas-Fermi vector in A             =   2.550368
 
 Write flags
   LWAVE        =      F    write WAVECAR
   LDOWNSAMPLE  =      F    k-point downsampling of WAVECAR
   LCHARG       =      F    write CHGCAR
   LVTOT        =      F    write LOCPOT, total local potential
   LVHAR        =      F    write LOCPOT, Hartree potential only
   LELF         =      F    write electronic localiz. function (ELF)
   LORBIT       =     11    0 simple, 1 ext, 2 COOP (PROOUT), +10 PAW based schemes


 Dipole corrections
   LMONO  =      F    monopole corrections only (constant potential shift)
   LDIPOL =      F    correct potential (dipole corrections)
   IDIPOL =      0    1-x, 2-y, 3-z, 4-all directions 
   EPSILON=  1.0000000 bulk dielectric constant

 LDA+U is selected, type is set to LDAUTYPE =  2
   angular momentum for each species LDAUL =    -1    2   -1
   U (eV)           for each species LDAUU =   0.0  5.1  0.0
   J (eV)           for each species LDAUJ =   0.0  0.0  0.0
 Exchange correlation treatment:
   GGA     =    --    GGA type
   LEXCH   =     8    internal setting for exchange type
   VOSKOWN=      0    Vosko Wilk Nusair interpolation
   LHFCALC =     F    Hartree Fock is set to
   LHFONE  =     F    Hartree Fock one center treatment
   AEXX    =    0.0000 exact exchange contribution

 Linear response parameters
   LEPSILON=     F    determine dielectric tensor
   LRPA    =     F    only Hartree local field effects (RPA)
   LNABLA  =     F    use nabla operator in PAW spheres
   LVEL    =     F    velocity operator in full k-point grid
   LINTERFAST=   F  fast interpolation
   KINTER  =     0    interpolate to denser k-point grid
   CSHIFT  =0.1000    complex shift for real part using Kramers Kronig
   OMEGAMAX=  -1.0    maximum frequency
   DEG_THRESHOLD= 0.2000000E-02 threshold for treating states as degnerate
   RTIME   =   -0.100 relaxation time in fs
  (WPLASMAI=    0.000 imaginary part of plasma frequency in eV, 0.658/RTIME)
   DFIELD  = 0.0000000 0.0000000 0.0000000 field for delta impulse in time
 
 Orbital magnetization related:
   ORBITALMAG=     F  switch on orbital magnetization
   LCHIMAG   =     F  perturbation theory with respect to B field
   DQ        =  0.001000  dq finite difference perturbation B field
   LLRAUG    =     F  two centre corrections for induced B field



--------------------------------------------------------------------------------------------------------


 Static calculation
 charge density and potential will be updated during run
 spin polarized calculation
 Conjugate gradient for all bands (Freysoldt, et al. PRB 79, 241103 (2009))
 preconditioned conjugated gradient                                        
 perform sub-space diagonalisation
    before iterative eigenvector-optimisation
 modified Broyden-mixing scheme, WC =      100.0
 initial mixing is a Kerker type mixing with AMIX =  0.4000 and BMIX =      1.0000
 Hartree-type preconditioning will be used
 using additional bands           31
 real space projection scheme for non local part
 use partial core corrections
 no Harris-corrections to forces 
 use gradient corrections 
 use of overlap-Matrix (Vanderbilt PP)
 Gauss-broadening in eV      SIGMA  =   0.05


--------------------------------------------------------------------------------------------------------


  energy-cutoff  :      600.00
  volume of cell :      386.68
      direct lattice vectors                 reciprocal lattice vectors
     5.678186417  0.000000000  0.000000000     0.176112570  0.102397226  0.017362596
    -2.862290144  4.922841072  0.000000000     0.000000000  0.203134732  0.024001100
    -0.413475692 -1.634450793 13.833271027     0.000000000  0.000000000  0.072289482

  length of vectors
     5.678186417  5.694477069 13.935629833     0.204456081  0.204547725  0.072289482


 
 k-points in units of 2pi/SCALE and weight: read from INCAR                         
   0.01467605  0.02546100  0.02151935       0.028
   0.04402814  0.04252720  0.02441311       0.028
   0.07338024  0.05959341  0.02730688       0.028
  -0.07338024 -0.02573762  0.01283805       0.028
  -0.04402814 -0.00867141  0.01573181       0.028
  -0.01467605  0.00839479  0.01862558       0.028
   0.01467605  0.05931679  0.02551953       0.028
   0.04402814  0.07638299  0.02841329       0.028
   0.07338024  0.09344919  0.03130706       0.028
  -0.07338024  0.00811817  0.01683823       0.028
  -0.04402814  0.02518438  0.01973200       0.028
  -0.01467605  0.04225058  0.02262576       0.028
   0.01467605  0.09317257  0.02951971       0.028
   0.04402814  0.11023878  0.03241348       0.028
   0.07338024  0.12730498  0.03530724       0.028
  -0.07338024  0.04197396  0.02083841       0.028
  -0.04402814  0.05904016  0.02373218       0.028
  -0.01467605  0.07610637  0.02662595       0.028
   0.01467605 -0.07610637  0.00951880       0.028
   0.04402814 -0.05904016  0.01241256       0.028
   0.07338024 -0.04197396  0.01530633       0.028
  -0.07338024 -0.12730498  0.00083750       0.028
  -0.04402814 -0.11023878  0.00373126       0.028
  -0.01467605 -0.09317257  0.00662503       0.028
   0.01467605 -0.04225058  0.01351898       0.028
   0.04402814 -0.02518438  0.01641274       0.028
   0.07338024 -0.00811817  0.01930651       0.028
  -0.07338024 -0.09344919  0.00483768       0.028
  -0.04402814 -0.07638299  0.00773145       0.028
  -0.01467605 -0.05931679  0.01062521       0.028
   0.01467605 -0.00839479  0.01751916       0.028
   0.04402814  0.00867141  0.02041293       0.028
   0.07338024  0.02573762  0.02330669       0.028
  -0.07338024 -0.05959341  0.00883786       0.028
  -0.04402814 -0.04252720  0.01173163       0.028
  -0.01467605 -0.02546100  0.01462540       0.028
 
 k-points in reciprocal lattice and weights: read from INCAR                         
   0.08333333  0.08333333  0.25000000       0.028
   0.25000000  0.08333333  0.25000000       0.028
   0.41666667  0.08333333  0.25000000       0.028
  -0.41666667  0.08333333  0.25000000       0.028
  -0.25000000  0.08333333  0.25000000       0.028
  -0.08333333  0.08333333  0.25000000       0.028
   0.08333333  0.25000000  0.25000000       0.028
   0.25000000  0.25000000  0.25000000       0.028
   0.41666667  0.25000000  0.25000000       0.028
  -0.41666667  0.25000000  0.25000000       0.028
  -0.25000000  0.25000000  0.25000000       0.028
  -0.08333333  0.25000000  0.25000000       0.028
   0.08333333  0.41666667  0.25000000       0.028
   0.25000000  0.41666667  0.25000000       0.028
   0.41666667  0.41666667  0.25000000       0.028
  -0.41666667  0.41666667  0.25000000       0.028
  -0.25000000  0.41666667  0.25000000       0.028
  -0.08333333  0.41666667  0.25000000       0.028
   0.08333333 -0.41666667  0.25000000       0.028
   0.25000000 -0.41666667  0.25000000       0.028
   0.41666667 -0.41666667  0.25000000       0.028
  -0.41666667 -0.41666667  0.25000000       0.028
  -0.25000000 -0.41666667  0.25000000       0.028
  -0.08333333 -0.41666667  0.25000000       0.028
   0.08333333 -0.25000000  0.25000000       0.028
   0.25000000 -0.25000000  0.25000000       0.028
   0.41666667 -0.25000000  0.25000000       0.028
  -0.41666667 -0.25000000  0.25000000       0.028
  -0.25000000 -0.25000000  0.25000000       0.028
  -0.08333333 -0.25000000  0.25000000       0.028
   0.08333333 -0.08333333  0.25000000       0.028
   0.25000000 -0.08333333  0.25000000       0.028
   0.41666667 -0.08333333  0.25000000       0.028
  -0.41666667 -0.08333333  0.25000000       0.028
  -0.25000000 -0.08333333  0.25000000       0.028
  -0.08333333 -0.08333333  0.25000000       0.028
 
 position of ions in fractional coordinates (direct lattice) 
   0.01837021  0.04955551  0.00282290
   0.49351922  0.03054164  0.98696250
   0.48878124  0.50573054  0.00066145
   0.94964923  0.85227886  0.32803882
   0.64208261  0.26983510  0.68006043
   0.64470096  0.76598095  0.67075896
   0.20268739  0.43425749  0.17185017
   0.21624446  0.93678232  0.16727353
   0.69174462  0.43775813  0.16463857
   0.70876505  0.95470459  0.16784172
   0.95361396  0.90964732  0.51019532
   0.95593285  0.40991553  0.50135430
   0.46868350  0.90475410  0.49319356
   0.48111768  0.42791172  0.50338709
   0.32265387  0.14748614  0.82365333
   0.32927963  0.64318887  0.83000759
   0.82853848  0.14055302  0.83229194
   0.83417446  0.64677782  0.83103412
   0.05135068  0.13235599  0.23763793
   0.04732863  0.62983176  0.23527263
   0.56144038  0.14267934  0.23523359
   0.54393751  0.64181352  0.23455335
   0.33636566  0.24774292  0.09716357
   0.35654363  0.73094664  0.09383825
   0.87312349  0.26384795  0.09785032
   0.84758079  0.76827993  0.09183511
   0.32897289  0.10993968  0.57089243
   0.32420776  0.62318353  0.56428954
   0.79779766  0.10535355  0.56480060
   0.79875670  0.58764292  0.57358884
   0.11624518  0.22830606  0.43749523
   0.09614821  0.72575688  0.43323159
   0.60942174  0.22190481  0.42641974
   0.63704017  0.73340050  0.43426460
   0.19073400  0.33175084  0.90415489
   0.18722163  0.83541191  0.89564644
   0.66081887  0.31894115  0.89993324
   0.66300057  0.81992308  0.90484891
   0.97285639  0.94791954  0.76084105
   0.99425596  0.45981565  0.75778319
   0.48127942  0.93816034  0.75234701
   0.49258520  0.45228452  0.75772535
 
 position of ions in cartesian coordinates  (Angst):
  -0.03870000  0.23934001  0.03905000
   2.30679011 -1.46279001 13.65291977
   1.32756996  2.48854995  0.00915000
   2.81717992  3.65947008  4.53784990
   2.59232998  0.21683000  9.40746021
   1.19093001  2.67447996  9.27879047
  -0.16313000  1.85689998  2.37724996
  -1.52262998  4.33823013  2.31394005
   2.60679007  1.88592005  2.27748990
   1.22246003  4.42552996  2.32179999
   2.60016990  3.64416003  7.05767012
   4.04736996  1.19851005  6.93536997
  -0.13232000  3.64786005  6.82248020
   1.29893005  1.28377998  6.96349001
   1.06938004 -0.62017000 11.39381981
  -0.31446999  1.80971003 11.48171997
   3.95815992 -0.66842002 11.51331997
   2.54171991  1.82570004 11.49592018
  -0.18551999  0.26315999  3.28730988
  -1.63129997  2.71602011  3.25459003
   2.68231010  0.31790999  3.25405002
   1.15453994  2.77618003  3.24464011
   1.16066003  1.06078994  1.34408998
  -0.10646000  3.44496012  1.29808998
   4.16208982  1.13894999  1.35359001
   2.57571006  3.63202000  1.27038002
   1.31724000 -0.39188001  7.89730978
  -0.17614000  2.14552999  7.80597019
   3.99496007 -0.40450001  7.81303978
   2.61631989  1.95536995  7.93460989
  -0.17431000  0.40885001  6.05199003
  -1.71051002  2.86469007  5.99301004
   2.64894009  0.39544001  5.89877987
   1.33846998  2.90063000  6.00729990
  -0.24039000  0.15536000 12.50741959
  -1.69843996  2.64871001 12.38971996
   2.46725011  0.09920000 12.44902039
   1.04365003  2.55742002 12.51702023
   2.49624991  3.42289996 10.52492046
   4.01611996  1.02504003 10.48262024
  -0.26357001  3.38874006 10.40742016
   1.18912005  0.98806000 10.48182011
 


--------------------------------------------------------------------------------------------------------


 k-point  1 :   0.0833 0.0833 0.2500  plane waves:   12930
 k-point  2 :   0.2500 0.0833 0.2500  plane waves:   12897
 k-point  3 :   0.4167 0.0833 0.2500  plane waves:   12899
 k-point  4 :  -0.4167 0.0833 0.2500  plane waves:   12905
 k-point  5 :  -0.2500 0.0833 0.2500  plane waves:   12929
 k-point  6 :  -0.0833 0.0833 0.2500  plane waves:   12920
 k-point  7 :   0.0833 0.2500 0.2500  plane waves:   12888
 k-point  8 :   0.2500 0.2500 0.2500  plane waves:   12906
 k-point  9 :   0.4167 0.2500 0.2500  plane waves:   12908
 k-point 10 :  -0.4167 0.2500 0.2500  plane waves:   12895
 k-point 11 :  -0.2500 0.2500 0.2500  plane waves:   12918
 k-point 12 :  -0.0833 0.2500 0.2500  plane waves:   12923
 k-point 13 :   0.0833 0.4167 0.2500  plane waves:   12900
 k-point 14 :   0.2500 0.4167 0.2500  plane waves:   12896
 k-point 15 :   0.4167 0.4167 0.2500  plane waves:   12896
 k-point 16 :  -0.4167 0.4167 0.2500  plane waves:   12893
 k-point 17 :  -0.2500 0.4167 0.2500  plane waves:   12887
 k-point 18 :  -0.0833 0.4167 0.2500  plane waves:   12898
 k-point 19 :   0.0833-0.4167 0.2500  plane waves:   12901
 k-point 20 :   0.2500-0.4167 0.2500  plane waves:   12891
 k-point 21 :   0.4167-0.4167 0.2500  plane waves:   12900
 k-point 22 :  -0.4167-0.4167 0.2500  plane waves:   12892
 k-point 23 :  -0.2500-0.4167 0.2500  plane waves:   12901
 k-point 24 :  -0.0833-0.4167 0.2500  plane waves:   12890
 k-point 25 :   0.0833-0.2500 0.2500  plane waves:   12915
 k-point 26 :   0.2500-0.2500 0.2500  plane waves:   12926
 k-point 27 :   0.4167-0.2500 0.2500  plane waves:   12899
 k-point 28 :  -0.4167-0.2500 0.2500  plane waves:   12899
 k-point 29 :  -0.2500-0.2500 0.2500  plane waves:   12911
 k-point 30 :  -0.0833-0.2500 0.2500  plane waves:   12901
 k-point 31 :   0.0833-0.0833 0.2500  plane waves:   12929
 k-point 32 :   0.2500-0.0833 0.2500  plane waves:   12918
 k-point 33 :   0.4167-0.0833 0.2500  plane waves:   12888
 k-point 34 :  -0.4167-0.0833 0.2500  plane waves:   12900
 k-point 35 :  -0.2500-0.0833 0.2500  plane waves:   12885
 k-point 36 :  -0.0833-0.0833 0.2500  plane waves:   12935

 maximum and minimum number of plane-waves per node :      3244     3206

 maximum number of plane-waves:     12935
 maximum index in each direction: 
   IXMAX=   11   IYMAX=   11   IZMAX=   27
   IXMIN=  -11   IYMIN=  -11   IZMIN=  -28


 real space projection operators:
  total allocation   :       7151.94 KBytes
  max/ min on nodes  :       1792.95       1783.92


 parallel 3D FFT for wavefunctions:
    minimum data exchange during FFTs selected (reduces bandwidth)
 parallel 3D FFT for charge:
    minimum data exchange during FFTs selected (reduces bandwidth)


 total amount of memory used by VASP MPI-rank0   155912. kBytes
=======================================================================

   base      :      30000. kBytes
   nonlr-proj:       4088. kBytes
   fftplans  :       1579. kBytes
   grid      :       4337. kBytes
   one-center:        342. kBytes
   wavefun   :     115566. kBytes
 
     INWAV:  cpu time    0.0000: real time    0.0002
 Broyden mixing: mesh for mixing (old mesh)
   NGX = 23   NGY = 23   NGZ = 55
  (NGX  = 72   NGY  = 72   NGZ  =168)
  gives a total of  29095 points

 initial charge density was supplied:
 charge density of overlapping atoms calculated
 number of electron     258.0000000 magnetization       6.0000000
 keeping initial charge density in first step


--------------------------------------------------------------------------------------------------------


 Maximum index for non-local projection operator          655
 Maximum index for augmentation-charges          979 (set IRDMAX)


--------------------------------------------------------------------------------------------------------


 First call to EWALD:  gamma=   0.243
 Maximum number of real-space cells 4x 4x 2
 Maximum number of reciprocal cells 2x 2x 5

    FEWALD:  cpu time    0.0039: real time    0.0040


--------------------------------------- Iteration      1(   1)  ---------------------------------------


    POTLOK:  cpu time    0.0527: real time    0.0664
    SETDIJ:  cpu time    0.0171: real time    0.0179
    TRIAL :  cpu time   21.3874: real time   21.4535
    CORREC:  cpu time    0.0040: real time    0.0040
    --------------------------------------------
      LOOP:  cpu time   21.6265: real time   21.7091

 eigenvalue-minimisations  : 23040
 total energy-change (2. order) : 0.3487825E+04  (-0.1395000E+05)
 number of electron     258.0000000 magnetization       6.0000000
 augmentation part      258.0000000 magnetization       6.0000000

 Free energy of the ion-electron system (eV)
  ---------------------------------------------------
  alpha Z        PSCENC =       758.16609715
  Ewald energy   TEWEN  =    -14335.33591394
  -Hartree energ DENC   =     -6738.40781953
  -exchange      EXHF   =         0.00000000
  -V(xc)+E(xc)   XCENC  =       843.05874576
  PAW double counting   =     17015.18481625   -17491.61297812
  entropy T*S    EENTRO =        -0.00783233
  eigenvalues    EBANDS =      3267.90931777
  atomic energy  EATOM  =     20168.87094289
  ---------------------------------------------------
  free energy    TOTEN  =      3487.82537591 eV

  energy without entropy =     3487.83320823  energy(sigma->0) =     3487.82929207


--------------------------------------------------------------------------------------------------------




--------------------------------------- Iteration      1(   2)  ---------------------------------------


    TRIAL :  cpu time   22.6805: real time   22.7053
    CORREC:  cpu time    0.0039: real time    0.0039
    --------------------------------------------
      LOOP:  cpu time   22.6849: real time   22.7096

 eigenvalue-minimisations  : 24832
 total energy-change (2. order) :-0.3081968E+04  (-0.2842094E+04)
 number of electron     258.0000000 magnetization       6.0000000
 augmentation part      258.0000000 magnetization       6.0000000

 Free energy of the ion-electron system (eV)
  ---------------------------------------------------
  alpha Z        PSCENC =       758.16609715
  Ewald energy   TEWEN  =    -14335.33591394
  -Hartree energ DENC   =     -6738.40781953
  -exchange      EXHF   =         0.00000000
  -V(xc)+E(xc)   XCENC  =       843.05874576
  PAW double counting   =     17015.18481625   -17491.61297812
  entropy T*S    EENTRO =        -0.02265567
  eigenvalues    EBANDS =       185.95574032
  atomic energy  EATOM  =     20168.87094289
  ---------------------------------------------------
  free energy    TOTEN  =       405.85697512 eV

  energy without entropy =      405.87963079  energy(sigma->0) =      405.86830295


--------------------------------------------------------------------------------------------------------




--------------------------------------- Iteration      1(   3)  ---------------------------------------


    TRIAL :  cpu time   23.2921: real time   23.3217
    CORREC:  cpu time    0.0043: real time    0.0043
    --------------------------------------------
      LOOP:  cpu time   23.3002: real time   23.3298

 eigenvalue-minimisations  : 25792
 total energy-change (2. order) :-0.6265594E+03  (-0.5694166E+03)
 number of electron     258.0000000 magnetization       6.0000000
 augmentation part      258.0000000 magnetization       6.0000000

 Free energy of the ion-electron system (eV)
  ---------------------------------------------------
  alpha Z        PSCENC =       758.16609715
  Ewald energy   TEWEN  =    -14335.33591394
  -Hartree energ DENC   =     -6738.40781953
  -exchange      EXHF   =         0.00000000
  -V(xc)+E(xc)   XCENC  =       843.05874576
  PAW double counting   =     17015.18481625   -17491.61297812
  entropy T*S    EENTRO =        -0.03764362
  eigenvalues    EBANDS =      -440.58868559
  atomic energy  EATOM  =     20168.87094289
  ---------------------------------------------------
  free energy    TOTEN  =      -220.70243875 eV

  energy without entropy =     -220.66479513  energy(sigma->0) =     -220.68361694


--------------------------------------------------------------------------------------------------------




--------------------------------------- Iteration      1(   4)  ---------------------------------------


    TRIAL :  cpu time   23.1802: real time   23.2169
    CORREC:  cpu time    0.0037: real time    0.0037
    --------------------------------------------
      LOOP:  cpu time   23.1878: real time   23.2244

 eigenvalue-minimisations  : 25296
 total energy-change (2. order) :-0.5054918E+02  (-0.4948590E+02)
 number of electron     258.0000000 magnetization       6.0000000
 augmentation part      258.0000000 magnetization       6.0000000

 Free energy of the ion-electron system (eV)
  ---------------------------------------------------
  alpha Z        PSCENC =       758.16609715
  Ewald energy   TEWEN  =    -14335.33591394
  -Hartree energ DENC   =     -6738.40781953
  -exchange      EXHF   =         0.00000000
  -V(xc)+E(xc)   XCENC  =       843.05874576
  PAW double counting   =     17015.18481625   -17491.61297812
  entropy T*S    EENTRO =        -0.05073628
  eigenvalues    EBANDS =      -491.12477102
  atomic energy  EATOM  =     20168.87094289
  ---------------------------------------------------
  free energy    TOTEN  =      -271.25161684 eV

  energy without entropy =     -271.20088056  energy(sigma->0) =     -271.22624870


--------------------------------------------------------------------------------------------------------




--------------------------------------- Iteration      1(   5)  ---------------------------------------


    TRIAL :  cpu time   24.9515: real time   24.9894
    CORREC:  cpu time    0.0041: real time    0.0041
    CHARGE:  cpu time    0.4167: real time    0.4170
    --------------------------------------------
      LOOP:  cpu time   25.3765: real time   25.4148

 eigenvalue-minimisations  : 28368
 total energy-change (2. order) :-0.1738758E+01  (-0.1735663E+01)
 number of electron     258.0000037 magnetization       5.9999996
 augmentation part       67.9669981 magnetization       4.2581641

 Free energy of the ion-electron system (eV)
  ---------------------------------------------------
  alpha Z        PSCENC =       758.16609715
  Ewald energy   TEWEN  =    -14335.33591394
  -Hartree energ DENC   =     -6738.40781953
  -exchange      EXHF   =         0.00000000
  -V(xc)+E(xc)   XCENC  =       843.05874576
  PAW double counting   =     17015.18481625   -17491.61297812
  entropy T*S    EENTRO =        -0.05098908
  eigenvalues    EBANDS =      -492.86327654
  atomic energy  EATOM  =     20168.87094289
  ---------------------------------------------------
  free energy    TOTEN  =      -272.99037515 eV

  energy without entropy =     -272.93938607  energy(sigma->0) =     -272.96488061


--------------------------------------------------------------------------------------------------------




--------------------------------------- Iteration      1(   6)  ---------------------------------------


    POTLOK:  cpu time    0.0421: real time    0.0422
    SETDIJ:  cpu time    0.0120: real time    0.0121
    TRIAL :  cpu time   12.3846: real time   12.4099
    CORREC:  cpu time    4.3660: real time    4.3771
    CHARGE:  cpu time    0.4127: real time    0.4135
    --------------------------------------------
      LOOP:  cpu time   17.2214: real time   17.2589

 eigenvalue-minimisations  :     0
 total energy-change (2. order) : 0.3799316E+03  (-0.2912383E+03)
 number of electron     258.0000031 magnetization       5.9999999
 augmentation part       70.6653260 magnetization       4.4047479

 Free energy of the ion-electron system (eV)
  ---------------------------------------------------
  alpha Z        PSCENC =       758.16609715
  Ewald energy   TEWEN  =    -14335.33591394
  -Hartree energ DENC   =     -6446.51060681
  -exchange      EXHF   =         0.00000000
  -V(xc)+E(xc)   XCENC  =       877.03418012
  PAW double counting   =     23592.21708077   -23799.14810091
  entropy T*S    EENTRO =        -0.04737912
  eigenvalues    EBANDS =      -708.30144689
  atomic energy  EATOM  =     20168.87094289
  ---------------------------------------------------
  free energy    TOTEN  =       106.94124331 eV

  energy without entropy =      106.98862243  energy(sigma->0) =      106.96493287


--------------------------------------------------------------------------------------------------------




--------------------------------------- Iteration      1(   7)  ---------------------------------------


    POTLOK:  cpu time    0.0420: real time    0.0420
    SETDIJ:  cpu time    0.0123: real time    0.0123
    TRIAL :  cpu time   12.1519: real time   12.1906
    CORREC:  cpu time    4.3036: real time    4.3150
    CHARGE:  cpu time    0.4139: real time    0.4148
    --------------------------------------------
      LOOP:  cpu time   16.9280: real time   16.9789

 eigenvalue-minimisations  :     0
 total energy-change (2. order) :-0.1239310E+03  (-0.2382555E+02)
 number of electron     258.0000030 magnetization       6.0000000
 augmentation part       71.1598820 magnetization       4.3763158

 Free energy of the ion-electron system (eV)
  ---------------------------------------------------
  alpha Z        PSCENC =       758.16609715
  Ewald energy   TEWEN  =    -14335.33591394
  -Hartree energ DENC   =     -6494.15076778
  -exchange      EXHF   =         0.00000000
  -V(xc)+E(xc)   XCENC  =       866.78470650
  PAW double counting   =     23595.98384345   -23909.10409677
  entropy T*S    EENTRO =        -0.04883109
  eigenvalues    EBANDS =      -668.15716842
  atomic energy  EATOM  =     20168.87094289
  ---------------------------------------------------
  free energy    TOTEN  =       -16.98973604 eV

  energy without entropy =      -16.94090496  energy(sigma->0) =      -16.96532050


--------------------------------------------------------------------------------------------------------




--------------------------------------- Iteration      1(   8)  ---------------------------------------


    POTLOK:  cpu time    0.0416: real time    0.0417
    SETDIJ:  cpu time    0.0122: real time    0.0122
    TRIAL :  cpu time   12.3483: real time   12.3928
    CORREC:  cpu time    4.1612: real time    4.1710
    CHARGE:  cpu time    0.4140: real time    0.4148
    --------------------------------------------
      LOOP:  cpu time   16.9817: real time   17.0368

 eigenvalue-minimisations  :     0
 total energy-change (2. order) :-0.3178715E+02  (-0.1224106E+02)
 number of electron     258.0000029 magnetization       6.0000001
 augmentation part       71.4424277 magnetization       4.3369697

 Free energy of the ion-electron system (eV)
  ---------------------------------------------------
  alpha Z        PSCENC =       758.16609715
  Ewald energy   TEWEN  =    -14335.33591394
  -Hartree energ DENC   =     -6479.87957819
  -exchange      EXHF   =         0.00000000
  -V(xc)+E(xc)   XCENC  =       864.13033968
  PAW double counting   =     23559.43678363   -23892.20383084
  entropy T*S    EENTRO =        -0.04963198
  eigenvalues    EBANDS =      -691.91289158
  atomic energy  EATOM  =     20168.87094289
  ---------------------------------------------------
  free energy    TOTEN  =       -48.77688228 eV

  energy without entropy =      -48.72725030  energy(sigma->0) =      -48.75206629


--------------------------------------------------------------------------------------------------------




--------------------------------------- Iteration      1(   9)  ---------------------------------------


    POTLOK:  cpu time    0.0427: real time    0.0427
    SETDIJ:  cpu time    0.0121: real time    0.0122
    TRIAL :  cpu time   13.0641: real time   13.7352
    CORREC:  cpu time    4.1979: real time    4.2080
    CHARGE:  cpu time    0.4300: real time    0.4308
    --------------------------------------------
      LOOP:  cpu time   17.7511: real time   18.4332

 eigenvalue-minimisations  :     0
 total energy-change (2. order) :-0.5284763E+02  (-0.3390418E+02)
 number of electron     258.0000027 magnetization       6.0000002
 augmentation part       72.0525761 magnetization       4.3254575

 Free energy of the ion-electron system (eV)
  ---------------------------------------------------
  alpha Z        PSCENC =       758.16609715
  Ewald energy   TEWEN  =    -14335.33591394
  -Hartree energ DENC   =     -6451.06638653
  -exchange      EXHF   =         0.00000000
  -V(xc)+E(xc)   XCENC  =       862.51404018
  PAW double counting   =     23531.30658010   -23872.59980861
  entropy T*S    EENTRO =        -0.04775569
  eigenvalues    EBANDS =      -763.43043129
  atomic energy  EATOM  =     20168.87094289
  ---------------------------------------------------
  free energy    TOTEN  =      -101.62451203 eV

  energy without entropy =     -101.57675634  energy(sigma->0) =     -101.60063418


--------------------------------------------------------------------------------------------------------




--------------------------------------- Iteration      1(  10)  ---------------------------------------


    POTLOK:  cpu time    0.0421: real time    0.0421
    SETDIJ:  cpu time    0.0122: real time    0.0122
    TRIAL :  cpu time   12.3375: real time   12.3752
    CORREC:  cpu time    4.1770: real time    4.1887
    CHARGE:  cpu time    0.4143: real time    0.4152
    --------------------------------------------
      LOOP:  cpu time   16.9873: real time   17.0376

 eigenvalue-minimisations  :     0
 total energy-change (2. order) :-0.2885446E+02  (-0.1223590E+03)
 number of electron     258.0000027 magnetization       6.0000000
 augmentation part       73.5439309 magnetization       4.3830752

 Free energy of the ion-electron system (eV)
  ---------------------------------------------------
  alpha Z        PSCENC =       758.16609715
  Ewald energy   TEWEN  =    -14335.33591394
  -Hartree energ DENC   =     -6443.54054429
  -exchange      EXHF   =         0.00000000
  -V(xc)+E(xc)   XCENC  =       860.88354220
  PAW double counting   =     23583.81011431   -23948.69661407
  entropy T*S    EENTRO =        -0.03255992
  eigenvalues    EBANDS =      -774.58883998
  atomic energy  EATOM  =     20168.87094289
  ---------------------------------------------------
  free energy    TOTEN  =      -130.47897142 eV

  energy without entropy =     -130.44641150  energy(sigma->0) =     -130.46269146


--------------------------------------------------------------------------------------------------------




--------------------------------------- Iteration      1(  11)  ---------------------------------------


    POTLOK:  cpu time    0.0427: real time    0.0428
    SETDIJ:  cpu time    0.0122: real time    0.0122
    TRIAL :  cpu time   12.3106: real time   12.3485
    CORREC:  cpu time    4.2229: real time    4.2332
    CHARGE:  cpu time    0.4128: real time    0.4137
    --------------------------------------------
      LOOP:  cpu time   17.0052: real time   17.0544

 eigenvalue-minimisations  :     0
 total energy-change (2. order) : 0.8447178E+01  (-0.4249502E+01)
 number of electron     258.0000027 magnetization       6.0000000
 augmentation part       73.6899058 magnetization       4.3619954

 Free energy of the ion-electron system (eV)
  ---------------------------------------------------
  alpha Z        PSCENC =       758.16609715
  Ewald energy   TEWEN  =    -14335.33591394
  -Hartree energ DENC   =     -6563.54594167
  -exchange      EXHF   =         0.00000000
  -V(xc)+E(xc)   XCENC  =       856.97299096
  PAW double counting   =     23882.06885116   -24313.90740562
  entropy T*S    EENTRO =        -0.03927246
  eigenvalues    EBANDS =      -575.28885488
  atomic energy  EATOM  =     20168.87094289
  ---------------------------------------------------
  free energy    TOTEN  =      -122.03179388 eV

  energy without entropy =     -121.99252142  energy(sigma->0) =     -122.01215765


--------------------------------------------------------------------------------------------------------




--------------------------------------- Iteration      1(  12)  ---------------------------------------


    POTLOK:  cpu time    0.0420: real time    0.0421
    SETDIJ:  cpu time    0.0121: real time    0.0121
    TRIAL :  cpu time   12.3001: real time   12.3401
    CORREC:  cpu time    4.1913: real time    4.2030
    CHARGE:  cpu time    0.5606: real time    0.5616
    --------------------------------------------
      LOOP:  cpu time   17.1105: real time   17.1632

 eigenvalue-minimisations  :     0
 total energy-change (2. order) :-0.1927762E+02  (-0.5428620E+02)
 number of electron     258.0000025 magnetization       6.0000002
 augmentation part       73.9911799 magnetization       4.2946932

 Free energy of the ion-electron system (eV)
  ---------------------------------------------------
  alpha Z        PSCENC =       758.16609715
  Ewald energy   TEWEN  =    -14335.33591394
  -Hartree energ DENC   =     -6553.09371827
  -exchange      EXHF   =         0.00000000
  -V(xc)+E(xc)   XCENC  =       856.34975655
  PAW double counting   =     23879.95152722   -24316.44009709
  entropy T*S    EENTRO =        -0.03750420
  eigenvalues    EBANDS =      -599.73873567
  atomic energy  EATOM  =     20168.87094289
  ---------------------------------------------------
  free energy    TOTEN  =      -141.30941361 eV

  energy without entropy =     -141.27190941  energy(sigma->0) =     -141.29066151


--------------------------------------------------------------------------------------------------------




--------------------------------------- Iteration      1(  13)  ---------------------------------------


    POTLOK:  cpu time    0.0419: real time    0.0420
    SETDIJ:  cpu time    0.0121: real time    0.0121
    TRIAL :  cpu time   12.1639: real time   12.2008
    CORREC:  cpu time    4.4135: real time    4.4250
    CHARGE:  cpu time    0.4178: real time    0.4186
    --------------------------------------------
      LOOP:  cpu time   17.0533: real time   17.1027

 eigenvalue-minimisations  :     0
 total energy-change (2. order) :-0.5026088E+02  (-0.9744813E+01)
 number of electron     258.0000022 magnetization       6.0000003
 augmentation part       74.6881486 magnetization       4.2729981

 Free energy of the ion-electron system (eV)
  ---------------------------------------------------
  alpha Z        PSCENC =       758.16609715
  Ewald energy   TEWEN  =    -14335.33591394
  -Hartree energ DENC   =     -6516.58399176
  -exchange      EXHF   =         0.00000000
  -V(xc)+E(xc)   XCENC  =       855.15262259
  PAW double counting   =     23866.63722368   -24311.39609219
  entropy T*S    EENTRO =        -0.02919641
  eigenvalues    EBANDS =      -677.04367720
  atomic energy  EATOM  =     20168.87094289
  ---------------------------------------------------
  free energy    TOTEN  =      -191.57029298 eV

  energy without entropy =     -191.54109657  energy(sigma->0) =     -191.55569477


--------------------------------------------------------------------------------------------------------




--------------------------------------- Iteration      1(  14)  ---------------------------------------


    POTLOK:  cpu time    0.0419: real time    0.0420
    SETDIJ:  cpu time    0.0122: real time    0.0122
    TRIAL :  cpu time   12.1637: real time   12.2015
    CORREC:  cpu time    4.2732: real time    4.2846
    CHARGE:  cpu time    0.4150: real time    0.4158
    --------------------------------------------
      LOOP:  cpu time   16.9103: real time   16.9604

 eigenvalue-minimisations  :     0
 total energy-change (2. order) :-0.7305631E+01  (-0.6032866E+01)
 number of electron     258.0000021 magnetization       6.0000004
 augmentation part       75.5628475 magnetization       4.2156217

 Free energy of the ion-electron system (eV)
  ---------------------------------------------------
  alpha Z        PSCENC =       758.16609715
  Ewald energy   TEWEN  =    -14335.33591394
  -Hartree energ DENC   =     -6552.94530384
  -exchange      EXHF   =         0.00000000
  -V(xc)+E(xc)   XCENC  =       853.44251383
  PAW double counting   =     23962.78029713   -24434.95512073
  entropy T*S    EENTRO =        -0.02635786
  eigenvalues    EBANDS =      -618.87024011
  atomic energy  EATOM  =     20168.87094289
  ---------------------------------------------------
  free energy    TOTEN  =      -198.87592404 eV

  energy without entropy =     -198.84956618  energy(sigma->0) =     -198.86274511


--------------------------------------------------------------------------------------------------------




--------------------------------------- Iteration      1(  15)  ---------------------------------------


    POTLOK:  cpu time    0.0417: real time    0.0417
    SETDIJ:  cpu time    0.0121: real time    0.0121
    TRIAL :  cpu time   12.3892: real time   12.4277
    CORREC:  cpu time    4.1730: real time    4.1847
    CHARGE:  cpu time    0.4141: real time    0.4149
    --------------------------------------------
      LOOP:  cpu time   17.0345: real time   17.0856

 eigenvalue-minimisations  :     0
 total energy-change (2. order) :-0.6469220E+01  (-0.8384852E+01)
 number of electron     258.0000020 magnetization       6.0000004
 augmentation part       76.3871815 magnetization       4.1341097

 Free energy of the ion-electron system (eV)
  ---------------------------------------------------
  alpha Z        PSCENC =       758.16609715
  Ewald energy   TEWEN  =    -14335.33591394
  -Hartree energ DENC   =     -6611.90550981
  -exchange      EXHF   =         0.00000000
  -V(xc)+E(xc)   XCENC  =       851.60506315
  PAW double counting   =     24090.61054527   -24596.86104998
  entropy T*S    EENTRO =        -0.02327802
  eigenvalues    EBANDS =      -530.46896119
  atomic energy  EATOM  =     20168.87094289
  ---------------------------------------------------
  free energy    TOTEN  =      -205.34514432 eV

  energy without entropy =     -205.32186630  energy(sigma->0) =     -205.33350531


--------------------------------------------------------------------------------------------------------




--------------------------------------- Iteration      1(  16)  ---------------------------------------


    POTLOK:  cpu time    0.0417: real time    0.0417
    SETDIJ:  cpu time    0.0122: real time    0.0122
    TRIAL :  cpu time   12.0929: real time   12.2885
    CORREC:  cpu time    4.1605: real time    4.1793
    CHARGE:  cpu time    0.4152: real time    0.4166
    --------------------------------------------
      LOOP:  cpu time   16.7266: real time   16.9424

 eigenvalue-minimisations  :     0
 total energy-change (2. order) :-0.3331956E+01  (-0.2600330E+01)
 number of electron     258.0000020 magnetization       6.0000004
 augmentation part       76.6618828 magnetization       4.0539449

 Free energy of the ion-electron system (eV)
  ---------------------------------------------------
  alpha Z        PSCENC =       758.16609715
  Ewald energy   TEWEN  =    -14335.33591394
  -Hartree energ DENC   =     -6681.32108560
  -exchange      EXHF   =         0.00000000
  -V(xc)+E(xc)   XCENC  =       849.94319761
  PAW double counting   =     24195.46417176   -24732.02982231
  entropy T*S    EENTRO =        -0.02201706
  eigenvalues    EBANDS =      -432.41140940
  atomic energy  EATOM  =     20168.87094289
  ---------------------------------------------------
  free energy    TOTEN  =      -208.67709986 eV

  energy without entropy =     -208.65508279  energy(sigma->0) =     -208.66609133


--------------------------------------------------------------------------------------------------------




--------------------------------------- Iteration      1(  17)  ---------------------------------------


    POTLOK:  cpu time    0.0418: real time    0.0419
    SETDIJ:  cpu time    0.0122: real time    0.0122
    TRIAL :  cpu time   12.1494: real time   12.3908
    CORREC:  cpu time    4.1337: real time    4.1442
    CHARGE:  cpu time    0.4156: real time    0.4165
    --------------------------------------------
      LOOP:  cpu time   16.7568: real time   17.0096

 eigenvalue-minimisations  :     0
 total energy-change (2. order) :-0.2989167E+01  (-0.2625177E+01)
 number of electron     258.0000020 magnetization       6.0000003
 augmentation part       76.3568652 magnetization       4.0194535

 Free energy of the ion-electron system (eV)
  ---------------------------------------------------
  alpha Z        PSCENC =       758.16609715
  Ewald energy   TEWEN  =    -14335.33591394
  -Hartree energ DENC   =     -6710.19629431
  -exchange      EXHF   =         0.00000000
  -V(xc)+E(xc)   XCENC  =       849.18271709
  PAW double counting   =     24159.67967176   -24701.51136181
  entropy T*S    EENTRO =        -0.02012456
  eigenvalues    EBANDS =      -400.50010878
  atomic energy  EATOM  =     20168.87094289
  ---------------------------------------------------
  free energy    TOTEN  =      -211.66626702 eV

  energy without entropy =     -211.64614246  energy(sigma->0) =     -211.65620474


--------------------------------------------------------------------------------------------------------




--------------------------------------- Iteration      1(  18)  ---------------------------------------


    POTLOK:  cpu time    0.0416: real time    0.0416
    SETDIJ:  cpu time    0.0122: real time    0.0122
    TRIAL :  cpu time   12.2936: real time   12.3309
    CORREC:  cpu time    4.1605: real time    4.1923
    CHARGE:  cpu time    0.4110: real time    0.4126
    --------------------------------------------
      LOOP:  cpu time   16.9230: real time   16.9939

 eigenvalue-minimisations  :     0
 total energy-change (2. order) :-0.2422618E+01  (-0.3652308E+01)
 number of electron     258.0000021 magnetization       6.0000003
 augmentation part       75.4253476 magnetization       3.9897291

 Free energy of the ion-electron system (eV)
  ---------------------------------------------------
  alpha Z        PSCENC =       758.16609715
  Ewald energy   TEWEN  =    -14335.33591394
  -Hartree energ DENC   =     -6701.70569386
  -exchange      EXHF   =         0.00000000
  -V(xc)+E(xc)   XCENC  =       849.17068719
  PAW double counting   =     24016.83175816   -24539.76793240
  entropy T*S    EENTRO =        -0.01901094
  eigenvalues    EBANDS =      -430.29870597
  atomic energy  EATOM  =     20168.87094289
  ---------------------------------------------------
  free energy    TOTEN  =      -214.08888534 eV

  energy without entropy =     -214.06987440  energy(sigma->0) =     -214.07937987


--------------------------------------------------------------------------------------------------------




--------------------------------------- Iteration      1(  19)  ---------------------------------------


    POTLOK:  cpu time    0.0417: real time    0.0418
    SETDIJ:  cpu time    0.0122: real time    0.0122
    TRIAL :  cpu time   12.2755: real time   12.3227
    CORREC:  cpu time    4.1457: real time    4.1596
    CHARGE:  cpu time    0.4084: real time    0.4129
    --------------------------------------------
      LOOP:  cpu time   16.8875: real time   16.9533

 eigenvalue-minimisations  :     0
 total energy-change (2. order) :-0.3451244E+01  (-0.1933996E+01)
 number of electron     258.0000021 magnetization       6.0000004
 augmentation part       74.9652568 magnetization       3.9694980

 Free energy of the ion-electron system (eV)
  ---------------------------------------------------
  alpha Z        PSCENC =       758.16609715
  Ewald energy   TEWEN  =    -14335.33591394
  -Hartree energ DENC   =     -6668.59794683
  -exchange      EXHF   =         0.00000000
  -V(xc)+E(xc)   XCENC  =       849.45508029
  PAW double counting   =     23747.29195482   -24220.29324951
  entropy T*S    EENTRO =        -0.01959598
  eigenvalues    EBANDS =      -517.07808281
  atomic energy  EATOM  =     20168.87094289
  ---------------------------------------------------
  free energy    TOTEN  =      -217.54012888 eV

  energy without entropy =     -217.52053290  energy(sigma->0) =     -217.53033089


--------------------------------------------------------------------------------------------------------




--------------------------------------- Iteration      1(  20)  ---------------------------------------


    POTLOK:  cpu time    0.0417: real time    0.0418
    SETDIJ:  cpu time    0.0121: real time    0.0121
    TRIAL :  cpu time   12.2209: real time   12.2589
    CORREC:  cpu time    4.3558: real time    4.3674
    CHARGE:  cpu time    0.4123: real time    0.4132
    --------------------------------------------
      LOOP:  cpu time   17.0470: real time   17.0976

 eigenvalue-minimisations  :     0
 total energy-change (2. order) :-0.1594303E+01  (-0.9093250E+00)
 number of electron     258.0000020 magnetization       6.0000004
 augmentation part       74.9582165 magnetization       3.9369136

 Free energy of the ion-electron system (eV)
  ---------------------------------------------------
  alpha Z        PSCENC =       758.16609715
  Ewald energy   TEWEN  =    -14335.33591394
  -Hartree energ DENC   =     -6653.19257415
  -exchange      EXHF   =         0.00000000
  -V(xc)+E(xc)   XCENC  =       849.70164208
  PAW double counting   =     23641.04290979   -24088.18225470
  entropy T*S    EENTRO =        -0.01931517
  eigenvalues    EBANDS =      -560.18568526
  atomic energy  EATOM  =     20168.87094289
  ---------------------------------------------------
  free energy    TOTEN  =      -219.13443211 eV

  energy without entropy =     -219.11511694  energy(sigma->0) =     -219.12477453


--------------------------------------------------------------------------------------------------------




--------------------------------------- Iteration      1(  21)  ---------------------------------------


    POTLOK:  cpu time    0.0421: real time    0.0422
    SETDIJ:  cpu time    0.0122: real time    0.0122
    TRIAL :  cpu time   12.1345: real time   12.1754
    CORREC:  cpu time    4.2290: real time    4.2390
    CHARGE:  cpu time    0.4092: real time    0.4100
    --------------------------------------------
      LOOP:  cpu time   16.8312: real time   16.8829

 eigenvalue-minimisations  :     0
 total energy-change (2. order) :-0.7648567E+00  (-0.5075913E+00)
 number of electron     258.0000020 magnetization       6.0000005
 augmentation part       75.2732080 magnetization       3.8975312

 Free energy of the ion-electron system (eV)
  ---------------------------------------------------
  alpha Z        PSCENC =       758.16609715
  Ewald energy   TEWEN  =    -14335.33591394
  -Hartree energ DENC   =     -6656.08145149
  -exchange      EXHF   =         0.00000000
  -V(xc)+E(xc)   XCENC  =       850.19195072
  PAW double counting   =     23609.16765758   -24049.61541498
  entropy T*S    EENTRO =        -0.01870380
  eigenvalues    EBANDS =      -565.24384154
  atomic energy  EATOM  =     20168.87094289
  ---------------------------------------------------
  free energy    TOTEN  =      -219.89928878 eV

  energy without entropy =     -219.88058498  energy(sigma->0) =     -219.88993688


--------------------------------------------------------------------------------------------------------




--------------------------------------- Iteration      1(  22)  ---------------------------------------


    POTLOK:  cpu time    0.0417: real time    0.0419
    SETDIJ:  cpu time    0.0121: real time    0.0122
    TRIAL :  cpu time   12.2841: real time   12.3187
    CORREC:  cpu time    4.1638: real time    4.1736
    CHARGE:  cpu time    0.4064: real time    0.4071
    --------------------------------------------
      LOOP:  cpu time   16.9124: real time   16.9576

 eigenvalue-minimisations  :     0
 total energy-change (2. order) :-0.4903298E+00  (-0.5938634E+00)
 number of electron     258.0000019 magnetization       6.0000005
 augmentation part       75.8701969 magnetization       3.8379262

 Free energy of the ion-electron system (eV)
  ---------------------------------------------------
  alpha Z        PSCENC =       758.16609715
  Ewald energy   TEWEN  =    -14335.33591394
  -Hartree energ DENC   =     -6674.47734292
  -exchange      EXHF   =         0.00000000
  -V(xc)+E(xc)   XCENC  =       850.77925631
  PAW double counting   =     23621.03650793   -24068.83242170
  entropy T*S    EENTRO =        -0.01814621
  eigenvalues    EBANDS =      -540.57804049
  atomic energy  EATOM  =     20168.87094289
  ---------------------------------------------------
  free energy    TOTEN  =      -220.38961858 eV

  energy without entropy =     -220.37147237  energy(sigma->0) =     -220.38054547


--------------------------------------------------------------------------------------------------------




--------------------------------------- Iteration      1(  23)  ---------------------------------------


    POTLOK:  cpu time    0.0423: real time    0.0424
    SETDIJ:  cpu time    0.0122: real time    0.0122
    TRIAL :  cpu time   12.2280: real time   12.2617
    CORREC:  cpu time    4.1759: real time    4.1858
    CHARGE:  cpu time    0.4083: real time    0.4092
    --------------------------------------------
      LOOP:  cpu time   16.8709: real time   16.9155

 eigenvalue-minimisations  :     0
 total energy-change (2. order) :-0.6135488E+00  (-0.1960676E+00)
 number of electron     258.0000019 magnetization       6.0000005
 augmentation part       76.0474636 magnetization       3.8220274

 Free energy of the ion-electron system (eV)
  ---------------------------------------------------
  alpha Z        PSCENC =       758.16609715
  Ewald energy   TEWEN  =    -14335.33591394
  -Hartree energ DENC   =     -6709.93745021
  -exchange      EXHF   =         0.00000000
  -V(xc)+E(xc)   XCENC  =       851.68365195
  PAW double counting   =     23656.59670725   -24120.94709032
  entropy T*S    EENTRO =        -0.01812284
  eigenvalues    EBANDS =      -490.08196594
  atomic energy  EATOM  =     20168.87094289
  ---------------------------------------------------
  free energy    TOTEN  =      -221.00316738 eV

  energy without entropy =     -220.98504454  energy(sigma->0) =     -220.99410596


--------------------------------------------------------------------------------------------------------




--------------------------------------- Iteration      1(  24)  ---------------------------------------


    POTLOK:  cpu time    0.0416: real time    0.0417
    SETDIJ:  cpu time    0.0122: real time    0.0122
    TRIAL :  cpu time   12.3277: real time   12.3676
    CORREC:  cpu time    4.1426: real time    4.1546
    CHARGE:  cpu time    0.4059: real time    0.4067
    --------------------------------------------
      LOOP:  cpu time   16.9342: real time   16.9869

 eigenvalue-minimisations  :     0
 total energy-change (2. order) :-0.1848725E+00  (-0.1603123E+00)
 number of electron     258.0000019 magnetization       6.0000005
 augmentation part       76.0937156 magnetization       3.8165132

 Free energy of the ion-electron system (eV)
  ---------------------------------------------------
  alpha Z        PSCENC =       758.16609715
  Ewald energy   TEWEN  =    -14335.33591394
  -Hartree energ DENC   =     -6718.94590627
  -exchange      EXHF   =         0.00000000
  -V(xc)+E(xc)   XCENC  =       851.98291609
  PAW double counting   =     23663.77358928   -24132.72234211
  entropy T*S    EENTRO =        -0.01788203
  eigenvalues    EBANDS =      -476.95930016
  atomic energy  EATOM  =     20168.87094289
  ---------------------------------------------------
  free energy    TOTEN  =      -221.18803990 eV

  energy without entropy =     -221.17015787  energy(sigma->0) =     -221.17909889


--------------------------------------------------------------------------------------------------------




--------------------------------------- Iteration      1(  25)  ---------------------------------------


    POTLOK:  cpu time    0.0421: real time    0.0422
    SETDIJ:  cpu time    0.0121: real time    0.0121
    TRIAL :  cpu time   12.2540: real time   12.3323
    CORREC:  cpu time    4.1206: real time    4.1457
    CHARGE:  cpu time    0.4051: real time    0.4069
    --------------------------------------------
      LOOP:  cpu time   16.8380: real time   16.9434

 eigenvalue-minimisations  :     0
 total energy-change (2. order) :-0.1589993E+00  (-0.1232983E+00)
[...]
   20        1.569   3.405   0.000   4.974
   21        1.580   3.384   0.000   4.963
   22        1.575   3.393   0.000   4.968
   23        1.557   3.496   0.000   5.054
   24        1.570   3.395   0.000   4.964
   25        1.570   3.420   0.000   4.989
   26        1.564   3.418   0.000   4.982
   27        1.576   3.360   0.000   4.935
   28        1.577   3.408   0.000   4.986
   29        1.572   3.450   0.000   5.022
   30        1.572   3.451   0.000   5.023
   31        1.578   3.363   0.000   4.940
   32        1.575   3.388   0.000   4.963
   33        1.590   3.316   0.000   4.906
   34        1.579   3.426   0.000   5.005
   35        1.560   3.448   0.000   5.008
   36        1.561   3.461   0.000   5.022
   37        1.556   3.452   0.000   5.009
   38        1.558   3.455   0.000   5.013
   39        1.563   3.450   0.000   5.013
   40        1.569   3.400   0.000   4.969
   41        1.563   3.416   0.000   4.979
   42        1.561   3.460   0.000   5.020
--------------------------------------------------
tot         43.557  91.582  87.449 222.588
 


 magnetization (x)
 
# of ion       s       p       d       tot
------------------------------------------
    1        0.000  -0.001   0.000  -0.001
    2        0.001  -0.001   0.000  -0.000
    3        0.001   0.000   0.000   0.001
    4       -0.000  -0.002   0.000  -0.003
    5       -0.001  -0.004   0.000  -0.004
    6        0.001  -0.001   0.000   0.000
    7        0.010   0.013   1.233   1.255
    8        0.004   0.004   0.000   0.008
    9        0.004   0.005   0.000   0.009
   10        0.012   0.015   1.311   1.338
   11        0.005   0.008   0.003   0.017
   12        0.014   0.017   1.464   1.495
   13        0.014   0.019   1.359   1.392
   14        0.014   0.019   1.389   1.423
   15        0.001   0.001  -0.022  -0.020
   16        0.010   0.011   1.328   1.349
   17        0.002   0.002  -0.008  -0.004
   18        0.002   0.002  -0.023  -0.019
   19        0.000  -0.082   0.000  -0.082
   20       -0.000  -0.055   0.000  -0.055
   21       -0.000  -0.053   0.000  -0.053
   22        0.001  -0.095   0.000  -0.094
   23        0.000  -0.037   0.000  -0.037
   24        0.000  -0.110   0.000  -0.109
   25        0.001  -0.075   0.000  -0.074
   26        0.000  -0.047   0.000  -0.047
   27        0.000  -0.179   0.000  -0.179
   28        0.002  -0.133   0.000  -0.131
   29        0.001  -0.103   0.000  -0.102
   30        0.001  -0.067   0.000  -0.065
   31        0.001  -0.152   0.000  -0.151
   32        0.001  -0.127   0.000  -0.127
   33        0.002  -0.231   0.000  -0.229
   34        0.001  -0.085   0.000  -0.083
   35        0.000  -0.047   0.000  -0.047
   36       -0.000  -0.064   0.000  -0.064
   37       -0.001  -0.011   0.000  -0.012
   38        0.000  -0.028   0.000  -0.028
   39       -0.001  -0.024   0.000  -0.025
   40        0.000  -0.044   0.000  -0.043
   41       -0.000  -0.071   0.000  -0.072
   42       -0.000  -0.056   0.000  -0.056
--------------------------------------------------
tot          0.101  -1.866   8.034   6.270
 
    FORLOC:  cpu time    0.0079: real time    0.0079
    FORNL :  cpu time    4.0233: real time    4.0276
    STRESS:  cpu time   11.7826: real time   11.8245
    FORCOR:  cpu time    0.0441: real time    0.0442
    OFIELD:  cpu time    0.0004: real time    0.0004

  DFT-D2 method for vdW energy calculation
  -------------------------------------------------------------------

  Parameters of vdW forcefield:
         C6(Jnm^6/mol)     R0(A)
   -----------------------------
   Li       1.610          0.825
   Co      10.800          1.562
   O        0.700          1.342

  IVDW =   1
  VDW_RADIUS =    50.000 A
  VDW_S6 =     0.750
  VDW_SR =     1.000
  VDW_D =    20.000
  LVDW_EWALD = F

  Number of pair interactions contributing to vdW energy: 1222789
  Edisp (eV):   -9.88263
    FORVDW:  cpu time    0.1756: real time    0.1764

  FORCE on cell =-STRESS in cart. coord.  units (eV):
  Direction    XX          YY          ZZ          XY          YZ          ZX
  --------------------------------------------------------------------------------------
  Alpha Z   758.16610   758.16610   758.16610
  Ewald   -2050.75708 -2003.27058-10281.37362    76.33839    -1.47503    85.55876
  Hartree  4218.69184  4243.29942 -1771.79306    26.95301     0.98201    31.96977
  E(xc)   -1284.92842 -1284.95920 -1286.28764     0.00828     0.04684    -0.10331
  Local   -7126.16145 -7199.38259  7043.11140   -99.29537     1.60515  -116.05676
  n-local  -592.98394  -593.59172  -603.93004     2.84003     0.02239     3.36483
  augment  2018.97670  2021.06995  2005.27489    -1.95351    -0.84609     0.07409
  Kinetic  4060.02822  4058.92727  4154.12773    -2.28928     0.06487     2.18880
  Fock        0.00000     0.00000     0.00000     0.00000     0.00000     0.00000
  vdW        -6.10005    -6.07220   -13.57262     0.22506    -0.04816     0.17909
  -------------------------------------------------------------------------------------
  Total      -5.06807    -5.81355     3.72313     2.82660     0.35198     7.17528
  in kB     -20.99921   -24.08806    15.42655    11.71184     1.45839    29.73027
  external pressure =       -9.89 kB  Pullay stress =        0.00 kB


 VOLUME and BASIS-vectors are now :
 -----------------------------------------------------------------------------
  energy-cutoff  :      600.00
  volume of cell :      386.68
      direct lattice vectors                 reciprocal lattice vectors
     5.678186417  0.000000000  0.000000000     0.176112570  0.102397226  0.017362596
    -2.862290144  4.922841072  0.000000000     0.000000000  0.203134732  0.024001100
    -0.413475692 -1.634450793 13.833271027     0.000000000  0.000000000  0.072289482

  length of vectors
     5.678186417  5.694477069 13.935629833     0.204456081  0.204547725  0.072289482


 FORCES acting on ions:
    Electron-Ion                     Ewald-Force                    Non-Local-Force
 -----------------------------------------------------------------------------------------------
   -.502E+00 0.149E+01 0.584E+01   0.351E+00 -.163E+01 -.549E+01   -.179E+00 -.566E-01 -.782E+00
   -.118E+01 -.142E+01 -.192E+02   0.111E+01 0.141E+01 0.181E+02   0.560E+00 0.415E-01 0.148E+01
   -.485E+01 -.205E+01 -.143E+01   0.466E+01 0.208E+01 0.111E+01   0.613E+00 0.709E+00 0.130E+00
   0.147E+01 -.635E+00 -.237E+01   -.107E+01 0.522E+00 0.234E+01   -.527E+00 -.292E-01 0.228E+00
   -.287E+01 0.120E+01 0.132E+02   0.262E+01 -.125E+01 -.131E+02   0.357E+00 -.839E-01 -.815E+00
   0.743E+00 -.121E+01 0.713E+01   -.790E+00 0.128E+01 -.612E+01   -.599E-02 -.657E-01 -.798E+00
   0.152E+02 -.221E+02 -.738E+02   -.165E+02 0.236E+02 0.749E+02   -.348E-02 0.304E+00 -.935E+00
   0.128E+02 0.256E+02 -.867E+01   -.137E+02 -.266E+02 0.915E+01   -.111E+01 0.684E+00 -.111E+01
   -.111E+02 -.370E+02 0.127E+02   0.127E+02 0.383E+02 -.112E+02   -.336E+00 0.525E+00 -.138E+01
   0.982E+01 0.857E+01 -.286E+02   -.964E+01 -.953E+01 0.290E+02   -.249E+00 -.117E+00 -.496E+00
   -.659E+02 -.492E+02 -.430E+02   0.691E+02 0.514E+02 0.433E+02   -.340E+00 -.178E+00 -.402E+00
   -.369E+02 -.271E+02 0.497E+02   0.379E+02 0.281E+02 -.515E+02   -.619E+00 0.708E-01 0.738E+00
   0.688E+02 -.497E+01 0.138E+03   -.719E+02 0.621E+01 -.139E+03   -.150E+00 0.825E+00 0.121E+00
   0.539E+02 0.550E+02 0.698E+02   -.560E+02 -.582E+02 -.719E+02   0.581E-01 0.541E-01 0.557E-01
   -.154E+02 0.185E+02 0.292E+02   0.157E+02 -.192E+02 -.296E+02   0.126E+01 -.869E+00 0.547E+00
   0.195E+01 0.199E+02 -.212E+02   -.246E+01 -.204E+02 0.197E+02   0.895E+00 -.120E+00 0.355E+00
   0.610E+01 -.272E+02 -.557E+02   -.616E+01 0.281E+02 0.552E+02   0.524E-01 -.541E+00 0.171E+00
   -.173E+02 0.218E+02 -.670E+02   0.181E+02 -.225E+02 0.671E+02   -.521E+00 -.362E+00 0.278E+00
   -.208E+02 0.210E+02 -.319E+03   0.228E+02 -.208E+02 0.340E+03   -.157E+01 -.774E+00 -.209E+02
   0.117E+02 -.204E+01 -.296E+03   -.112E+02 -.636E+00 0.316E+03   -.317E+00 0.263E+01 -.206E+02
   0.680E+01 -.110E+00 -.316E+03   -.677E+01 0.909E+00 0.342E+03   0.120E+00 -.151E+01 -.262E+02
   -.211E+02 -.369E+01 -.314E+03   0.220E+02 0.385E+01 0.336E+03   0.388E+00 -.433E+00 -.222E+02
   -.197E+02 0.151E+02 0.287E+03   0.198E+02 -.169E+02 -.301E+03   0.913E+00 0.157E+01 0.134E+02
   0.225E+02 -.919E+01 0.286E+03   -.244E+02 0.701E+01 -.305E+03   0.163E+01 0.326E+01 0.188E+02
   0.294E+02 -.173E+02 0.299E+03   -.312E+02 0.214E+02 -.318E+03   0.899E+00 -.507E+01 0.190E+02
   -.349E+02 0.212E+02 0.269E+03   0.386E+02 -.233E+02 -.284E+03   -.332E+01 0.149E+01 0.158E+02
   0.170E+02 0.155E+02 -.249E+03   -.180E+02 -.184E+02 0.267E+03   0.119E+01 0.282E+01 -.184E+02
   0.298E+02 0.325E+02 -.268E+03   -.345E+02 -.351E+02 0.290E+03   0.499E+01 0.155E+01 -.209E+02
   -.160E+02 -.169E+02 -.288E+03   0.169E+02 0.179E+02 0.309E+03   -.669E+00 -.140E+01 -.198E+02
   -.401E+02 -.978E+01 -.292E+03   0.465E+02 0.111E+02 0.314E+03   -.581E+01 -.738E+00 -.208E+02
   -.204E+02 -.164E+01 0.316E+03   0.223E+02 0.151E+01 -.336E+03   -.184E+01 -.556E-01 0.209E+02
   -.140E+02 -.816E+01 0.322E+03   0.147E+02 0.756E+01 -.341E+03   0.759E-01 0.337E+00 0.201E+02
   0.171E+02 0.122E+01 0.343E+03   -.183E+02 -.288E-01 -.367E+03   0.144E+01 -.966E+00 0.254E+02
   0.828E+01 0.140E+02 0.369E+03   -.792E+01 -.160E+02 -.394E+03   -.991E+00 0.125E+01 0.242E+02
   0.268E+02 -.180E+01 -.309E+03   -.293E+02 0.241E+01 0.324E+03   0.180E+01 -.513E+00 -.158E+02
   0.753E+01 0.313E+01 -.320E+03   -.101E+02 -.344E+01 0.336E+03   0.221E+01 0.666E+00 -.153E+02
   -.221E+02 -.111E+02 -.313E+03   0.237E+02 0.141E+02 0.328E+03   -.139E+01 -.260E+01 -.149E+02
   -.126E+02 -.132E+02 -.311E+03   0.151E+02 0.128E+02 0.327E+03   -.231E+01 0.106E+01 -.152E+02
   0.290E+01 -.110E+02 0.284E+03   -.110E+01 0.123E+02 -.304E+03   -.249E+01 -.110E+01 0.191E+02
   0.169E+01 0.168E+02 0.273E+03   -.565E+00 -.165E+02 -.293E+03   -.172E+01 -.873E+00 0.208E+02
   0.972E+01 -.105E+02 0.267E+03   -.138E+02 0.101E+02 -.284E+03   0.408E+01 0.948E+00 0.173E+02
   0.162E+02 -.573E+01 0.278E+03   -.195E+02 0.622E+01 -.295E+03   0.233E+01 0.506E+00 0.166E+02
 -----------------------------------------------------------------------------------------------
   0.581E+00 -.289E+01 0.222E+01   0.142E-13 -.471E-13 -.909E-12   -.610E+00 0.285E+01 -.226E+01
 
 
 POSITION                                       TOTAL-FORCE (eV/Angst)
 -----------------------------------------------------------------------------------
     -0.03870      0.23934      0.03905        -0.187826     -0.188845     -0.348898
      2.30679     -1.46279     13.65292         0.353509      0.098092      0.277108
      1.32757      2.48855      0.00915         0.339569      0.506727     -0.261778
      2.81718      3.65947      4.53785        -0.148532     -0.118066     -0.020216
      2.59233      0.21683      9.40746         0.082860     -0.041725     -0.481639
      1.19093      2.67448      9.27879        -0.021577      0.133439      0.307694
     -0.16313      1.85690      2.37725        -1.128650      1.630279     -0.141975
     -1.52263      4.33823      2.31394        -1.896319     -0.267600     -0.604978
      2.60679      1.88592      2.27749         1.115836      1.678096      0.079584
      1.22246      4.42553      2.32180         0.049598     -1.015403     -0.252402
      2.60017      3.64416      7.05767         2.494633      1.826465     -0.136665
      4.04737      1.19851      6.93537         0.312390      0.851802     -0.954673
     -0.13232      3.64786      6.82248        -2.854809      1.927819     -0.430842
      1.29893      1.28378      6.96349        -1.689354     -2.843213     -1.656403
      1.06938     -0.62017     11.39382         1.498356     -1.362233      0.429634
     -0.31447      1.80971     11.48172         0.368766     -0.403974     -0.987071
      3.95816     -0.66842     11.51332        -0.070273      0.120300     -0.387865
      2.54172      1.82570     11.49592         0.178300     -0.943706      0.186098
     -0.18552      0.26316      3.28731         0.440583     -0.494063      0.080934
     -1.63130      2.71602      3.25459         0.260985     -0.091604     -0.343015
      2.68231      0.31791      3.25405         0.135282     -0.717283     -0.246075
      1.15454      2.77618      3.24464         1.268370     -0.273906      0.333570
      1.16066      1.06079      1.34409         1.150756     -0.216657     -0.616524
     -0.10646      3.44496      1.29809        -0.386032      1.124652      0.483847
      4.16209      1.13895      1.35359        -1.002875     -0.945251     -0.482879
      2.57571      3.63202      1.27038         0.439933     -0.655712      0.787988
      1.31724     -0.39188      7.89731         0.075583     -0.119778     -0.389178
     -0.17614      2.14553      7.80597         0.302191     -1.109732      0.817012
      3.99496     -0.40450      7.81304         0.309776     -0.485601      1.699320
      2.61632      1.95537      7.93461         0.701610      0.596689      0.878193
     -0.17431      0.40885      6.05199         0.100122     -0.168281      0.184173
     -1.71051      2.86469      5.99301         0.773581     -0.306348      0.584696
      2.64894      0.39544      5.89878         0.271000      0.217288      0.858369
      1.33847      2.90063      6.00730        -0.676593     -0.719302     -0.894565
     -0.24039      0.15536     12.50742        -0.785343      0.137064     -0.653971
     -1.69844      2.64871     12.38972        -0.443896      0.322988      0.732383
      2.46725      0.09920     12.44902         0.281698      0.518820      0.198228
      1.04365      2.55742     12.51702         0.230440      0.711385     -0.030276
      2.49625      3.42290     10.52492        -0.614854      0.266183     -0.342049
      4.01612      1.02504     10.48262        -0.534936     -0.578972      0.852246
     -0.26357      3.38874     10.40742        -0.084668      0.468751      0.970323
      1.18912      0.98806     10.48182        -1.009190      0.930418     -0.077466
 -----------------------------------------------------------------------------------
    total drift:                               -0.029085     -0.042608     -0.037335


--------------------------------------------------------------------------------------------------------



  FREE ENERGIE OF THE ION-ELECTRON SYSTEM (eV)
  ---------------------------------------------------
  free  energy   TOTEN  =      -234.19480208 eV

  energy  without entropy=     -234.19323550  energy(sigma->0) =     -234.19401879
 


--------------------------------------------------------------------------------------------------------


    POTLOK:  cpu time    0.0608: real time    0.0609


--------------------------------------------------------------------------------------------------------


     LOOP+:  cpu time 1834.6076: real time 1841.5501
    4ORBIT:  cpu time    0.0000: real time    0.0000
 


 total charge     
 
# of ion       s       p       d       tot
------------------------------------------
    1        0.092   0.192   0.000   0.285
    2        0.092   0.192   0.000   0.284
    3        0.099   0.210   0.000   0.310
    4        0.081   0.169   0.000   0.250
    5        0.097   0.210   0.000   0.307
    6        0.097   0.206   0.000   0.303
    7        0.478   0.787   7.234   8.499
    8        0.415   0.625   7.336   8.376
    9        0.416   0.627   7.336   8.380
   10        0.463   0.741   7.226   8.430
   11        0.444   0.700   7.405   8.549
   12        0.451   0.713   7.190   8.354
   13        0.473   0.763   7.239   8.475
   14        0.468   0.750   7.238   8.455
   15        0.438   0.687   7.379   8.504
   16        0.452   0.718   7.186   8.356
   17        0.408   0.613   7.323   8.343
   18        0.427   0.658   7.357   8.441
   19        1.573   3.410   0.000   4.982
   20        1.569   3.405   0.000   4.974
   21        1.580   3.384   0.000   4.963
   22        1.575   3.393   0.000   4.968
   23        1.557   3.496   0.000   5.054
   24        1.570   3.395   0.000   4.964
   25        1.570   3.420   0.000   4.989
   26        1.564   3.418   0.000   4.982
   27        1.576   3.360   0.000   4.935
   28        1.577   3.408   0.000   4.986
   29        1.572   3.450   0.000   5.022
   30        1.572   3.451   0.000   5.023
   31        1.578   3.363   0.000   4.940
   32        1.575   3.388   0.000   4.963
   33        1.590   3.316   0.000   4.906
   34        1.579   3.426   0.000   5.005
   35        1.560   3.448   0.000   5.008
   36        1.561   3.461   0.000   5.022
   37        1.556   3.452   0.000   5.009
   38        1.558   3.455   0.000   5.013
   39        1.563   3.450   0.000   5.013
   40        1.569   3.400   0.000   4.969
   41        1.563   3.416   0.000   4.979
   42        1.561   3.460   0.000   5.020
--------------------------------------------------
tot         43.557  91.582  87.449 222.588
 


 magnetization (x)
 
# of ion       s       p       d       tot
------------------------------------------
    1        0.000  -0.001   0.000  -0.001
    2        0.001  -0.001   0.000  -0.000
    3        0.001   0.000   0.000   0.001
    4       -0.000  -0.002   0.000  -0.003
    5       -0.001  -0.004   0.000  -0.004
    6        0.001  -0.001   0.000   0.000
    7        0.010   0.013   1.233   1.255
    8        0.004   0.004   0.000   0.008
    9        0.004   0.005   0.000   0.009
   10        0.012   0.015   1.311   1.338
   11        0.005   0.008   0.003   0.017
   12        0.014   0.017   1.464   1.495
   13        0.014   0.019   1.359   1.392
   14        0.014   0.019   1.389   1.423
   15        0.001   0.001  -0.022  -0.020
   16        0.010   0.011   1.328   1.349
   17        0.002   0.002  -0.008  -0.004
   18        0.002   0.002  -0.023  -0.019
   19        0.000  -0.082   0.000  -0.082
   20       -0.000  -0.055   0.000  -0.055
   21       -0.000  -0.053   0.000  -0.053
   22        0.001  -0.095   0.000  -0.094
   23        0.000  -0.037   0.000  -0.037
   24        0.000  -0.110   0.000  -0.109
   25        0.001  -0.075   0.000  -0.074
   26        0.000  -0.047   0.000  -0.047
   27        0.000  -0.179   0.000  -0.179
   28        0.002  -0.133   0.000  -0.131
   29        0.001  -0.103   0.000  -0.102
   30        0.001  -0.067   0.000  -0.065
   31        0.001  -0.152   0.000  -0.151
   32        0.001  -0.127   0.000  -0.127
   33        0.002  -0.231   0.000  -0.229
   34        0.001  -0.085   0.000  -0.083
   35        0.000  -0.047   0.000  -0.047
   36       -0.000  -0.064   0.000  -0.064
   37       -0.001  -0.011   0.000  -0.012
   38        0.000  -0.028   0.000  -0.028
   39       -0.001  -0.024   0.000  -0.025
   40        0.000  -0.044   0.000  -0.043
   41       -0.000  -0.071   0.000  -0.072
   42       -0.000  -0.056   0.000  -0.056
--------------------------------------------------
tot          0.101  -1.866   8.034   6.270
 

 total amount of memory used by VASP MPI-rank0   155912. kBytes
=======================================================================

   base      :      30000. kBytes
   nonlr-proj:       4088. kBytes
   fftplans  :       1579. kBytes
   grid      :       4337. kBytes
   one-center:        342. kBytes
   wavefun   :     115566. kBytes
 
  
  
 General timing and accounting informations for this job:
 ========================================================
  
                  Total CPU time used (sec):     1859.458
                            User time (sec):     1739.830
                          System time (sec):      119.627
                         Elapsed time (sec):     1866.959
  
                   Maximum memory used (kb):      631224.
                   Average memory used (kb):           0.
  
                          Minor page faults:        69991
                          Major page faults:           81
                 Voluntary context switches:          592
