 vasp.5.4.4.18Apr17-6-g9f103f2a35 (build Nov 22 2021 14:44:17) complex          
  
 executed on             LinuxIFC date 2022.08.05  13:35:42
 running on   64 total cores
 distrk:  each k-point on   64 cores,    1 groups
 distr:  one band on NCORES_PER_BAND=   4 cores,   16 groups


--------------------------------------------------------------------------------------------------------


 INCAR:
 POTCAR:    PAW_PBE Li 17Jan2003                  
 POTCAR:    PAW_PBE Co 02Aug2007                  
 POTCAR:    PAW_PBE O 08Apr2002                   
 POTCAR:    PAW_PBE Li 17Jan2003                  
   VRHFIN =Li: s1p0                                                             
   LEXCH  = PE                                                                  
   EATOM  =     5.3001 eV,    0.3895 Ry                                         
                                                                                
   TITEL  = PAW_PBE Li 17Jan2003                                                
   LULTRA =        F    use ultrasoft PP ?                                      
   IUNSCR =        1    unscreen: 0-lin 1-nonlin 2-no                           
   RPACOR =    1.500    partial core radius                                     
   POMASS =    7.010; ZVAL   =    1.000    mass and valenz                      
   RCORE  =    2.050    outmost cutoff radius                                   
   RWIGS  =    2.600; RWIGS  =    1.376    wigner-seitz radius (au A)           
   ENMAX  =  140.000; ENMIN  =  100.000 eV                                      
   ICORE  =        2    local potential                                         
   LCOR   =        T    correct aug charges                                     
   LPAW   =        T    paw PP                                                  
   EAUG   =  331.638                                                            
   DEXC   =    0.000                                                            
   RMAX   =    2.098    core radius for proj-oper                               
   RAUG   =    1.300    factor for augmentation sphere                          
   RDEP   =    2.094    radius for radial grids                                 
   RDEPT  =    1.810    core radius for aug-charge                              
                                                                                
   Atomic configuration                                                         
    4 entries                                                                   
     n  l   j            E        occ.                                          
     1  0  0.50       -51.8549   2.0000                                         
     2  0  0.50        -2.8742   1.0000                                         
     2  1  0.50        -1.3606   0.0000                                         
     3  2  1.50        -1.3606   0.0000                                         
   Description                                                                  
     l       E           TYP  RCUT    TYP  RCUT                                 
     0     -2.8742052     23  2.050                                             
     0     27.2116520     23  2.050                                             
     1     -1.3605826     23  2.050                                             
     2     -1.3605826     23  2.050                                             
  local pseudopotential read in
  partial core-charges read in
  partial kinetic energy density read in
  atomic valenz-charges read in
  non local Contribution for L=           0  read in
    real space projection operators read in
  non local Contribution for L=           0  read in
    real space projection operators read in
  non local Contribution for L=           1  read in
    real space projection operators read in
    PAW grid and wavefunctions read in
 
   number of l-projection  operators is LMAX  =           3
   number of lm-projection operators is LMMAX =           5
 
 POTCAR:    PAW_PBE Co 02Aug2007                  
   VRHFIN =Co: d8 s1                                                            
   LEXCH  = PE                                                                  
   EATOM  =   813.3670 eV,   59.7808 Ry                                         
                                                                                
   TITEL  = PAW_PBE Co 02Aug2007                                                
   LULTRA =        F    use ultrasoft PP ?                                      
   IUNSCR =        1    unscreen: 0-lin 1-nonlin 2-no                           
   RPACOR =    2.000    partial core radius                                     
   POMASS =   58.933; ZVAL   =    9.000    mass and valenz                      
   RCORE  =    2.300    outmost cutoff radius                                   
   RWIGS  =    2.460; RWIGS  =    1.302    wigner-seitz radius (au A)           
   ENMAX  =  267.968; ENMIN  =  200.976 eV                                      
   RCLOC  =    1.203    cutoff for local pot                                    
   LCOR   =        T    correct aug charges                                     
   LPAW   =        T    paw PP                                                  
   EAUG   =  477.818                                                            
   DEXC   =    0.000                                                            
   RMAX   =    2.360    core radius for proj-oper                               
   RAUG   =    1.300    factor for augmentation sphere                          
   RDEP   =    2.393    radius for radial grids                                 
   RDEPT  =    1.864    core radius for aug-charge                              
                                                                                
   Atomic configuration                                                         
    9 entries                                                                   
     n  l   j            E        occ.                                          
     1  0  0.50     -7587.6674   2.0000                                         
     2  0  0.50      -893.6084   2.0000                                         
     2  1  1.50      -764.5805   6.0000                                         
     3  0  0.50       -97.5973   2.0000                                         
     3  1  1.50       -60.9648   6.0000                                         
     3  2  2.50        -4.2382   8.0000                                         
     4  0  0.50        -4.3746   1.0000                                         
     4  1  1.50        -4.0817   0.0000                                         
     4  3  2.50        -1.3606   0.0000                                         
   Description                                                                  
     l       E           TYP  RCUT    TYP  RCUT                                 
     2     -4.2382362     23  2.300                                             
     2     -5.5988188     23  2.300                                             
     0     -4.3745797     23  2.300                                             
     0      5.7660125     23  2.300                                             
     1     -2.7211652     23  2.300                                             
     1     16.9860234     23  2.300                                             
  local pseudopotential read in
  partial core-charges read in
  partial kinetic energy density read in
  atomic valenz-charges read in
  non local Contribution for L=           2  read in
    real space projection operators read in
  non local Contribution for L=           2  read in
    real space projection operators read in
  non local Contribution for L=           0  read in
    real space projection operators read in
  non local Contribution for L=           0  read in
    real space projection operators read in
  non local Contribution for L=           1  read in
    real space projection operators read in
  non local Contribution for L=           1  read in
    real space projection operators read in
    PAW grid and wavefunctions read in
 
   number of l-projection  operators is LMAX  =           6
   number of lm-projection operators is LMMAX =          18
 
 POTCAR:    PAW_PBE O 08Apr2002                   
   VRHFIN =O: s2p4                                                              
   LEXCH  = PE                                                                  
   EATOM  =   432.3788 eV,   31.7789 Ry                                         
                                                                                
   TITEL  = PAW_PBE O 08Apr2002                                                 
   LULTRA =        F    use ultrasoft PP ?                                      
   IUNSCR =        1    unscreen: 0-lin 1-nonlin 2-no                           
   RPACOR =    1.200    partial core radius                                     
   POMASS =   16.000; ZVAL   =    6.000    mass and valenz                      
   RCORE  =    1.520    outmost cutoff radius                                   
   RWIGS  =    1.550; RWIGS  =    0.820    wigner-seitz radius (au A)           
   ENMAX  =  400.000; ENMIN  =  300.000 eV                                      
   ICORE  =        2    local potential                                         
   LCOR   =        T    correct aug charges                                     
   LPAW   =        T    paw PP                                                  
   EAUG   =  605.392                                                            
   DEXC   =    0.000                                                            
   RMAX   =    1.553    core radius for proj-oper                               
   RAUG   =    1.300    factor for augmentation sphere                          
   RDEP   =    1.550    radius for radial grids                                 
   RDEPT  =    1.329    core radius for aug-charge                              
                                                                                
   Atomic configuration                                                         
    4 entries                                                                   
     n  l   j            E        occ.                                          
     1  0  0.50      -514.6923   2.0000                                         
     2  0  0.50       -23.9615   2.0000                                         
     2  1  0.50        -9.0305   4.0000                                         
     3  2  1.50        -9.5241   0.0000                                         
   Description                                                                  
     l       E           TYP  RCUT    TYP  RCUT                                 
     0    -23.9615318     23  1.200                                             
     0     -9.5240782     23  1.200                                             
     1     -9.0304911     23  1.520                                             
     1      8.1634956     23  1.520                                             
     2     -9.5240782      7  1.500                                             
  local pseudopotential read in
  partial core-charges read in
  partial kinetic energy density read in
  kinetic energy density of atom read in
  atomic valenz-charges read in
  non local Contribution for L=           0  read in
    real space projection operators read in
  non local Contribution for L=           0  read in
    real space projection operators read in
  non local Contribution for L=           1  read in
    real space projection operators read in
  non local Contribution for L=           1  read in
    real space projection operators read in
    PAW grid and wavefunctions read in
 
   number of l-projection  operators is LMAX  =           4
   number of lm-projection operators is LMMAX =           8
 
 Optimization of the real space projectors (new method)

 maximal supplied QI-value         = 18.33
 optimisation between [QCUT,QGAM] = [ 12.46, 24.93] = [ 43.51,174.03] Ry 
 Optimized for a Real-space Cutoff    1.13 Angstroem

   l    n(q)    QCUT    max X(q) W(low)/X(q) W(high)/X(q)  e(spline) 
   0      8    12.465    33.825    0.12E-03    0.29E-03    0.99E-07
   0      8    12.465     8.944    0.86E-04    0.22E-03    0.72E-07
   1      8    12.465     4.214    0.27E-03    0.11E-03    0.82E-07
 Optimization of the real space projectors (new method)

 maximal supplied QI-value         = 16.25
 optimisation between [QCUT,QGAM] = [ 12.51, 25.03] = [ 43.85,175.40] Ry 
 Optimized for a Real-space Cutoff    1.31 Angstroem

   l    n(q)    QCUT    max X(q) W(low)/X(q) W(high)/X(q)  e(spline) 
   2      9    12.514    65.824    0.30E-03    0.46E-03    0.43E-06
   2      9    12.514    61.429    0.31E-03    0.46E-03    0.44E-06
   0     10    12.514    56.174    0.90E-04    0.33E-03    0.30E-06
   0     10    12.514    31.263    0.81E-04    0.30E-03    0.28E-06
   1      9    12.514    19.828    0.38E-03    0.65E-04    0.24E-06
   1      9    12.514    15.139    0.32E-03    0.60E-04    0.20E-06
 Optimization of the real space projectors (new method)

 maximal supplied QI-value         = 24.76
 optimisation between [QCUT,QGAM] = [ 12.38, 25.00] = [ 42.90,175.06] Ry 
 Optimized for a Real-space Cutoff    1.13 Angstroem

   l    n(q)    QCUT    max X(q) W(low)/X(q) W(high)/X(q)  e(spline) 
   0      8    12.378    20.381    0.16E-03    0.54E-05    0.27E-06
   0      8    12.378    15.268    0.17E-03    0.61E-05    0.29E-06
   1      8    12.378     5.964    0.38E-03    0.23E-03    0.28E-06
   1      8    12.378     5.382    0.33E-03    0.20E-03    0.25E-06
  PAW_PBE Li 17Jan2003                  :
 energy of atom  1       EATOM=   -5.3001
 kinetic energy error for atom=    0.0000 (will be added to EATOM!!)
  PAW_PBE Co 02Aug2007                  :
 energy of atom  2       EATOM= -813.3670
 kinetic energy error for atom=    0.0018 (will be added to EATOM!!)
  PAW_PBE O 08Apr2002                   :
 energy of atom  3       EATOM= -432.3788
 kinetic energy error for atom=    0.0168 (will be added to EATOM!!)
 
 
 POSCAR: Li6 Co12 O24                            
  positions in cartesian coordinates
  No initial velocities read in
 exchange correlation table for  LEXCH =        8
   RHO(1)=    0.500       N(1)  =     2000
   RHO(2)=  100.500       N(2)  =     4000
 


--------------------------------------------------------------------------------------------------------


 ion  position               nearest neighbor table
   1  0.457  0.966  0.000-  36 2.01  24 2.09  23 2.13  25 2.16  38 2.25  37 2.37   8 2.74  10 2.76
                             9 2.83  16 2.89  15 2.93  17 3.18
   2  0.830  0.677  0.326-  19 2.17  20 2.23  22 2.24  34 2.40  33 2.42  32 2.49   8 3.04  10 3.13
                             9 3.17  11 3.18  14 3.21
   3  0.162  0.348  0.683-  39 2.01  40 2.01  29 2.13  42 2.15  28 2.15  27 2.32   4 2.68  17 2.71
                             5 2.71   6 2.75  16 2.77  15 2.89   6 2.89   5 2.92  12 2.93   4 2.98
   4  0.194  0.837  0.659-  28 1.73  27 1.92  30 2.04  41 2.14  40 2.21  39 2.50   5 2.64   3 2.68
                            12 2.69   6 2.73  13 2.76  11 2.79   6 2.87   5 2.96   3 2.98  16 3.03
   5  0.662  0.311  0.669-  29 1.89  27 1.97  41 2.11  40 2.14  30 2.15  42 2.27   4 2.64   3 2.71
                             6 2.81   6 2.82  17 2.83  12 2.84  13 2.86  14 2.90   3 2.92   4 2.96
   6  0.703  0.831  0.664-  30 1.80  29 1.99  28 2.07  39 2.13  42 2.25  41 2.55   4 2.73  11 2.73
                             3 2.75  14 2.79   5 2.81   5 2.82   4 2.87   3 2.89  13 2.96  17 3.00
   7  0.152  0.333  0.163-  24 1.85  20 1.89  19 1.91  22 1.94  23 1.99  25 2.00   9 2.75  10 2.79
                             8 2.79   8 2.83  10 2.84   9 2.87
   8  0.149  0.828  0.153-  23 1.78  20 1.84  26 1.86  21 1.90  19 1.90  24 1.96  10 2.68   1 2.74
                             7 2.79   9 2.79   9 2.80   7 2.83  10 2.93   2 3.04
   9  0.656  0.320  0.150-  23 1.81  21 1.84  22 1.84  25 1.88  26 1.88  20 1.95   7 2.75  10 2.79
                             8 2.79   8 2.80  10 2.83   1 2.83   7 2.87   2 3.17
  10  0.670  0.824  0.143-  24 1.87  25 1.89  26 1.92  19 1.93  22 1.96  21 2.03   8 2.68   1 2.76
                             9 2.79   7 2.79   9 2.83   7 2.84   8 2.93   2 3.13
  11  0.003  0.993  0.511-  31 1.81  34 1.87  32 1.88  30 1.93  27 2.01  29 2.10   6 2.73  14 2.75
                            12 2.75   4 2.79  13 2.79  13 2.81  14 2.84  12 2.86   3 3.10   2 3.18
  12  0.005  0.503  0.516-  33 1.86  32 1.88  31 1.90  29 1.98  28 1.99  30 1.99   4 2.69  11 2.75
                            14 2.78  13 2.78  13 2.82  14 2.83   5 2.84  11 2.86   3 2.93
  13  0.511  0.004  0.507-  34 1.83  32 1.85  33 1.89  27 1.97  29 1.99  28 2.00   4 2.76  12 2.78
                            11 2.79  14 2.81  14 2.81  11 2.81  12 2.82   5 2.86   6 2.96
  14  0.510  0.504  0.512-  34 1.85  31 1.88  30 1.95  33 1.97  27 1.99  28 2.12  11 2.75  12 2.78
                             6 2.79  13 2.81  13 2.81  12 2.83  11 2.84   5 2.90   3 3.08   2 3.21
  15  0.332  0.166  0.837-  41 1.77  36 1.81  37 1.83  35 1.83  39 1.93  42 1.93  18 2.77  16 2.78
                            17 2.80  17 2.81  18 2.81  16 2.83   3 2.89   1 2.93   5 3.00   4 3.13
  16  0.339  0.674  0.833-  38 1.84  36 1.88  35 1.89  41 1.91  42 1.91  40 1.98   3 2.77  15 2.78
                            17 2.79  18 2.80  17 2.80  18 2.81  15 2.83   1 2.89   4 3.03   6 3.11
  17  0.837  0.178  0.829-  39 1.77  38 1.80  37 1.86  40 1.93  35 1.93  41 1.98   3 2.71  18 2.76
                            16 2.79  15 2.80  16 2.80  15 2.81   5 2.83  18 2.86   6 3.00   1 3.18
  18  0.837  0.669  0.839-  37 1.86  42 1.89  36 1.92  40 1.92  38 1.94  39 2.05  17 2.76  15 2.77
                            16 2.80  16 2.81  15 2.81  17 2.86   6 3.00   5 3.09
  19  0.982  0.986  0.222-   8 1.90   7 1.91  10 1.93   2 2.17
  20  0.990  0.514  0.221-   8 1.84   7 1.89   9 1.95   2 2.23
  21  0.491  0.999  0.214-   9 1.84   8 1.90  10 2.03
  22  0.513  0.492  0.217-   9 1.84   7 1.94  10 1.96   2 2.24
  23  0.322  0.150  0.096-   8 1.78   9 1.81   7 1.99   1 2.13
  24  0.318  0.642  0.091-   7 1.85  10 1.87   8 1.96   1 2.09
  25  0.823  0.163  0.082-   9 1.88  10 1.89   7 2.00   1 2.16
  26  0.835  0.644  0.081-   8 1.86   9 1.88  10 1.92
  27  0.348  0.163  0.586-   4 1.92   5 1.97  13 1.97  14 1.99  11 2.01   3 2.32
  28  0.340  0.692  0.593-   4 1.73  12 1.99  13 2.00   6 2.07  14 2.12   3 2.15
  29  0.826  0.169  0.591-   5 1.89  12 1.98  13 1.99   6 1.99  11 2.10   3 2.13
  30  0.834  0.676  0.589-   6 1.80  11 1.93  14 1.95  12 1.99   4 2.04   5 2.15
  31  0.165  0.324  0.455-  11 1.81  14 1.88  12 1.90
  32  0.174  0.829  0.449-  13 1.85  11 1.88  12 1.88   2 2.49
  33  0.694  0.341  0.444-  12 1.86  13 1.89  14 1.97   2 2.42
  34  0.668  0.830  0.449-  13 1.83  14 1.85  11 1.87   2 2.40
  35  0.176  0.338  0.897-  15 1.83  16 1.89  17 1.93
  36  0.186  0.849  0.899-  15 1.81  16 1.88  18 1.92   1 2.01
  37  0.665  0.328  0.895-  15 1.83  18 1.86  17 1.86   1 2.37
  38  0.671  0.865  0.893-  17 1.80  16 1.84  18 1.94   1 2.25
  39  0.999  0.028  0.768-  17 1.77  15 1.93   3 2.01  18 2.05   6 2.13   4 2.50
  40  0.996  0.516  0.761-  18 1.92  17 1.93  16 1.98   3 2.01   5 2.14   4 2.21
  41  0.473  0.010  0.769-  15 1.77  16 1.91  17 1.98   5 2.11   4 2.14   6 2.55
  42  0.512  0.506  0.770-  18 1.89  16 1.91  15 1.93   3 2.15   6 2.25   5 2.27
 

IMPORTANT INFORMATION: All symmetrisations will be switched off!
NOSYMM: (Re-)initialisation of all symmetry stuff for point group C_1.

 
 

Automatic generation of k-mesh.
 generate k-points for:    6    6    2
Space group operators:
 irot       det(A)        alpha          n_x          n_y          n_z        tau_x        tau_y        tau_z
    1     1.000000     0.000000     1.000000     0.000000     0.000000     0.000000     0.000000     0.000000
 
 Subroutine IBZKPT returns following result:
 ===========================================
 
 Found     36 irreducible k-points:
 
 Following reciprocal coordinates:
            Coordinates               Weight
  0.083333  0.083333  0.250000      2.000000
  0.250000  0.083333  0.250000      2.000000
  0.416667  0.083333  0.250000      2.000000
 -0.416667  0.083333  0.250000      2.000000
 -0.250000  0.083333  0.250000      2.000000
 -0.083333  0.083333  0.250000      2.000000
  0.083333  0.250000  0.250000      2.000000
  0.250000  0.250000  0.250000      2.000000
  0.416667  0.250000  0.250000      2.000000
 -0.416667  0.250000  0.250000      2.000000
 -0.250000  0.250000  0.250000      2.000000
 -0.083333  0.250000  0.250000      2.000000
  0.083333  0.416667  0.250000      2.000000
  0.250000  0.416667  0.250000      2.000000
  0.416667  0.416667  0.250000      2.000000
 -0.416667  0.416667  0.250000      2.000000
 -0.250000  0.416667  0.250000      2.000000
 -0.083333  0.416667  0.250000      2.000000
  0.083333 -0.416667  0.250000      2.000000
  0.250000 -0.416667  0.250000      2.000000
  0.416667 -0.416667  0.250000      2.000000
 -0.416667 -0.416667  0.250000      2.000000
 -0.250000 -0.416667  0.250000      2.000000
 -0.083333 -0.416667  0.250000      2.000000
  0.083333 -0.250000  0.250000      2.000000
  0.250000 -0.250000  0.250000      2.000000
  0.416667 -0.250000  0.250000      2.000000
 -0.416667 -0.250000  0.250000      2.000000
 -0.250000 -0.250000  0.250000      2.000000
 -0.083333 -0.250000  0.250000      2.000000
  0.083333 -0.083333  0.250000      2.000000
  0.250000 -0.083333  0.250000      2.000000
  0.416667 -0.083333  0.250000      2.000000
 -0.416667 -0.083333  0.250000      2.000000
 -0.250000 -0.083333  0.250000      2.000000
 -0.083333 -0.083333  0.250000      2.000000
 
 Following cartesian coordinates:
            Coordinates               Weight
  0.014874  0.025854  0.016666      2.000000
  0.044623  0.043177  0.016763      2.000000
  0.074372  0.060501  0.016859      2.000000
 -0.074372 -0.026116  0.016377      2.000000
 -0.044623 -0.008793  0.016474      2.000000
 -0.014874  0.008530  0.016570      2.000000
  0.014874  0.060238  0.016728      2.000000
  0.044623  0.077562  0.016824      2.000000
  0.074372  0.094885  0.016921      2.000000
 -0.074372  0.008268  0.016439      2.000000
 -0.044623  0.025591  0.016536      2.000000
 -0.014874  0.042915  0.016632      2.000000
  0.014874  0.094622  0.016790      2.000000
  0.044623  0.111946  0.016886      2.000000
  0.074372  0.129269  0.016982      2.000000
 -0.074372  0.042652  0.016501      2.000000
 -0.044623  0.059976  0.016597      2.000000
 -0.014874  0.077299  0.016694      2.000000
  0.014874 -0.077299  0.016481      2.000000
  0.044623 -0.059976  0.016577      2.000000
  0.074372 -0.042652  0.016673      2.000000
 -0.074372 -0.129269  0.016192      2.000000
 -0.044623 -0.111946  0.016288      2.000000
 -0.014874 -0.094622  0.016384      2.000000
  0.014874 -0.042915  0.016543      2.000000
  0.044623 -0.025591  0.016639      2.000000
  0.074372 -0.008268  0.016735      2.000000
 -0.074372 -0.094885  0.016254      2.000000
 -0.044623 -0.077562  0.016350      2.000000
 -0.014874 -0.060238  0.016446      2.000000
  0.014874 -0.008530  0.016604      2.000000
  0.044623  0.008793  0.016701      2.000000
  0.074372  0.026116  0.016797      2.000000
 -0.074372 -0.060501  0.016316      2.000000
 -0.044623 -0.043177  0.016412      2.000000
 -0.014874 -0.025854  0.016508      2.000000
 


--------------------------------------------------------------------------------------------------------




 Dimension of arrays:
   k-points           NKPTS =     36   k-points in BZ     NKDIM =     36   number of bands    NBANDS=    160
   number of dos      NEDOS =    301   number of ions     NIONS =     42
   non local maximal  LDIM  =      6   non local SUM 2l+1 LMDIM =     18
   total plane-waves  NPLWV = 116640
   max r-space proj   IRMAX =   2713   max aug-charges    IRDMAX=  11437
   dimension x,y,z NGX =    36 NGY =   36 NGZ =   90
   dimension x,y,z NGXF=    72 NGYF=   72 NGZF=  180
   support grid    NGXF=    72 NGYF=   72 NGZF=  180
   ions per type =               6  12  24
   NGX,Y,Z   is equivalent  to a cutoff of  10.68, 10.67,  9.93 a.u.
   NGXF,Y,Z  is equivalent  to a cutoff of  21.37, 21.34, 19.85 a.u.

 SYSTEM =  LiCoO2                                  
 POSCAR =  Li6 Co12 O24                            

 Startparameter for this run:
   NWRITE =      2    write-flag & timer
   PREC   = normal    normal or accurate (medium, high low for compatibility)
   ISTART =      0    job   : 0-new  1-cont  2-samecut
   ICHARG =      2    charge: 1-file 2-atom 10-const
   ISPIN  =      2    spin polarized calculation?
   LNONCOLLINEAR =      F non collinear calculations
   LSORBIT =      F    spin-orbit coupling
   INIWAV =      1    electr: 0-lowe 1-rand  2-diag
   LASPH  =      F    aspherical Exc in radial PAW
   METAGGA=      F    non-selfconsistent MetaGGA calc.

 Electronic Relaxation 1
   ENCUT  =  600.0 eV  44.10 Ry    6.64 a.u.  11.19 11.20 30.10*2*pi/ulx,y,z
   ENINI  =  600.0     initial cutoff
   ENAUG  =  605.4 eV  augmentation charge cutoff
   NELM   =    600;   NELMIN=  2; NELMDL= -5     # of ELM steps 
   EDIFF  = 0.1E-05   stopping-criterion for ELM
   LREAL  =      T    real-space projection
   NLSPLINE    = F    spline interpolate recip. space projectors
   LCOMPAT=      F    compatible to vasp.4.4
   GGA_COMPAT  = T    GGA compatible to vasp.4.4-vasp.4.6
   LMAXPAW     = -100 max onsite density
   LMAXMIX     =    2 max onsite mixed and CHGCAR
   VOSKOWN=      0    Vosko Wilk Nusair interpolation
   ROPT   =   -0.00050  -0.00050  -0.00050
 Ionic relaxation
   EDIFFG = 0.1E-04   stopping-criterion for IOM
   NSW    =      0    number of steps for IOM
   NBLOCK =      1;   KBLOCK =      1    inner block; outer block 
   IBRION =     -1    ionic relax: 0-MD 1-quasi-New 2-CG
   NFREE  =      0    steps in history (QN), initial steepest desc. (CG)
   ISIF   =      2    stress and relaxation
   IWAVPR =     10    prediction:  0-non 1-charg 2-wave 3-comb
   ISYM   =      0    0-nonsym 1-usesym 2-fastsym
   LCORR  =      T    Harris-Foulkes like correction to forces

   POTIM  = 0.5000    time-step for ionic-motion
   TEIN   =    0.0    initial temperature
   TEBEG  =    0.0;   TEEND  =   0.0 temperature during run
   SMASS  =  -3.00    Nose mass-parameter (am)
   estimated Nose-frequenzy (Omega)   =  0.10E-29 period in steps =****** mass=  -0.717E-27a.u.
   SCALEE = 1.0000    scale energy and forces
   NPACO  =    256;   APACO  = 16.0  distance and # of slots for P.C.
   PSTRESS=    0.0 pullay stress

  Mass of Ions in am
   POMASS =   7.01 58.93 16.00
  Ionic Valenz
   ZVAL   =   1.00  9.00  6.00
  Atomic Wigner-Seitz radii
   RWIGS  =  -1.00 -1.00 -1.00
  virtual crystal weights 
   VCA    =   1.00  1.00  1.00
   NELECT =     258.0000    total number of electrons
   NUPDOWN=       6.0000    fix difference up-down

 DOS related values:
   EMIN   =  10.00;   EMAX   =-10.00  energy-range for DOS
   EFERMI =   0.00
   ISMEAR =     0;   SIGMA  =   0.05  broadening in eV -4-tet -1-fermi 0-gaus

 Electronic relaxation 2 (details)
   IALGO  =     58    algorithm
   LDIAG  =      T    sub-space diagonalisation (order eigenvalues)
   LSUBROT=      F    optimize rotation matrix (better conditioning)
   TURBO    =      0    0=normal 1=particle mesh
   IRESTART =      0    0=no restart 2=restart with 2 vectors
   NREBOOT  =      0    no. of reboots
   NMIN     =      0    reboot dimension
   EREF     =   0.00    reference energy to select bands
   IMIX   =      4    mixing-type and parameters
     AMIX     =   0.40;   BMIX     =  1.00
     AMIX_MAG =   1.60;   BMIX_MAG =  1.00
     AMIN     =   0.10
     WC   =   100.;   INIMIX=   1;  MIXPRE=   1;  MAXMIX= -45

 Intra band minimization:
   WEIMIN = 0.0000     energy-eigenvalue tresh-hold
   EBREAK =  0.16E-08  absolut break condition
   DEPER  =   0.30     relativ break condition  

   TIME   =   0.40     timestep for ELM

  volume/ion in A,a.u.               =       9.75        65.76
  Fermi-wavevector in a.u.,A,eV,Ry     =   1.403684  2.652579 26.807959  1.970329
  Thomas-Fermi vector in A             =   2.526321
 
 Write flags
   LWAVE        =      F    write WAVECAR
   LDOWNSAMPLE  =      F    k-point downsampling of WAVECAR
   LCHARG       =      F    write CHGCAR
   LVTOT        =      F    write LOCPOT, total local potential
   LVHAR        =      F    write LOCPOT, Hartree potential only
   LELF         =      F    write electronic localiz. function (ELF)
   LORBIT       =     11    0 simple, 1 ext, 2 COOP (PROOUT), +10 PAW based schemes


 Dipole corrections
   LMONO  =      F    monopole corrections only (constant potential shift)
   LDIPOL =      F    correct potential (dipole corrections)
   IDIPOL =      0    1-x, 2-y, 3-z, 4-all directions 
   EPSILON=  1.0000000 bulk dielectric constant

 LDA+U is selected, type is set to LDAUTYPE =  2
   angular momentum for each species LDAUL =    -1    2   -1
   U (eV)           for each species LDAUU =   0.0  5.1  0.0
   J (eV)           for each species LDAUJ =   0.0  0.0  0.0
 Exchange correlation treatment:
   GGA     =    --    GGA type
   LEXCH   =     8    internal setting for exchange type
   VOSKOWN=      0    Vosko Wilk Nusair interpolation
   LHFCALC =     F    Hartree Fock is set to
   LHFONE  =     F    Hartree Fock one center treatment
   AEXX    =    0.0000 exact exchange contribution

 Linear response parameters
   LEPSILON=     F    determine dielectric tensor
   LRPA    =     F    only Hartree local field effects (RPA)
   LNABLA  =     F    use nabla operator in PAW spheres
   LVEL    =     F    velocity operator in full k-point grid
   LINTERFAST=   F  fast interpolation
   KINTER  =     0    interpolate to denser k-point grid
   CSHIFT  =0.1000    complex shift for real part using Kramers Kronig
   OMEGAMAX=  -1.0    maximum frequency
   DEG_THRESHOLD= 0.2000000E-02 threshold for treating states as degnerate
   RTIME   =   -0.100 relaxation time in fs
  (WPLASMAI=    0.000 imaginary part of plasma frequency in eV, 0.658/RTIME)
   DFIELD  = 0.0000000 0.0000000 0.0000000 field for delta impulse in time
 
 Orbital magnetization related:
   ORBITALMAG=     F  switch on orbital magnetization
   LCHIMAG   =     F  perturbation theory with respect to B field
   DQ        =  0.001000  dq finite difference perturbation B field
   LLRAUG    =     F  two centre corrections for induced B field



--------------------------------------------------------------------------------------------------------


 Static calculation
 charge density and potential will be updated during run
 spin polarized calculation
 Conjugate gradient for all bands (Freysoldt, et al. PRB 79, 241103 (2009))
 preconditioned conjugated gradient                                        
 perform sub-space diagonalisation
    before iterative eigenvector-optimisation
 modified Broyden-mixing scheme, WC =      100.0
 initial mixing is a Kerker type mixing with AMIX =  0.4000 and BMIX =      1.0000
 Hartree-type preconditioning will be used
 using additional bands           31
 real space projection scheme for non local part
 use partial core corrections
 no Harris-corrections to forces 
 use gradient corrections 
 use of overlap-Matrix (Vanderbilt PP)
 Gauss-broadening in eV      SIGMA  =   0.05


--------------------------------------------------------------------------------------------------------


  energy-cutoff  :      600.00
  volume of cell :      409.29
      direct lattice vectors                 reciprocal lattice vectors
     5.602467060  0.000000000  0.000000000     0.178492794  0.103940705  0.000577718
    -2.822628498  4.847175598  0.000000000     0.000000000  0.206305709  0.000371083
    -0.032995667 -0.027109908 15.071895599     0.000000000  0.000000000  0.066348655

  length of vectors
     5.602467060  5.609130317 15.071956098     0.206551886  0.206306043  0.066348655


 
 k-points in units of 2pi/SCALE and weight: read from INCAR                         
   0.01487440  0.02585387  0.01666623       0.028
   0.04462320  0.04317732  0.01676252       0.028
   0.07437200  0.06050077  0.01685880       0.028
  -0.07437200 -0.02611648  0.01637737       0.028
  -0.04462320 -0.00879303  0.01647366       0.028
  -0.01487440  0.00853042  0.01656994       0.028
   0.01487440  0.06023815  0.01672808       0.028
   0.04462320  0.07756160  0.01682436       0.028
   0.07437200  0.09488505  0.01692065       0.028
  -0.07437200  0.00826780  0.01643922       0.028
  -0.04462320  0.02559125  0.01653550       0.028
  -0.01487440  0.04291470  0.01663179       0.028
   0.01487440  0.09462244  0.01678992       0.028
   0.04462320  0.11194589  0.01688621       0.028
   0.07437200  0.12926934  0.01698250       0.028
  -0.07437200  0.04265209  0.01650107       0.028
  -0.04462320  0.05997554  0.01659735       0.028
  -0.01487440  0.07729899  0.01669364       0.028
   0.01487440 -0.07729899  0.01648069       0.028
   0.04462320 -0.05997554  0.01657698       0.028
   0.07437200 -0.04265209  0.01667326       0.028
  -0.07437200 -0.12926934  0.01619183       0.028
  -0.04462320 -0.11194589  0.01628812       0.028
  -0.01487440 -0.09462244  0.01638440       0.028
   0.01487440 -0.04291470  0.01654254       0.028
   0.04462320 -0.02559125  0.01663882       0.028
   0.07437200 -0.00826780  0.01673511       0.028
  -0.07437200 -0.09488505  0.01625368       0.028
  -0.04462320 -0.07756160  0.01634996       0.028
  -0.01487440 -0.06023815  0.01644625       0.028
   0.01487440 -0.00853042  0.01660438       0.028
   0.04462320  0.00879303  0.01670067       0.028
   0.07437200  0.02611648  0.01679696       0.028
  -0.07437200 -0.06050077  0.01631552       0.028
  -0.04462320 -0.04317732  0.01641181       0.028
  -0.01487440 -0.02585387  0.01650810       0.028
 
 k-points in reciprocal lattice and weights: read from INCAR                         
   0.08333333  0.08333333  0.25000000       0.028
   0.25000000  0.08333333  0.25000000       0.028
   0.41666667  0.08333333  0.25000000       0.028
  -0.41666667  0.08333333  0.25000000       0.028
  -0.25000000  0.08333333  0.25000000       0.028
  -0.08333333  0.08333333  0.25000000       0.028
   0.08333333  0.25000000  0.25000000       0.028
   0.25000000  0.25000000  0.25000000       0.028
   0.41666667  0.25000000  0.25000000       0.028
  -0.41666667  0.25000000  0.25000000       0.028
  -0.25000000  0.25000000  0.25000000       0.028
  -0.08333333  0.25000000  0.25000000       0.028
   0.08333333  0.41666667  0.25000000       0.028
   0.25000000  0.41666667  0.25000000       0.028
   0.41666667  0.41666667  0.25000000       0.028
  -0.41666667  0.41666667  0.25000000       0.028
  -0.25000000  0.41666667  0.25000000       0.028
  -0.08333333  0.41666667  0.25000000       0.028
   0.08333333 -0.41666667  0.25000000       0.028
   0.25000000 -0.41666667  0.25000000       0.028
   0.41666667 -0.41666667  0.25000000       0.028
  -0.41666667 -0.41666667  0.25000000       0.028
  -0.25000000 -0.41666667  0.25000000       0.028
  -0.08333333 -0.41666667  0.25000000       0.028
   0.08333333 -0.25000000  0.25000000       0.028
   0.25000000 -0.25000000  0.25000000       0.028
   0.41666667 -0.25000000  0.25000000       0.028
  -0.41666667 -0.25000000  0.25000000       0.028
  -0.25000000 -0.25000000  0.25000000       0.028
  -0.08333333 -0.25000000  0.25000000       0.028
   0.08333333 -0.08333333  0.25000000       0.028
   0.25000000 -0.08333333  0.25000000       0.028
   0.41666667 -0.08333333  0.25000000       0.028
  -0.41666667 -0.08333333  0.25000000       0.028
  -0.25000000 -0.08333333  0.25000000       0.028
  -0.08333333 -0.08333333  0.25000000       0.028
 
 position of ions in fractional coordinates (direct lattice) 
   0.45738448  0.96586689  0.00024483
   0.82968404  0.67687376  0.32593311
   0.16196441  0.34773544  0.68258301
   0.19398593  0.83724738  0.65861526
   0.66196755  0.31095620  0.66910297
   0.70327992  0.83069174  0.66428274
   0.15164232  0.33276653  0.16259070
   0.14873451  0.82764988  0.15250636
   0.65570745  0.32041873  0.14960692
   0.66950520  0.82356447  0.14317907
   0.00329994  0.99317527  0.51106379
   0.00512447  0.50333230  0.51641812
   0.51067279  0.00410759  0.50683272
   0.50971181  0.50359297  0.51212137
   0.33244429  0.16636303  0.83699428
   0.33865469  0.67360992  0.83347777
   0.83705763  0.17821584  0.82860781
   0.83713696  0.66914260  0.83923681
   0.98204091  0.98596166  0.22240534
   0.99029855  0.51416591  0.22141409
   0.49063422  0.99885357  0.21425573
   0.51320650  0.49233890  0.21738075
   0.32168202  0.15048599  0.09597996
   0.31814560  0.64198824  0.09110068
   0.82272447  0.16344273  0.08209651
   0.83501151  0.64402648  0.08113247
   0.34783726  0.16298947  0.58607957
   0.34043598  0.69203483  0.59293004
   0.82593800  0.16908646  0.59136025
   0.83410174  0.67612717  0.58861076
   0.16521833  0.32386270  0.45479216
   0.17350203  0.82915901  0.44889442
   0.69412245  0.34126479  0.44412994
   0.66841789  0.83046166  0.44867881
   0.17553562  0.33763514  0.89660187
   0.18641123  0.84864483  0.89932219
   0.66457460  0.32815921  0.89544077
   0.67089786  0.86478323  0.89288636
   0.99896112  0.02845419  0.76770637
   0.99574139  0.51603632  0.76129706
   0.47280676  0.01015271  0.76879445
   0.51189737  0.50609979  0.76999541
 
 position of ions in cartesian coordinates  (Angst):
  -0.16381000  4.68171978  0.00369000
   2.72695994  3.27208996  4.91242981
  -0.09665000  1.66702998 10.28781986
  -1.29816997  4.04043007  9.92658043
   2.80886006  1.48912001 10.08465004
   1.57344997  4.00850010 10.01200008
  -0.09507000  1.60856998  2.45055008
  -1.50790000  4.00762987  2.29855990
   2.76422000  1.54907000  2.25485992
   1.42154002  3.98808002  2.15797997
  -2.80173993  4.80024004  7.70270014
  -1.40904999  2.42574000  7.78340006
   2.83271003  0.00617000  7.63892984
   1.41728997  2.42711997  7.71863985
   1.36530995  0.78369999 12.61509037
  -0.03155000  3.24251008 12.56208992
   4.15921021  0.84138000 12.48869038
   2.77360010  3.22070003 12.64888954
   2.71150994  4.77309990  3.35207009
   4.08950996  2.48624992  3.33713007
  -0.07770000  4.83581018  3.22923994
   1.47836006  2.38055992  3.27634001
   1.37427998  0.72683001  1.44659996
  -0.03270000  3.10935998  1.37305999
   4.14523983  0.79000998  1.23734999
   2.85759997  3.11950994  1.22282004
   1.46934998  0.77415001  8.83333015
  -0.06564000  3.33834004  8.93657970
   4.13050985  0.80356002  8.91292000
   2.74515009  3.26134992  8.87147999
  -0.00352000  1.55748999  6.85457993
  -1.38318002  4.00690985  6.76568985
   2.91088009  1.64213002  6.69388008
   1.38590002  4.01322985  6.76244020
   0.00083000  1.61227000 13.51348972
  -1.38072002  4.08914995 13.55449009
   2.76744008  1.56637001 13.49598980
   1.28825998  4.16755009 13.45748997
   5.49100018  0.11711000 11.57079029
   4.09691000  2.48067999 11.47418976
   2.59486008  0.02837000 11.58718967
   1.41394997  2.43228006 11.60529041
 


--------------------------------------------------------------------------------------------------------


 k-point  1 :   0.0833 0.0833 0.2500  plane waves:   13638
 k-point  2 :   0.2500 0.0833 0.2500  plane waves:   13651
 k-point  3 :   0.4167 0.0833 0.2500  plane waves:   13675
 k-point  4 :  -0.4167 0.0833 0.2500  plane waves:   13666
 k-point  5 :  -0.2500 0.0833 0.2500  plane waves:   13636
 k-point  6 :  -0.0833 0.0833 0.2500  plane waves:   13659
 k-point  7 :   0.0833 0.2500 0.2500  plane waves:   13652
 k-point  8 :   0.2500 0.2500 0.2500  plane waves:   13673
 k-point  9 :   0.4167 0.2500 0.2500  plane waves:   13672
 k-point 10 :  -0.4167 0.2500 0.2500  plane waves:   13652
 k-point 11 :  -0.2500 0.2500 0.2500  plane waves:   13638
 k-point 12 :  -0.0833 0.2500 0.2500  plane waves:   13635
 k-point 13 :   0.0833 0.4167 0.2500  plane waves:   13677
 k-point 14 :   0.2500 0.4167 0.2500  plane waves:   13677
 k-point 15 :   0.4167 0.4167 0.2500  plane waves:   13667
 k-point 16 :  -0.4167 0.4167 0.2500  plane waves:   13667
 k-point 17 :  -0.2500 0.4167 0.2500  plane waves:   13662
 k-point 18 :  -0.0833 0.4167 0.2500  plane waves:   13667
 k-point 19 :   0.0833-0.4167 0.2500  plane waves:   13665
 k-point 20 :   0.2500-0.4167 0.2500  plane waves:   13656
 k-point 21 :   0.4167-0.4167 0.2500  plane waves:   13667
 k-point 22 :  -0.4167-0.4167 0.2500  plane waves:   13681
 k-point 23 :  -0.2500-0.4167 0.2500  plane waves:   13675
 k-point 24 :  -0.0833-0.4167 0.2500  plane waves:   13670
 k-point 25 :   0.0833-0.2500 0.2500  plane waves:   13626
 k-point 26 :   0.2500-0.2500 0.2500  plane waves:   13644
 k-point 27 :   0.4167-0.2500 0.2500  plane waves:   13660
 k-point 28 :  -0.4167-0.2500 0.2500  plane waves:   13674
 k-point 29 :  -0.2500-0.2500 0.2500  plane waves:   13672
 k-point 30 :  -0.0833-0.2500 0.2500  plane waves:   13662
 k-point 31 :   0.0833-0.0833 0.2500  plane waves:   13663
 k-point 32 :   0.2500-0.0833 0.2500  plane waves:   13641
 k-point 33 :   0.4167-0.0833 0.2500  plane waves:   13670
 k-point 34 :  -0.4167-0.0833 0.2500  plane waves:   13678
 k-point 35 :  -0.2500-0.0833 0.2500  plane waves:   13657
 k-point 36 :  -0.0833-0.0833 0.2500  plane waves:   13647

 maximum and minimum number of plane-waves per node :      3447     3386

 maximum number of plane-waves:     13681
 maximum index in each direction: 
   IXMAX=   11   IYMAX=   11   IZMAX=   29
   IXMIN=  -11   IYMIN=  -11   IZMIN=  -30


 real space projection operators:
  total allocation   :       7237.84 KBytes
  max/ min on nodes  :       1812.93       1805.85


 parallel 3D FFT for wavefunctions:
    minimum data exchange during FFTs selected (reduces bandwidth)
 parallel 3D FFT for charge:
    minimum data exchange during FFTs selected (reduces bandwidth)


 total amount of memory used by VASP MPI-rank0   164122. kBytes
=======================================================================

   base      :      30000. kBytes
   nonlr-proj:       4135. kBytes
   fftplans  :       1692. kBytes
   grid      :       4644. kBytes
   one-center:        342. kBytes
   wavefun   :     123309. kBytes
 
     INWAV:  cpu time    0.0000: real time    0.0002
 Broyden mixing: mesh for mixing (old mesh)
   NGX = 23   NGY = 23   NGZ = 61
  (NGX  = 72   NGY  = 72   NGZ  =180)
  gives a total of  32269 points

 initial charge density was supplied:
 charge density of overlapping atoms calculated
 number of electron     258.0000000 magnetization       6.0000000
 keeping initial charge density in first step


--------------------------------------------------------------------------------------------------------


 Maximum index for non-local projection operator          665
 Maximum index for augmentation-charges          908 (set IRDMAX)


--------------------------------------------------------------------------------------------------------


 First call to EWALD:  gamma=   0.239
 Maximum number of real-space cells 4x 4x 2
 Maximum number of reciprocal cells 2x 2x 5

    FEWALD:  cpu time    0.0055: real time    0.0055


--------------------------------------- Iteration      1(   1)  ---------------------------------------


    POTLOK:  cpu time    0.0723: real time    0.0870
    SETDIJ:  cpu time    0.0180: real time    0.0195
    TRIAL :  cpu time   21.2959: real time   21.3679
    CORREC:  cpu time    0.0038: real time    0.0038
    --------------------------------------------
      LOOP:  cpu time   21.5917: real time   21.6811

 eigenvalue-minimisations  : 23040
 total energy-change (2. order) : 0.3483676E+04  (-0.1392436E+05)
 number of electron     258.0000000 magnetization       6.0000000
 augmentation part      258.0000000 magnetization       6.0000000

 Free energy of the ion-electron system (eV)
  ---------------------------------------------------
  alpha Z        PSCENC =       716.27330530
  Ewald energy   TEWEN  =    -12437.02554409
  -Hartree energ DENC   =     -8426.42106281
  -exchange      EXHF   =         0.00000000
  -V(xc)+E(xc)   XCENC  =       842.35199053
  PAW double counting   =     17015.18481625   -17491.61297812
  entropy T*S    EENTRO =        -0.00677275
  eigenvalues    EBANDS =      3096.06121430
  atomic energy  EATOM  =     20168.87094289
  ---------------------------------------------------
  free energy    TOTEN  =      3483.67591150 eV

  energy without entropy =     3483.68268425  energy(sigma->0) =     3483.67929787


--------------------------------------------------------------------------------------------------------




--------------------------------------- Iteration      1(   2)  ---------------------------------------


    TRIAL :  cpu time   22.5694: real time   22.7177
    CORREC:  cpu time    0.0044: real time    0.0044
    --------------------------------------------
      LOOP:  cpu time   22.5742: real time   22.7225

 eigenvalue-minimisations  : 24960
 total energy-change (2. order) :-0.3069148E+04  (-0.2828464E+04)
 number of electron     258.0000000 magnetization       6.0000000
 augmentation part      258.0000000 magnetization       6.0000000

 Free energy of the ion-electron system (eV)
  ---------------------------------------------------
  alpha Z        PSCENC =       716.27330530
  Ewald energy   TEWEN  =    -12437.02554409
  -Hartree energ DENC   =     -8426.42106281
  -exchange      EXHF   =         0.00000000
  -V(xc)+E(xc)   XCENC  =       842.35199053
  PAW double counting   =     17015.18481625   -17491.61297812
  entropy T*S    EENTRO =        -0.02116350
  eigenvalues    EBANDS =        26.92763456
  atomic energy  EATOM  =     20168.87094289
  ---------------------------------------------------
  free energy    TOTEN  =       414.52794100 eV

  energy without entropy =      414.54910450  energy(sigma->0) =      414.53852275


--------------------------------------------------------------------------------------------------------




--------------------------------------- Iteration      1(   3)  ---------------------------------------


    TRIAL :  cpu time   27.7467: real time   28.0080
    CORREC:  cpu time    0.0042: real time    0.0043
    --------------------------------------------
      LOOP:  cpu time   27.7512: real time   28.0125

 eigenvalue-minimisations  : 26400
 total energy-change (2. order) :-0.6339475E+03  (-0.5823374E+03)
 number of electron     258.0000000 magnetization       6.0000000
 augmentation part      258.0000000 magnetization       6.0000000

 Free energy of the ion-electron system (eV)
  ---------------------------------------------------
  alpha Z        PSCENC =       716.27330530
  Ewald energy   TEWEN  =    -12437.02554409
  -Hartree energ DENC   =     -8426.42106281
  -exchange      EXHF   =         0.00000000
  -V(xc)+E(xc)   XCENC  =       842.35199053
  PAW double counting   =     17015.18481625   -17491.61297812
  entropy T*S    EENTRO =        -0.02289524
  eigenvalues    EBANDS =      -607.01816406
  atomic energy  EATOM  =     20168.87094289
  ---------------------------------------------------
  free energy    TOTEN  =      -219.41958935 eV

  energy without entropy =     -219.39669412  energy(sigma->0) =     -219.40814173


--------------------------------------------------------------------------------------------------------




--------------------------------------- Iteration      1(   4)  ---------------------------------------


    TRIAL :  cpu time   22.2210: real time   22.3824
    CORREC:  cpu time    0.0040: real time    0.0040
    --------------------------------------------
      LOOP:  cpu time   22.2253: real time   22.3867

 eigenvalue-minimisations  : 25248
 total energy-change (2. order) :-0.5125225E+02  (-0.5009121E+02)
 number of electron     258.0000000 magnetization       6.0000000
 augmentation part      258.0000000 magnetization       6.0000000

 Free energy of the ion-electron system (eV)
  ---------------------------------------------------
  alpha Z        PSCENC =       716.27330530
  Ewald energy   TEWEN  =    -12437.02554409
  -Hartree energ DENC   =     -8426.42106281
  -exchange      EXHF   =         0.00000000
  -V(xc)+E(xc)   XCENC  =       842.35199053
  PAW double counting   =     17015.18481625   -17491.61297812
  entropy T*S    EENTRO =        -0.02401072
  eigenvalues    EBANDS =      -658.26929585
  atomic energy  EATOM  =     20168.87094289
  ---------------------------------------------------
  free energy    TOTEN  =      -270.67183663 eV

  energy without entropy =     -270.64782591  energy(sigma->0) =     -270.65983127


--------------------------------------------------------------------------------------------------------




--------------------------------------- Iteration      1(   5)  ---------------------------------------


    TRIAL :  cpu time   25.3332: real time   25.3736
    CORREC:  cpu time    0.0042: real time    0.0042
    CHARGE:  cpu time    0.4561: real time    0.4576
    --------------------------------------------
      LOOP:  cpu time   25.7940: real time   25.8359

 eigenvalue-minimisations  : 29152
 total energy-change (2. order) :-0.1833835E+01  (-0.1830567E+01)
 number of electron     258.0000018 magnetization       6.0000000
 augmentation part       68.0982249 magnetization       4.2995877

 Free energy of the ion-electron system (eV)
  ---------------------------------------------------
  alpha Z        PSCENC =       716.27330530
  Ewald energy   TEWEN  =    -12437.02554409
  -Hartree energ DENC   =     -8426.42106281
  -exchange      EXHF   =         0.00000000
  -V(xc)+E(xc)   XCENC  =       842.35199053
  PAW double counting   =     17015.18481625   -17491.61297812
  entropy T*S    EENTRO =        -0.02406841
  eigenvalues    EBANDS =      -660.10307310
  atomic energy  EATOM  =     20168.87094289
  ---------------------------------------------------
  free energy    TOTEN  =      -272.50567156 eV

  energy without entropy =     -272.48160315  energy(sigma->0) =     -272.49363736


--------------------------------------------------------------------------------------------------------




--------------------------------------- Iteration      1(   6)  ---------------------------------------


    POTLOK:  cpu time    0.0464: real time    0.0467
    SETDIJ:  cpu time    0.0124: real time    0.0124
    TRIAL :  cpu time   14.4516: real time   14.5344
    CORREC:  cpu time    7.1064: real time    7.1811
    CHARGE:  cpu time    0.4590: real time    0.4592
    --------------------------------------------
      LOOP:  cpu time   22.0764: real time   22.2343

 eigenvalue-minimisations  :     0
 total energy-change (2. order) : 0.4244167E+03  (-0.5258034E+03)
 number of electron     258.0000016 magnetization       6.0000001
 augmentation part       71.0635239 magnetization       4.4365521

 Free energy of the ion-electron system (eV)
  ---------------------------------------------------
  alpha Z        PSCENC =       716.27330530
  Ewald energy   TEWEN  =    -12437.02554409
  -Hartree energ DENC   =     -8327.24287943
  -exchange      EXHF   =         0.00000000
  -V(xc)+E(xc)   XCENC  =       877.89422579
  PAW double counting   =     23728.80041109   -23940.24250180
  entropy T*S    EENTRO =        -0.08626675
  eigenvalues    EBANDS =      -635.39288142
  atomic energy  EATOM  =     20168.87094289
  ---------------------------------------------------
  free energy    TOTEN  =       151.91100991 eV

  energy without entropy =      151.99727666  energy(sigma->0) =      151.95414328


--------------------------------------------------------------------------------------------------------




--------------------------------------- Iteration      1(   7)  ---------------------------------------


    POTLOK:  cpu time    0.0467: real time    0.0467
    SETDIJ:  cpu time    0.0124: real time    0.0124
    TRIAL :  cpu time   11.7214: real time   11.9142
    CORREC:  cpu time    4.4417: real time    4.5201
    CHARGE:  cpu time    0.4489: real time    0.4490
    --------------------------------------------
      LOOP:  cpu time   16.6717: real time   16.9430

 eigenvalue-minimisations  :     0
 total energy-change (2. order) : 0.6449055E+03  (-0.8153689E+04)
 number of electron     258.0000015 magnetization       6.0000002
 augmentation part       75.7744726 magnetization       3.3140111

 Free energy of the ion-electron system (eV)
  ---------------------------------------------------
  alpha Z        PSCENC =       716.27330530
  Ewald energy   TEWEN  =    -12437.02554409
  -Hartree energ DENC   =     -8249.85761690
  -exchange      EXHF   =         0.00000000
  -V(xc)+E(xc)   XCENC  =       873.22786731
  PAW double counting   =     24440.49010635   -24826.02580383
  entropy T*S    EENTRO =        -0.03728508
  eigenvalues    EBANDS =       110.94948863
  atomic energy  EATOM  =     20168.87094289
  ---------------------------------------------------
  free energy    TOTEN  =       796.81647890 eV

  energy without entropy =      796.85376398  energy(sigma->0) =      796.83512144


--------------------------------------------------------------------------------------------------------




--------------------------------------- Iteration      1(   8)  ---------------------------------------


    POTLOK:  cpu time    0.0462: real time    0.0462
    SETDIJ:  cpu time    0.0124: real time    0.0124
    TRIAL :  cpu time   12.1083: real time   12.1191
    CORREC:  cpu time    4.3149: real time    4.3199
    CHARGE:  cpu time    0.4417: real time    0.4419
    --------------------------------------------
      LOOP:  cpu time   16.9241: real time   16.9400

 eigenvalue-minimisations  :     0
 total energy-change (2. order) : 0.4546971E+04  (-0.2184082E+05)
 number of electron     258.0000016 magnetization       6.0000002
 augmentation part       73.5190532 magnetization       3.4184464

 Free energy of the ion-electron system (eV)
  ---------------------------------------------------
  alpha Z        PSCENC =       716.27330530
  Ewald energy   TEWEN  =    -12437.02554409
  -Hartree energ DENC   =    -15249.06877150
  -exchange      EXHF   =         0.00000000
  -V(xc)+E(xc)   XCENC  =       908.74466029
  PAW double counting   =     29725.74860249   -30509.28010413
  entropy T*S    EENTRO =        -0.02507234
  eigenvalues    EBANDS =     12019.56173877
  atomic energy  EATOM  =     20168.87094289
  ---------------------------------------------------
  free energy    TOTEN  =      5343.78754492 eV

  energy without entropy =     5343.81261726  energy(sigma->0) =     5343.80008109


--------------------------------------------------------------------------------------------------------




--------------------------------------- Iteration      1(   9)  ---------------------------------------


    POTLOK:  cpu time    0.0461: real time    0.0461
    SETDIJ:  cpu time    0.0123: real time    0.0123
    TRIAL :  cpu time   12.4612: real time   12.4782
    CORREC:  cpu time    4.2951: real time    4.3006
    CHARGE:  cpu time    0.4301: real time    0.4303
    --------------------------------------------
      LOOP:  cpu time   17.2453: real time   17.2680

 eigenvalue-minimisations  :     0
 total energy-change (2. order) : 0.4374239E+03  (-0.5897541E+04)
 number of electron     258.0000027 magnetization       6.0000003
 augmentation part       82.4072077 magnetization       1.5457483

 Free energy of the ion-electron system (eV)
  ---------------------------------------------------
  alpha Z        PSCENC =       716.27330530
  Ewald energy   TEWEN  =    -12437.02554409
  -Hartree energ DENC   =    -11444.33033302
  -exchange      EXHF   =         0.00000000
  -V(xc)+E(xc)   XCENC  =       908.91644379
  PAW double counting   =     33139.70771118   -33939.12016169
  entropy T*S    EENTRO =        -0.01626282
  eigenvalues    EBANDS =      8667.94412894
  atomic energy  EATOM  =     20168.87094289
  ---------------------------------------------------
  free energy    TOTEN  =      5781.21142095 eV

  energy without entropy =     5781.22768377  energy(sigma->0) =     5781.21955236


--------------------------------------------------------------------------------------------------------




--------------------------------------- Iteration      1(  10)  ---------------------------------------


    POTLOK:  cpu time    0.0461: real time    0.0461
    SETDIJ:  cpu time    0.0124: real time    0.0124
    TRIAL :  cpu time   14.3371: real time   14.4912
    CORREC:  cpu time    6.0543: real time    6.0591
    CHARGE:  cpu time    0.4403: real time    0.4404
    --------------------------------------------
      LOOP:  cpu time   20.8906: real time   21.0497

 eigenvalue-minimisations  :     0
 total energy-change (2. order) : 0.5143806E+04  (-0.4518305E+04)
 number of electron     258.0000017 magnetization       6.0000000
 augmentation part       80.5846625 magnetization       1.3231985

 Free energy of the ion-electron system (eV)
  ---------------------------------------------------
  alpha Z        PSCENC =       716.27330530
  Ewald energy   TEWEN  =    -12437.02554409
  -Hartree energ DENC   =    -20486.72272599
  -exchange      EXHF   =         0.00000000
  -V(xc)+E(xc)   XCENC  =       929.16927922
  PAW double counting   =     39186.54166214   -40371.74498203
  entropy T*S    EENTRO =        -0.01393209
  eigenvalues    EBANDS =     23219.67132738
  atomic energy  EATOM  =     20168.87094289
  ---------------------------------------------------
  free energy    TOTEN  =     10925.01700199 eV

  energy without entropy =    10925.03093408  energy(sigma->0) =    10925.02396804


--------------------------------------------------------------------------------------------------------




--------------------------------------- Iteration      1(  11)  ---------------------------------------


    POTLOK:  cpu time    0.0462: real time    0.0462
    SETDIJ:  cpu time    0.0124: real time    0.0124
    TRIAL :  cpu time   12.2026: real time   12.2142
    CORREC:  cpu time    4.3991: real time    4.4036
    CHARGE:  cpu time    0.4260: real time    0.4260
    --------------------------------------------
      LOOP:  cpu time   17.0868: real time   17.1029

 eigenvalue-minimisations  :     0
 total energy-change (2. order) : 0.1327876E+04  (-0.9862029E+04)
 number of electron     258.0000020 magnetization       6.0000000
 augmentation part       73.1174148 magnetization       1.6114203

 Free energy of the ion-electron system (eV)
  ---------------------------------------------------
  alpha Z        PSCENC =       716.27330530
  Ewald energy   TEWEN  =    -12437.02554409
  -Hartree energ DENC   =    -20778.12451938
  -exchange      EXHF   =         0.00000000
  -V(xc)+E(xc)   XCENC  =       908.42801927
  PAW double counting   =     41941.94677698   -43147.12250724
  entropy T*S    EENTRO =        -0.00968695
  eigenvalues    EBANDS =     24879.66084525
  atomic energy  EATOM  =     20168.87094289
  ---------------------------------------------------
  free energy    TOTEN  =     12252.89338688 eV

  energy without entropy =    12252.90307383  energy(sigma->0) =    12252.89823035


--------------------------------------------------------------------------------------------------------




--------------------------------------- Iteration      1(  12)  ---------------------------------------


    POTLOK:  cpu time    0.0457: real time    0.0457
    SETDIJ:  cpu time    0.0324: real time    0.0324
    TRIAL :  cpu time   12.1043: real time   12.1154
    CORREC:  cpu time    4.4301: real time    4.4343
    CHARGE:  cpu time    0.4486: real time    0.4487
    --------------------------------------------
      LOOP:  cpu time   17.0615: real time   17.0769

 eigenvalue-minimisations  :     0
 total energy-change (2. order) :-0.3763658E+04  (-0.1923377E+05)
 number of electron     258.0000021 magnetization       6.0000000
 augmentation part       60.8315357 magnetization       1.6814572

 Free energy of the ion-electron system (eV)
  ---------------------------------------------------
  alpha Z        PSCENC =       716.27330530
  Ewald energy   TEWEN  =    -12437.02554409
  -Hartree energ DENC   =    -12742.26360545
  -exchange      EXHF   =         0.00000000
  -V(xc)+E(xc)   XCENC  =       823.35792117
  PAW double counting   =     59818.80143510   -60862.25972638
  entropy T*S    EENTRO =        -0.00566868
  eigenvalues    EBANDS =     13003.49028130
  atomic energy  EATOM  =     20168.87094289
  ---------------------------------------------------
  free energy    TOTEN  =      8489.23532287 eV

  energy without entropy =     8489.24099155  energy(sigma->0) =     8489.23815721


--------------------------------------------------------------------------------------------------------




--------------------------------------- Iteration      1(  13)  ---------------------------------------


    POTLOK:  cpu time    0.0453: real time    0.0453
    SETDIJ:  cpu time    0.0124: real time    0.0124
    TRIAL :  cpu time   11.9565: real time   11.9686
    CORREC:  cpu time    4.2853: real time    4.2902
    CHARGE:  cpu time    0.4237: real time    0.4240
    --------------------------------------------
      LOOP:  cpu time   16.7240: real time   16.7413

 eigenvalue-minimisations  :     0
 total energy-change (2. order) :-0.7087739E+03  (-0.1376616E+05)
 number of electron     258.0000023 magnetization       6.0000000
 augmentation part       62.2422771 magnetization       1.8315664

 Free energy of the ion-electron system (eV)
  ---------------------------------------------------
  alpha Z        PSCENC =       716.27330530
  Ewald energy   TEWEN  =    -12437.02554409
  -Hartree energ DENC   =     -6230.23817790
  -exchange      EXHF   =         0.00000000
  -V(xc)+E(xc)   XCENC  =       710.28758568
  PAW double counting   =     65234.79866939   -65835.36531860
  entropy T*S    EENTRO =        -0.00309832
  eigenvalues    EBANDS =      5452.86561829
  atomic energy  EATOM  =     20168.87094289
  ---------------------------------------------------
  free energy    TOTEN  =      7780.46141228 eV

  energy without entropy =     7780.46451060  energy(sigma->0) =     7780.46296144


--------------------------------------------------------------------------------------------------------




--------------------------------------- Iteration      1(  14)  ---------------------------------------


    POTLOK:  cpu time    0.0455: real time    0.0455
    SETDIJ:  cpu time    0.0125: real time    0.0125
    TRIAL :  cpu time   15.7930: real time   15.8157
    CORREC:  cpu time    4.8511: real time    4.8592
    CHARGE:  cpu time    0.4215: real time    0.4217
    --------------------------------------------
      LOOP:  cpu time   21.1242: real time   21.1552

 eigenvalue-minimisations  :     0
 total energy-change (2. order) : 0.1146500E+04  (-0.2270368E+05)
 number of electron     258.0000022 magnetization       6.0000000
 augmentation part       63.7383208 magnetization       1.6177148

 Free energy of the ion-electron system (eV)
  ---------------------------------------------------
  alpha Z        PSCENC =       716.27330530
  Ewald energy   TEWEN  =    -12437.02554409
  -Hartree energ DENC   =     -6554.69667139
  -exchange      EXHF   =         0.00000000
  -V(xc)+E(xc)   XCENC  =       694.71740608
  PAW double counting   =     79506.75268416   -80188.76537991
  entropy T*S    EENTRO =        -0.00207543
  eigenvalues    EBANDS =      7020.83739626
  atomic energy  EATOM  =     20168.87094289
  ---------------------------------------------------
  free energy    TOTEN  =      8926.96104097 eV

  energy without entropy =     8926.96311640  energy(sigma->0) =     8926.96207868


--------------------------------------------------------------------------------------------------------




--------------------------------------- Iteration      1(  15)  ---------------------------------------


    POTLOK:  cpu time    0.1552: real time    0.1553
    SETDIJ:  cpu time    0.0134: real time    0.0134
    TRIAL :  cpu time   12.1129: real time   12.1403
    CORREC:  cpu time    4.4994: real time    4.5074
    CHARGE:  cpu time    0.4682: real time    0.4690
    --------------------------------------------
      LOOP:  cpu time   17.2498: real time   17.2865

 eigenvalue-minimisations  :     0
 total energy-change (2. order) : 0.4970683E+03  (-0.1785838E+05)
 number of electron     258.0000018 magnetization       6.0000000
 augmentation part       62.0222412 magnetization       1.5644295

 Free energy of the ion-electron system (eV)
  ---------------------------------------------------
  alpha Z        PSCENC =       716.27330530
  Ewald energy   TEWEN  =    -12437.02554409
  -Hartree energ DENC   =     -6178.01915487
  -exchange      EXHF   =         0.00000000
  -V(xc)+E(xc)   XCENC  =       666.66596345
  PAW double counting   =     96299.33466032   -97077.26245494
  entropy T*S    EENTRO =        -0.00156009
  eigenvalues    EBANDS =      7265.19366393
  atomic energy  EATOM  =     20168.87094289
  ---------------------------------------------------
  free energy    TOTEN  =      9424.02930655 eV

  energy without entropy =     9424.03086663  energy(sigma->0) =     9424.03008659


--------------------------------------------------------------------------------------------------------




--------------------------------------- Iteration      1(  16)  ---------------------------------------


    POTLOK:  cpu time    0.0454: real time    0.0463
    SETDIJ:  cpu time    0.0123: real time    0.0123
    TRIAL :  cpu time   12.1116: real time   12.2065
    CORREC:  cpu time    4.3814: real time    4.3914
    CHARGE:  cpu time    0.4201: real time    0.4212
    --------------------------------------------
      LOOP:  cpu time   16.9713: real time   17.0782

 eigenvalue-minimisations  :     0
 total energy-change (2. order) : 0.2871334E+04  (-0.2488704E+05)
 number of electron     258.0000011 magnetization       6.0000000
 augmentation part       60.4323598 magnetization       1.4972662

 Free energy of the ion-electron system (eV)
  ---------------------------------------------------
  alpha Z        PSCENC =       716.27330530
  Ewald energy   TEWEN  =    -12437.02554409
  -Hartree energ DENC   =     -7717.26183902
  -exchange      EXHF   =         0.00000000
  -V(xc)+E(xc)   XCENC  =       658.37606071
  PAW double counting   =    109255.64591584  -110067.58547548
  entropy T*S    EENTRO =        -0.00133684
  eigenvalues    EBANDS =     11718.07151353
  atomic energy  EATOM  =     20168.87094289
  ---------------------------------------------------
  free energy    TOTEN  =     12295.36331959 eV

  energy without entropy =    12295.36465642  energy(sigma->0) =    12295.36398800


--------------------------------------------------------------------------------------------------------




--------------------------------------- Iteration      1(  17)  ---------------------------------------


    POTLOK:  cpu time    0.0456: real time    0.0456
    SETDIJ:  cpu time    0.0124: real time    0.0124
    TRIAL :  cpu time   12.1376: real time   12.1634
    CORREC:  cpu time    4.3790: real time    4.3841
    CHARGE:  cpu time    0.4238: real time    0.4259
    --------------------------------------------
      LOOP:  cpu time   16.9989: real time   17.0319

 eigenvalue-minimisations  :     0
 total energy-change (2. order) : 0.3927518E+04  (-0.2391163E+05)
 number of electron     258.0000005 magnetization       6.0000000
 augmentation part       58.0764167 magnetization       1.5165110

 Free energy of the ion-electron system (eV)
  ---------------------------------------------------
  alpha Z        PSCENC =       716.27330530
  Ewald energy   TEWEN  =    -12437.02554409
  -Hartree energ DENC   =    -10005.14569912
  -exchange      EXHF   =         0.00000000
  -V(xc)+E(xc)   XCENC  =       649.94438688
  PAW double counting   =    129602.45271025  -130461.45427153
  entropy T*S    EENTRO =        -0.00068866
  eigenvalues    EBANDS =     17988.96661022
  atomic energy  EATOM  =     20168.87094289
  ---------------------------------------------------
  free energy    TOTEN  =     16222.88110394 eV

  energy without entropy =    16222.88179260  energy(sigma->0) =    16222.88144827


--------------------------------------------------------------------------------------------------------




--------------------------------------- Iteration      1(  18)  ---------------------------------------


    POTLOK:  cpu time    0.0455: real time    0.0455
    SETDIJ:  cpu time    0.0124: real time    0.0124
    TRIAL :  cpu time   16.9286: real time   16.9569
    CORREC:  cpu time    4.3807: real time    4.3854
    CHARGE:  cpu time    0.4240: real time    0.4241
    --------------------------------------------
      LOOP:  cpu time   21.7917: real time   21.8249

 eigenvalue-minimisations  :     0
 total energy-change (2. order) : 0.6217535E+04  (-0.2585453E+05)
 number of electron     258.0000003 magnetization       6.0000000
 augmentation part       57.4824540 magnetization       1.6150123

 Free energy of the ion-electron system (eV)
  ---------------------------------------------------
  alpha Z        PSCENC =       716.27330530
  Ewald energy   TEWEN  =    -12437.02554409
  -Hartree energ DENC   =    -14409.96068221
  -exchange      EXHF   =         0.00000000
  -V(xc)+E(xc)   XCENC  =       654.24979890
  PAW double counting   =    154084.94035655  -155011.01135896
  entropy T*S    EENTRO =        -0.00117461
  eigenvalues    EBANDS =     28674.07973110
  atomic energy  EATOM  =     20168.87094289
  ---------------------------------------------------
  free energy    TOTEN  =     22440.41586080 eV

  energy without entropy =    22440.41703542  energy(sigma->0) =    22440.41644811


--------------------------------------------------------------------------------------------------------




--------------------------------------- Iteration      1(  19)  ---------------------------------------


    POTLOK:  cpu time    0.0525: real time    0.0529
    SETDIJ:  cpu time    0.0124: real time    0.0124
    TRIAL :  cpu time   12.1325: real time   12.2269
    CORREC:  cpu time    4.0796: real time    4.1111
    CHARGE:  cpu time    0.4065: real time    0.4096
    --------------------------------------------
      LOOP:  cpu time   16.6840: real time   16.8134

 eigenvalue-minimisations  :     0
 total energy-change (2. order) : 0.1067203E+05  (-0.2603828E+05)
 number of electron     258.0000002 magnetization       6.0000000
 augmentation part       59.3641224 magnetization       1.8162691

 Free energy of the ion-electron system (eV)
  ---------------------------------------------------
  alpha Z        PSCENC =       716.27330530
  Ewald energy   TEWEN  =    -12437.02554409
  -Hartree energ DENC   =    -23623.17837178
  -exchange      EXHF   =         0.00000000
  -V(xc)+E(xc)   XCENC  =       688.97811896
  PAW double counting   =    180734.98898867  -181824.20994436
  entropy T*S    EENTRO =        -0.00121283
  eigenvalues    EBANDS =     48687.75255850
  atomic energy  EATOM  =     20168.87094289
  ---------------------------------------------------
  free energy    TOTEN  =     33112.44887947 eV

  energy without entropy =    33112.45009230  energy(sigma->0) =    33112.44948589


--------------------------------------------------------------------------------------------------------




--------------------------------------- Iteration      1(  20)  ---------------------------------------


    POTLOK:  cpu time    0.0455: real time    0.0457
    SETDIJ:  cpu time    0.0123: real time    0.0124
    TRIAL :  cpu time   11.4094: real time   11.5243
    CORREC:  cpu time    3.9986: real time    4.0287
    CHARGE:  cpu time    0.4043: real time    0.4071
    --------------------------------------------
      LOOP:  cpu time   15.8706: real time   16.0187

 eigenvalue-minimisations  :     0
 total energy-change (2. order) : 0.9425370E+04  (-0.2089970E+05)
 number of electron     258.0000002 magnetization       6.0000000
 augmentation part       61.2499907 magnetization       1.9082108

 Free energy of the ion-electron system (eV)
  ---------------------------------------------------
  alpha Z        PSCENC =       716.27330530
  Ewald energy   TEWEN  =    -12437.02554409
  -Hartree energ DENC   =    -32484.24354549
  -exchange      EXHF   =         0.00000000
  -V(xc)+E(xc)   XCENC  =       725.60526735
  PAW double counting   =    204648.98274314  -205912.98286364
  entropy T*S    EENTRO =        -0.00291085
  eigenvalues    EBANDS =     67112.33960277
  atomic energy  EATOM  =     20168.87094289
  ---------------------------------------------------
  free energy    TOTEN  =     42537.81869538 eV

  energy without entropy =    42537.82160624  energy(sigma->0) =    42537.82015081


--------------------------------------------------------------------------------------------------------




--------------------------------------- Iteration      1(  21)  ---------------------------------------


    POTLOK:  cpu time    0.0446: real time    0.0448
    SETDIJ:  cpu time    0.0124: real time    0.0124
    TRIAL :  cpu time   11.3270: real time   11.4368
    CORREC:  cpu time    4.0244: real time    4.0550
    CHARGE:  cpu time    0.4178: real time    0.4210
    --------------------------------------------
      LOOP:  cpu time   15.8268: real time   15.9707

 eigenvalue-minimisations  :     0
 total energy-change (2. order) : 0.6590193E+04  (-0.1987464E+05)
 number of electron     258.0000002 magnetization       6.0000000
 augmentation part       62.9021444 magnetization       1.8263717

 Free energy of the ion-electron system (eV)
  ---------------------------------------------------
  alpha Z        PSCENC =       716.27330530
  Ewald energy   TEWEN  =    -12437.02554409
  -Hartree energ DENC   =    -38868.42408740
  -exchange      EXHF   =         0.00000000
  -V(xc)+E(xc)   XCENC  =       750.91308783
  PAW double counting   =    224111.51530615  -225502.14621842
  entropy T*S    EENTRO =        -0.00056376
  eigenvalues    EBANDS =     80188.03830516
  atomic energy  EATOM  =     20168.87094289
  ---------------------------------------------------
  free energy    TOTEN  =     49128.01218656 eV

  energy without entropy =    49128.01275032  energy(sigma->0) =    49128.01246844


--------------------------------------------------------------------------------------------------------




--------------------------------------- Iteration      1(  22)  ---------------------------------------


    POTLOK:  cpu time    0.0463: real time    0.0466
    SETDIJ:  cpu time    0.0124: real time    0.0124
    TRIAL :  cpu time   14.6271: real time   14.7623
    CORREC:  cpu time    4.9314: real time    4.9679
    CHARGE:  cpu time    0.4600: real time    0.4629
    --------------------------------------------
      LOOP:  cpu time   20.0776: real time   20.2526

 eigenvalue-minimisations  :     0
 total energy-change (2. order) : 0.3962772E+04  (-0.2162878E+05)
 number of electron     258.0000002 magnetization       6.0000000
 augmentation part       64.6012259 magnetization       1.6455074

 Free energy of the ion-electron system (eV)
  ---------------------------------------------------
  alpha Z        PSCENC =       716.27330530
  Ewald energy   TEWEN  =    -12437.02554409
  -Hartree energ DENC   =    -42805.17580549
  -exchange      EXHF   =         0.00000000
  -V(xc)+E(xc)   XCENC  =       766.53738661
  PAW double counting   =    239883.78025687  -241369.90236567
  entropy T*S    EENTRO =        -0.00241250
  eigenvalues    EBANDS =     88167.42637304
  atomic energy  EATOM  =     20168.87094289
  ---------------------------------------------------
  free energy    TOTEN  =     53090.78398570 eV

  energy without entropy =    53090.78639820  energy(sigma->0) =    53090.78519195


--------------------------------------------------------------------------------------------------------




--------------------------------------- Iteration      1(  23)  ---------------------------------------


    POTLOK:  cpu time    0.0462: real time    0.0465
    SETDIJ:  cpu time    0.0125: real time    0.0125
    TRIAL :  cpu time   12.4195: real time   12.4309
    CORREC:  cpu time    4.4429: real time    4.4472
    CHARGE:  cpu time    0.4391: real time    0.4397
    --------------------------------------------
      LOOP:  cpu time   17.3607: real time   17.3773

 eigenvalue-minimisations  :     0
 total energy-change (2. order) : 0.4067389E+04  (-0.1791434E+05)
 number of electron     258.0000002 magnetization       6.0000000
 augmentation part       65.8196676 magnetization       1.3417979

 Free energy of the ion-electron system (eV)
  ---------------------------------------------------
  alpha Z        PSCENC =       716.27330530
  Ewald energy   TEWEN  =    -12437.02554409
  -Hartree energ DENC   =    -46818.30321993
  -exchange      EXHF   =         0.00000000
  -V(xc)+E(xc)   XCENC  =       784.30311743
  PAW double counting   =    258352.85114477  -259952.35613454
  entropy T*S    EENTRO =        -0.00129371
  eigenvalues    EBANDS =     96343.56225912
  atomic energy  EATOM  =     20168.87094289
  ---------------------------------------------------
  free energy    TOTEN  =     57158.17345844 eV

  energy without entropy =    57158.17475215  energy(sigma->0) =    57158.17410529


--------------------------------------------------------------------------------------------------------




--------------------------------------- Iteration      1(  24)  ---------------------------------------


    POTLOK:  cpu time    0.0465: real time    0.0465
    SETDIJ:  cpu time    0.0125: real time    0.0125
    TRIAL :  cpu time   12.0449: real time   12.1191
    CORREC:  cpu time    4.2308: real time    4.2642
    CHARGE:  cpu time    0.4306: real time    0.4345
    --------------------------------------------
      LOOP:  cpu time   16.7659: real time   16.8773

 eigenvalue-minimisations  :     0
 total energy-change (2. order) : 0.3221489E+04  (-0.1834387E+05)
 number of electron     258.0000002 magnetization       6.0000000
 augmentation part       64.5596364 magnetization       1.0994953

 Free energy of the ion-electron system (eV)
  ---------------------------------------------------
  alpha Z        PSCENC =       716.27330530
  Ewald energy   TEWEN  =    -12437.02554409
  -Hartree energ DENC   =    -49944.52481927
  -exchange      EXHF   =         0.00000000
  -V(xc)+E(xc)   XCENC  =       798.46293443
  PAW double counting   =    273458.05824586  -275148.60832503
  entropy T*S    EENTRO =        -0.00120279
  eigenvalues    EBANDS =    102768.15708081
  atomic energy  EATOM  =     20168.87094289
  ---------------------------------------------------
  free energy    TOTEN  =     60379.66252717 eV

  energy without entropy =    60379.66372996  energy(sigma->0) =    60379.66312857


--------------------------------------------------------------------------------------------------------




--------------------------------------- Iteration      1(  25)  ---------------------------------------


    POTLOK:  cpu time    0.0464: real time    0.0466
    SETDIJ:  cpu time    0.0123: real time    0.0124
    TRIAL :  cpu time   12.2598: real time   12.3834
    CORREC:  cpu time    4.3858: real time    4.4195
    CHARGE:  cpu time    0.4479: real time    0.4514
    --------------------------------------------
      LOOP:  cpu time   17.1526: real time   17.3137

 eigenvalue-minimisations  :     0
 total energy-change (2. order) :-0.6971420E+04  (-0.4439335E+05)
[...]
   20        1.575   3.395   0.000   4.970
   21        1.589   3.325   0.000   4.914
   22        1.576   3.377   0.000   4.953
   23        1.574   3.438   0.000   5.011
   24        1.574   3.399   0.000   4.973
   25        1.577   3.375   0.000   4.952
   26        1.584   3.356   0.000   4.940
   27        1.556   3.454   0.000   5.010
   28        1.553   3.469   0.000   5.023
   29        1.554   3.457   0.000   5.010
   30        1.554   3.492   0.000   5.046
   31        1.576   3.385   0.000   4.961
   32        1.573   3.390   0.000   4.963
   33        1.569   3.384   0.000   4.952
   34        1.571   3.411   0.000   4.982
   35        1.583   3.357   0.000   4.941
   36        1.569   3.437   0.000   5.007
   37        1.577   3.407   0.000   4.984
   38        1.572   3.421   0.000   4.993
   39        1.564   3.468   0.000   5.032
   40        1.560   3.455   0.000   5.014
   41        1.567   3.466   0.000   5.033
   42        1.561   3.455   0.000   5.016
--------------------------------------------------
tot         43.591  91.524  87.549 222.664
 


 magnetization (x)
 
# of ion       s       p       d       tot
------------------------------------------
    1        0.001   0.000   0.000   0.001
    2        0.001   0.000   0.000   0.001
    3        0.000  -0.000   0.000   0.000
    4        0.001  -0.000   0.000   0.000
    5        0.000  -0.002   0.000  -0.002
    6        0.000  -0.001   0.000  -0.000
    7        0.004   0.005  -0.003   0.007
    8        0.012   0.017   1.275   1.304
    9        0.012   0.018   1.230   1.260
   10        0.015   0.020   1.519   1.554
   11        0.013   0.005   1.492   1.509
   12        0.002   0.002  -0.023  -0.019
   13        0.001   0.002  -0.046  -0.043
   14        0.002   0.002  -0.019  -0.015
   15        0.009   0.011   1.171   1.191
   16        0.004   0.006  -0.002   0.008
   17        0.011   0.012   1.299   1.323
   18        0.004   0.004   0.003   0.011
   19        0.000  -0.118   0.000  -0.118
   20        0.001  -0.077   0.000  -0.076
   21        0.001  -0.222   0.000  -0.221
   22        0.000  -0.113   0.000  -0.113
   23        0.001  -0.070   0.000  -0.069
   24        0.001  -0.124   0.000  -0.124
   25        0.000  -0.107   0.000  -0.107
   26        0.001  -0.125   0.000  -0.123
   27        0.001  -0.040   0.000  -0.040
   28       -0.000  -0.010   0.000  -0.010
   29        0.001  -0.034   0.000  -0.034
   30        0.001  -0.015   0.000  -0.014
   31        0.001  -0.080   0.000  -0.080
   32       -0.000  -0.135   0.000  -0.135
   33       -0.000  -0.004   0.000  -0.005
   34       -0.000  -0.104   0.000  -0.104
   35        0.001  -0.132   0.000  -0.131
   36        0.000  -0.039   0.000  -0.039
   37        0.000  -0.091   0.000  -0.090
   38        0.000  -0.050   0.000  -0.049
   39        0.001  -0.045   0.000  -0.044
   40        0.000  -0.025   0.000  -0.024
   41        0.001  -0.049   0.000  -0.048
   42        0.000  -0.030   0.000  -0.030
--------------------------------------------------
tot          0.104  -1.737   7.897   6.264
 
    FORLOC:  cpu time    0.0050: real time    0.0050
    FORNL :  cpu time    3.8535: real time    3.8666
    STRESS:  cpu time   11.6048: real time   11.6253
    FORCOR:  cpu time    0.0480: real time    0.0480
    OFIELD:  cpu time    0.0003: real time    0.0003

  DFT-D2 method for vdW energy calculation
  -------------------------------------------------------------------

  Parameters of vdW forcefield:
         C6(Jnm^6/mol)     R0(A)
   -----------------------------
   Li       1.610          0.825
   Co      10.800          1.562
   O        0.700          1.342

  IVDW =   1
  VDW_RADIUS =    50.000 A
  VDW_S6 =     0.750
  VDW_SR =     1.000
  VDW_D =    20.000
  LVDW_EWALD = F

  Number of pair interactions contributing to vdW energy: 1155803
  Edisp (eV):   -9.21770
    FORVDW:  cpu time    0.1714: real time    0.1720

  FORCE on cell =-STRESS in cart. coord.  units (eV):
  Direction    XX          YY          ZZ          XY          YZ          ZX
  --------------------------------------------------------------------------------------
  Alpha Z   716.27331   716.27331   716.27331
  Ewald    -229.77238   -59.24839-12148.07700     7.32329   -61.94548    -7.15722
  Hartree  5901.06341  5972.37609 -3485.06411     8.48126   -25.69738     0.62490
  E(xc)   -1284.98466 -1284.59901 -1285.88085    -0.04954    -0.10199     0.00289
  Local  -10600.95490-10825.43583 10673.39892   -21.88241    83.62617     1.74786
  n-local  -596.07303  -590.26486  -599.38710    -1.27436    -2.18160    -0.67281
  augment  2026.80899  2016.74908  2000.34976     3.95525     2.20710     2.34165
  Kinetic  4077.15799  4064.14638  4127.18114     3.07194     1.65899     1.83638
  Fock        0.00000     0.00000     0.00000     0.00000     0.00000     0.00000
  vdW        -6.38116    -6.17173   -12.46277     0.34932    -0.14208     0.59035
  -------------------------------------------------------------------------------------
  Total       3.13755     3.82502   -13.66871    -0.02525    -2.57628    -0.68600
  in kB      12.28189    14.97298   -53.50598    -0.09886   -10.08480    -2.68533
  external pressure =       -8.75 kB  Pullay stress =        0.00 kB


 VOLUME and BASIS-vectors are now :
 -----------------------------------------------------------------------------
  energy-cutoff  :      600.00
  volume of cell :      409.29
      direct lattice vectors                 reciprocal lattice vectors
     5.602467060  0.000000000  0.000000000     0.178492794  0.103940705  0.000577718
    -2.822628498  4.847175598  0.000000000     0.000000000  0.206305709  0.000371083
    -0.032995667 -0.027109908 15.071895599     0.000000000  0.000000000  0.066348655

  length of vectors
     5.602467060  5.609130317 15.071956098     0.206551886  0.206306043  0.066348655


 FORCES acting on ions:
    Electron-Ion                     Ewald-Force                    Non-Local-Force
 -----------------------------------------------------------------------------------------------
   -.131E+01 -.137E+00 -.116E+02   0.114E+01 -.604E-02 0.114E+02   0.323E+00 0.261E+00 -.114E+00
   0.148E+01 -.171E+00 -.105E+02   -.147E+01 0.549E-01 0.104E+02   -.487E-02 -.441E-01 0.520E+00
   -.526E+01 -.272E-01 0.244E+02   0.509E+01 0.141E+00 -.249E+02   0.505E+00 0.715E-01 -.459E+00
   0.724E+01 -.227E+01 -.567E+01   -.647E+01 0.207E+01 0.443E+01   -.165E+01 0.470E+00 0.217E+01
   0.323E+01 -.338E+01 0.686E+01   -.309E+01 0.318E+01 -.777E+01   -.421E+00 0.672E+00 0.969E+00
   0.356E+01 0.140E+00 -.121E+01   -.337E+01 -.336E+00 -.979E-01   -.998E+00 0.280E+00 0.171E+01
   -.915E+00 0.155E+02 -.305E+03   0.188E+01 -.155E+02 0.305E+03   0.257E+00 -.892E+00 -.143E+01
   -.189E+02 0.317E+01 -.218E+03   0.199E+02 -.401E+01 0.219E+03   0.400E+00 -.291E+00 -.379E+00
   -.238E+02 -.136E+01 -.204E+03   0.244E+02 0.209E+01 0.205E+03   0.448E+00 0.266E+00 -.599E-01
   0.177E+02 -.743E+01 -.162E+03   -.183E+02 0.712E+01 0.163E+03   -.158E+00 0.202E-01 0.462E+00
   0.374E+01 -.246E+02 0.284E+03   -.354E+01 0.257E+02 -.284E+03   -.370E+00 -.197E+00 0.154E+01
   -.258E+02 0.739E+01 0.251E+03   0.266E+02 -.836E+01 -.252E+03   -.201E+00 0.674E+00 0.214E+01
   0.108E+01 -.821E+01 0.342E+03   -.132E+01 0.881E+01 -.342E+03   0.516E-02 -.241E+00 0.259E+01
   0.248E+02 0.228E+02 0.286E+03   -.250E+02 -.242E+02 -.287E+03   -.112E+00 0.400E+00 0.235E+01
   0.451E+02 -.224E+02 -.920E+02   -.461E+02 0.238E+02 0.929E+02   -.129E+00 0.318E+00 -.900E+00
   0.272E+00 0.394E+02 -.527E+02   -.196E+00 -.397E+02 0.538E+02   -.655E+00 0.174E+00 -.157E+01
   -.143E+01 -.289E+02 -.254E+02   0.100E+01 0.296E+02 0.278E+02   -.804E+00 0.357E+00 -.875E+00
   -.116E+00 -.342E+02 -.131E+03   -.430E+00 0.344E+02 0.132E+03   0.557E-01 0.133E+01 -.170E+01
   0.203E+02 -.124E+02 -.507E+03   -.218E+02 0.138E+02 0.528E+03   0.125E+01 -.157E+01 -.227E+02
   -.113E+02 0.176E+02 -.513E+03   0.106E+02 -.193E+02 0.536E+03   0.603E+00 0.858E+00 -.228E+02
   -.325E+02 0.285E+02 -.507E+03   0.356E+02 -.315E+02 0.532E+03   -.253E+01 0.230E+01 -.251E+02
   0.286E+02 -.178E+02 -.503E+03   -.304E+02 0.192E+02 0.525E+03   0.995E+00 -.749E+00 -.217E+02
   0.418E+02 -.243E+02 0.206E+03   -.497E+02 0.296E+02 -.228E+03   0.710E+01 -.465E+01 0.201E+02
   -.185E+01 0.726E+01 0.196E+03   -.308E+00 -.124E+02 -.217E+03   0.184E+01 0.646E+01 0.204E+02
   -.333E+02 -.439E+01 0.205E+03   0.397E+02 0.927E+01 -.227E+03   -.629E+01 -.525E+01 0.231E+02
   0.982E+01 -.437E+01 0.231E+03   -.872E+01 0.306E+01 -.257E+03   -.201E+01 0.199E+01 0.262E+02
   0.215E+02 -.171E+02 -.143E+03   -.216E+02 0.179E+02 0.155E+03   -.641E+00 -.256E+00 -.122E+02
   -.231E+02 0.227E+02 -.140E+03   0.258E+02 -.226E+02 0.150E+03   -.136E+01 -.154E+01 -.109E+02
   -.229E+02 0.449E+01 -.143E+03   0.231E+02 -.565E+01 0.153E+03   0.749E+00 0.115E+01 -.110E+02
   0.527E+01 0.344E+01 -.158E+03   -.467E+01 -.575E+01 0.171E+03   0.225E+00 0.195E+01 -.135E+02
   -.452E+01 -.149E+02 0.520E+03   0.318E+01 0.173E+02 -.545E+03   0.147E+01 -.194E+01 0.248E+02
   -.320E+01 0.715E+00 0.539E+03   0.460E+01 -.204E+01 -.563E+03   -.212E+01 0.127E+01 0.229E+02
   0.171E+02 0.117E+00 0.536E+03   -.170E+02 -.540E+00 -.559E+03   -.124E+01 0.787E+00 0.230E+02
   0.221E+01 0.532E+01 0.539E+03   -.371E+01 -.512E+01 -.563E+03   0.237E+01 -.280E+00 0.227E+02
   0.168E+02 -.106E+02 -.419E+03   -.195E+02 0.110E+02 0.445E+03   0.200E+01 -.223E+00 -.262E+02
   0.215E+02 0.308E+02 -.419E+03   -.235E+02 -.348E+02 0.441E+03   0.132E+01 0.337E+01 -.212E+02
   -.112E+02 -.232E+02 -.418E+03   0.132E+02 0.241E+02 0.443E+03   -.176E+01 -.849E+00 -.240E+02
   -.262E+02 0.205E+02 -.406E+03   0.288E+02 -.220E+02 0.429E+03   -.203E+01 0.541E+00 -.221E+02
   -.191E+02 0.338E+02 0.328E+03   0.237E+02 -.393E+02 -.344E+03   -.333E+01 0.401E+01 0.153E+02
   -.349E+01 -.136E+02 0.319E+03   0.228E+01 0.175E+02 -.334E+03   0.177E+01 -.441E+01 0.160E+02
   -.225E+02 0.140E+02 0.342E+03   0.245E+02 -.168E+02 -.360E+03   -.780E-01 0.246E+01 0.161E+02
   0.622E+01 -.994E+01 0.324E+03   -.499E+01 0.101E+02 -.340E+03   -.165E+01 -.360E+00 0.154E+02
 -----------------------------------------------------------------------------------------------
   0.691E+01 -.869E+01 -.197E+02   -.622E-14 0.195E-13 0.114E-12   -.686E+01 0.871E+01 0.196E+02
 
 
 POSITION                                       TOTAL-FORCE (eV/Angst)
 -----------------------------------------------------------------------------------
     -0.16381      4.68172      0.00369         0.150474      0.149766     -0.367596
      2.72696      3.27209      4.91243         0.014427     -0.186739      0.484700
     -0.09665      1.66703     10.28782         0.294539      0.163255     -0.913593
     -1.29817      4.04043      9.92658        -0.650702      0.210848      0.538382
      2.80886      1.48912     10.08465        -0.214920      0.351355     -0.115186
      1.57345      4.00850     10.01200        -0.662883      0.019398      0.152355
     -0.09507      1.60857      2.45055         1.145924     -0.734448     -0.992391
     -1.50790      4.00763      2.29856         1.296231     -1.010963      1.066590
      2.76422      1.54907      2.25486         0.825482      0.811158      0.888390
      1.42154      3.98808      2.15798        -0.780843     -0.295588      1.687196
     -2.80174      4.80024      7.70270        -0.127091      0.818701      1.201519
     -1.40905      2.42574      7.78340         0.482889     -0.279303      0.819178
      2.83271      0.00617      7.63893        -0.239073      0.292840      2.268514
      1.41729      2.42712      7.71864        -0.206466     -0.795786      1.267382
      1.36531      0.78370     12.61509        -0.943532      1.547664     -0.150950
     -0.03155      3.24251     12.56209        -0.485024      0.042162     -0.570750
      4.15921      0.84138     12.48869        -1.081650      0.787330      1.257582
      2.77360      3.22070     12.64889        -0.496830      1.212067     -1.031123
      2.71151      4.77310      3.35207        -0.206808     -0.123654     -0.831807
      4.08951      2.48625      3.33713        -0.071682     -0.841760     -0.307267
     -0.07770      4.83581      3.22924         0.608153     -0.649080     -0.216931
      1.47836      2.38056      3.27634        -0.767232      0.635179     -0.064667
      1.37428      0.72683      1.44660        -0.901430      0.673592     -1.579151
     -0.03270      3.10936      1.37306        -0.290715      1.230804     -0.330759
      4.14524      0.79001      1.23735         0.098228     -0.355003      0.875539
      2.85760      3.11951      1.22282        -0.925505      0.698072      0.406602
      1.46935      0.77415      8.83333        -0.872395      0.595788     -0.943750
     -0.06564      3.33834      8.93658         1.279823     -1.440538     -1.538406
      4.13051      0.80356      8.91292         0.934122      0.024927     -1.118247
      2.74515      3.26135      8.87148         0.758907     -0.361105     -0.971121
     -0.00352      1.55749      6.85458         0.145033      0.433869     -0.252186
     -1.38318      4.00691      6.76569        -0.756190     -0.059128     -0.529371
      2.91088      1.64213      6.69388        -1.210722      0.395967      0.364705
      1.38590      4.01323      6.76244         0.900878     -0.102068     -0.744463
      0.00083      1.61227     13.51349        -0.696288      0.154978     -0.138618
     -1.38072      4.08915     13.55449        -0.770974     -0.693241      0.442820
      2.76744      1.56637     13.49599         0.283844      0.043317      0.831616
      1.28826      4.16755     13.45749         0.615471     -0.907850      1.114734
      5.49100      0.11711     11.57079         1.326380     -1.485474     -0.797743
      4.09691      2.48068     11.47419         0.537994     -0.466073      0.792510
      2.59486      0.02837     11.58719         2.044080     -0.377544     -1.430242
      1.41395      2.43228     11.60529        -0.383925     -0.127692     -0.523996
 -----------------------------------------------------------------------------------
    total drift:                                0.052391      0.018125     -0.052878


--------------------------------------------------------------------------------------------------------



  FREE ENERGIE OF THE ION-ELECTRON SYSTEM (eV)
  ---------------------------------------------------
  free  energy   TOTEN  =      -233.17770096 eV

  energy  without entropy=     -233.17484280  energy(sigma->0) =     -233.17627188
 


--------------------------------------------------------------------------------------------------------


    POTLOK:  cpu time    0.0640: real time    0.0640


--------------------------------------------------------------------------------------------------------


     LOOP+:  cpu time 3102.1063: real time 3113.2247
    4ORBIT:  cpu time    0.0000: real time    0.0000
 


 total charge     
 
# of ion       s       p       d       tot
------------------------------------------
    1        0.075   0.151   0.000   0.226
    2        0.047   0.085   0.000   0.132
    3        0.089   0.185   0.000   0.274
    4        0.124   0.275   0.000   0.399
    5        0.102   0.214   0.000   0.316
    6        0.108   0.231   0.000   0.339
    7        0.415   0.632   7.309   8.356
    8        0.482   0.795   7.263   8.540
    9        0.487   0.805   7.267   8.559
   10        0.438   0.668   7.179   8.285
   11        0.444   0.667   7.208   8.319
   12        0.421   0.644   7.351   8.416
   13        0.428   0.663   7.347   8.439
   14        0.408   0.604   7.316   8.329
   15        0.503   0.841   7.309   8.653
   16        0.441   0.691   7.399   8.531
   17        0.481   0.783   7.271   8.535
   18        0.417   0.636   7.329   8.383
   19        1.575   3.378   0.000   4.953
   20        1.575   3.395   0.000   4.970
   21        1.589   3.325   0.000   4.914
   22        1.576   3.377   0.000   4.953
   23        1.574   3.438   0.000   5.011
   24        1.574   3.399   0.000   4.973
   25        1.577   3.375   0.000   4.952
   26        1.584   3.356   0.000   4.940
   27        1.556   3.454   0.000   5.010
   28        1.553   3.469   0.000   5.023
   29        1.554   3.457   0.000   5.010
   30        1.554   3.492   0.000   5.046
   31        1.576   3.385   0.000   4.961
   32        1.573   3.390   0.000   4.963
   33        1.569   3.384   0.000   4.952
   34        1.571   3.411   0.000   4.982
   35        1.583   3.357   0.000   4.941
   36        1.569   3.437   0.000   5.007
   37        1.577   3.407   0.000   4.984
   38        1.572   3.421   0.000   4.993
   39        1.564   3.468   0.000   5.032
   40        1.560   3.455   0.000   5.014
   41        1.567   3.466   0.000   5.033
   42        1.561   3.455   0.000   5.016
--------------------------------------------------
tot         43.591  91.524  87.549 222.664
 


 magnetization (x)
 
# of ion       s       p       d       tot
------------------------------------------
    1        0.001   0.000   0.000   0.001
    2        0.001   0.000   0.000   0.001
    3        0.000  -0.000   0.000   0.000
    4        0.001  -0.000   0.000   0.000
    5        0.000  -0.002   0.000  -0.002
    6        0.000  -0.001   0.000  -0.000
    7        0.004   0.005  -0.003   0.007
    8        0.012   0.017   1.275   1.304
    9        0.012   0.018   1.230   1.260
   10        0.015   0.020   1.519   1.554
   11        0.013   0.005   1.492   1.509
   12        0.002   0.002  -0.023  -0.019
   13        0.001   0.002  -0.046  -0.043
   14        0.002   0.002  -0.019  -0.015
   15        0.009   0.011   1.171   1.191
   16        0.004   0.006  -0.002   0.008
   17        0.011   0.012   1.299   1.323
   18        0.004   0.004   0.003   0.011
   19        0.000  -0.118   0.000  -0.118
   20        0.001  -0.077   0.000  -0.076
   21        0.001  -0.222   0.000  -0.221
   22        0.000  -0.113   0.000  -0.113
   23        0.001  -0.070   0.000  -0.069
   24        0.001  -0.124   0.000  -0.124
   25        0.000  -0.107   0.000  -0.107
   26        0.001  -0.125   0.000  -0.123
   27        0.001  -0.040   0.000  -0.040
   28       -0.000  -0.010   0.000  -0.010
   29        0.001  -0.034   0.000  -0.034
   30        0.001  -0.015   0.000  -0.014
   31        0.001  -0.080   0.000  -0.080
   32       -0.000  -0.135   0.000  -0.135
   33       -0.000  -0.004   0.000  -0.005
   34       -0.000  -0.104   0.000  -0.104
   35        0.001  -0.132   0.000  -0.131
   36        0.000  -0.039   0.000  -0.039
   37        0.000  -0.091   0.000  -0.090
   38        0.000  -0.050   0.000  -0.049
   39        0.001  -0.045   0.000  -0.044
   40        0.000  -0.025   0.000  -0.024
   41        0.001  -0.049   0.000  -0.048
   42        0.000  -0.030   0.000  -0.030
--------------------------------------------------
tot          0.104  -1.737   7.897   6.264
 

 total amount of memory used by VASP MPI-rank0   164122. kBytes
=======================================================================

   base      :      30000. kBytes
   nonlr-proj:       4135. kBytes
   fftplans  :       1692. kBytes
   grid      :       4644. kBytes
   one-center:        342. kBytes
   wavefun   :     123309. kBytes
 
  
  
 General timing and accounting informations for this job:
 ========================================================
  
                  Total CPU time used (sec):     3131.957
                            User time (sec):     2883.712
                          System time (sec):      248.246
                         Elapsed time (sec):     3143.629
  
                   Maximum memory used (kb):      841832.
                   Average memory used (kb):           0.
  
                          Minor page faults:        72238
                          Major page faults:           70
                 Voluntary context switches:          567
