       N       E                     dE             d eps       ncg     rms          ort
DAV:   1     0.350528958537E+04    0.35053E+04   -0.13988E+05  5760   0.220E+03
DAV:   2     0.406882807534E+03   -0.30984E+04   -0.28527E+04  5760   0.537E+02
DAV:   3    -0.221062010735E+03   -0.62794E+03   -0.57225E+03  5760   0.255E+02
DAV:   4    -0.271127504046E+03   -0.50065E+02   -0.49116E+02  5760   0.743E+01
DAV:   5    -0.272809231758E+03   -0.16817E+01   -0.16789E+01  5760   0.136E+01
SDA:   6     0.963183042789E+02    0.36913E+03   -0.16789E+01  5760   0.322E+04 0.000E+00
CGA:   7     0.215593689698E+02   -0.74759E+02   -0.99999E+02  5760   0.852E+04-0.186E+04
CGA:   8     0.221359567232E+03    0.19980E+03   -0.37734E+03  5760   0.486E+05-0.149E+05
CGA:   9     0.317006136179E+04    0.29487E+04   -0.35581E+04  5760   0.320E+05-0.101E+05
CGA:  10     0.317971098534E+04    0.96496E+01   -0.10495E+04  5760   0.706E+05-0.533E+05
CGA:  11     0.520192513608E+04    0.20222E+04   -0.41683E+04  5760   0.856E+05-0.391E+05
CGA:  12     0.320833299808E+04   -0.19936E+04   -0.55903E+04  5760   0.824E+05-0.102E+06
CGA:  13     0.317143415213E+04   -0.36899E+02   -0.47463E+04  5760   0.483E+05 0.511E+05
CGA:  14     0.493482434484E+04    0.17634E+04   -0.22851E+04  5760   0.102E+06-0.788E+05
CGA:  15     0.541275566224E+04    0.47793E+03   -0.59631E+04  5760   0.877E+05-0.498E+05
CGA:  16     0.559716564461E+04    0.18441E+03   -0.26669E+04  5760   0.976E+05-0.211E+05
CGA:  17     0.249051228430E+04   -0.31067E+04   -0.34785E+04  5760   0.163E+06-0.215E+06
CGA:  18     0.419873862208E+04    0.17082E+04   -0.93086E+04  5760   0.835E+05-0.489E+05
CGA:  19     0.438618217264E+04    0.18744E+03   -0.37575E+04  5760   0.759E+05-0.570E+04
CGA:  20     0.598922201562E+04    0.16030E+04   -0.34061E+04  5760   0.156E+06-0.420E+05
CGA:  21     0.346439185593E+04   -0.25248E+04   -0.92338E+04  5760   0.468E+05-0.525E+05
CGA:  22     0.148192985829E+04   -0.19825E+04   -0.14677E+04  5760   0.446E+05 0.181E+05
CGA:  23     0.439978036773E+04    0.29179E+04   -0.19648E+04  5760   0.112E+06-0.112E+06
CGA:  24     0.285278031763E+04   -0.15470E+04   -0.59717E+04  5760   0.450E+05-0.412E+05
CGA:  25     0.169696200751E+04   -0.11558E+04   -0.19591E+04  5760   0.121E+06-0.235E+04
CGA:  26     0.788828131074E+04    0.61913E+04   -0.42823E+04  5760   0.761E+05-0.692E+05
CGA:  27     0.273343442455E+04   -0.51548E+04   -0.49572E+04  5760   0.332E+05-0.406E+05
CGA:  28     0.993018831589E+03   -0.17404E+04   -0.10956E+04  5760   0.196E+05 0.222E+05
CGA:  29     0.541383749287E+02   -0.93888E+03   -0.44170E+03  5760   0.541E+04 0.155E+05
CGA:  30    -0.459316916203E+02   -0.10007E+03   -0.74809E+02  5760   0.619E+03 0.165E+04
CGA:  31    -0.614984268117E+02   -0.15567E+02   -0.14963E+02  5760   0.261E+03 0.499E+02
CGA:  32    -0.848522043200E+02   -0.23354E+02   -0.23281E+02  5760   0.733E+03-0.475E+01
CGA:  33    -0.109117576629E+03   -0.24265E+02   -0.25905E+02  5760   0.551E+03-0.273E+02
CGA:  34    -0.124849979312E+03   -0.15732E+02   -0.16049E+02  5760   0.295E+03 0.126E+02
CGA:  35    -0.134465280631E+03   -0.96153E+01   -0.11654E+02  5760   0.267E+03-0.256E+02
CGA:  36    -0.150068431085E+03   -0.15603E+02   -0.16344E+02  5760   0.334E+03 0.145E+02
CGA:  37    -0.172594522742E+03   -0.22526E+02   -0.22376E+02  5760   0.186E+03 0.169E+02
CGA:  38    -0.189014394750E+03   -0.16420E+02   -0.16288E+02  5760   0.455E+02 0.126E+02
CGA:  39    -0.193006735047E+03   -0.39923E+01   -0.39741E+01  5760   0.348E+02 0.131E+01
CGA:  40    -0.197828534022E+03   -0.48218E+01   -0.50901E+01  5760   0.442E+02-0.513E+01
CGA:  41    -0.202615152354E+03   -0.47866E+01   -0.53658E+01  5760   0.599E+02-0.888E+01
CGA:  42    -0.205708889966E+03   -0.30937E+01   -0.29584E+01  5760   0.278E+02-0.252E+01
CGA:  43    -0.207866373795E+03   -0.21575E+01   -0.21508E+01  5760   0.221E+02-0.148E+01
CGA:  44    -0.209288510388E+03   -0.14221E+01   -0.13466E+01  5760   0.258E+02-0.107E+01
CGA:  45    -0.211064002299E+03   -0.17755E+01   -0.17707E+01  5760   0.359E+02 0.430E+00
CGA:  46    -0.212424427972E+03   -0.13604E+01   -0.14237E+01  5760   0.309E+02-0.307E+01
CGA:  47    -0.213759549714E+03   -0.13351E+01   -0.12642E+01  5760   0.275E+02 0.118E+01
CGA:  48    -0.214622291248E+03   -0.86274E+00   -0.10397E+01  5760   0.165E+02-0.163E+01
CGA:  49    -0.215342643672E+03   -0.72035E+00   -0.75564E+00  5760   0.155E+02 0.729E+00
CGA:  50    -0.216039940936E+03   -0.69730E+00   -0.73278E+00  5760   0.133E+02 0.345E+00
CGA:  51    -0.216847261442E+03   -0.80732E+00   -0.78048E+00  5760   0.156E+02 0.551E+00
CGA:  52    -0.217366925272E+03   -0.51966E+00   -0.57277E+00  5760   0.110E+02 0.944E+00
CGA:  53    -0.217779221109E+03   -0.41230E+00   -0.44714E+00  5760   0.117E+02 0.713E+00
CGA:  54    -0.218314099493E+03   -0.53488E+00   -0.55206E+00  5760   0.957E+01 0.414E+00
CGA:  55    -0.218710833141E+03   -0.39673E+00   -0.43228E+00  5760   0.856E+01-0.735E-01
CGA:  56    -0.219119206592E+03   -0.40837E+00   -0.41949E+00  5760   0.589E+01 0.417E+00
CGA:  57    -0.219452156512E+03   -0.33295E+00   -0.33400E+00  5760   0.511E+01 0.363E+00
CGA:  58    -0.219874216162E+03   -0.42206E+00   -0.41777E+00  5760   0.800E+01-0.427E+00
CGA:  59    -0.220182600640E+03   -0.30838E+00   -0.30226E+00  5760   0.428E+01-0.741E+00
SDA:  60    -0.220383841243E+03   -0.20124E+00   -0.20477E+00  5760   0.335E+01 0.155E+00
CGA:  61    -0.220835782020E+03   -0.45194E+00   -0.42537E+00  5760   0.315E+01 0.456E+00
CGA:  62    -0.221262162619E+03   -0.42638E+00   -0.39530E+00  5760   0.167E+01 0.429E+00
CGA:  63    -0.221630230042E+03   -0.36807E+00   -0.36624E+00  5760   0.318E+01-0.532E-01
CGA:  64    -0.221874932507E+03   -0.24470E+00   -0.24553E+00  5760   0.143E+01-0.117E+00
CGA:  65    -0.222105015662E+03   -0.23008E+00   -0.22826E+00  5760   0.961E+00 0.313E-02
CGA:  66    -0.222173909394E+03   -0.68894E-01   -0.68993E-01  5760   0.950E+00-0.581E-02
CGA:  67    -0.222318200719E+03   -0.14429E+00   -0.14401E+00  5760   0.512E+00-0.987E-02
CGA:  68    -0.222393451271E+03   -0.75251E-01   -0.77189E-01  5760   0.101E+01-0.330E-01
CGA:  69    -0.222442650849E+03   -0.49200E-01   -0.50843E-01  5760   0.306E+00 0.586E-02
CGA:  70    -0.222490718259E+03   -0.48067E-01   -0.46908E-01  5760   0.777E+00 0.150E-01
CGA:  71    -0.222542303384E+03   -0.51585E-01   -0.51831E-01  5760   0.230E+00 0.180E-01
CGA:  72    -0.222593384291E+03   -0.51081E-01   -0.50902E-01  5760   0.608E+00-0.234E-02
CGA:  73    -0.222618848888E+03   -0.25465E-01   -0.27092E-01  5760   0.186E+00 0.726E-03
CGA:  74    -0.222650413498E+03   -0.31565E-01   -0.30571E-01  5760   0.306E+00 0.797E-02
CGA:  75    -0.222664832576E+03   -0.14419E-01   -0.14010E-01  5760   0.122E+00 0.123E-01
CGA:  76    -0.222694506660E+03   -0.29674E-01   -0.29100E-01  5760   0.221E+00 0.213E-02
CGA:  77    -0.222705139064E+03   -0.10632E-01   -0.12222E-01  5760   0.141E+00-0.117E-02
CGA:  78    -0.222724999879E+03   -0.19861E-01   -0.19987E-01  5760   0.121E+00 0.161E-02
CGA:  79    -0.222755542250E+03   -0.30542E-01   -0.29355E-01  5760   0.395E+00-0.178E-01
CGA:  80    -0.222760748593E+03   -0.52063E-02   -0.63180E-02  5760   0.555E+00 0.221E+00
CGA:  81    -0.222787348905E+03   -0.26600E-01   -0.29224E-01  5760   0.255E+00-0.275E-03
CGA:  82    -0.222829127605E+03   -0.41779E-01   -0.57646E-01  5760   0.553E+00-0.947E-01
CGA:  83    -0.222844664030E+03   -0.15536E-01   -0.20478E-01  5760   0.470E+00 0.387E-02
CGA:  84    -0.222885057323E+03   -0.40393E-01   -0.41825E-01  5760   0.254E+00 0.380E-01
CGA:  85    -0.222920098892E+03   -0.35042E-01   -0.36981E-01  5760   0.163E+00-0.315E-01
CGA:  86    -0.222948645841E+03   -0.28547E-01   -0.27181E-01  5760   0.155E+00 0.101E-01
CGA:  87    -0.222981356781E+03   -0.32711E-01   -0.34745E-01  5760   0.189E+00-0.171E-01
CGA:  88    -0.223023364636E+03   -0.42008E-01   -0.48545E-01  5760   0.376E+00-0.404E-01
CGA:  89    -0.223068007702E+03   -0.44643E-01   -0.43560E-01  5760   0.378E+00 0.240E-01
CGA:  90    -0.223120687628E+03   -0.52680E-01   -0.52505E-01  5760   0.405E+00 0.119E-01
CGA:  91    -0.223162728959E+03   -0.42041E-01   -0.41112E-01  5760   0.233E+00-0.943E-02
CGA:  92    -0.223188565940E+03   -0.25837E-01   -0.25789E-01  5760   0.249E+00-0.806E-03
CGA:  93    -0.223215931670E+03   -0.27366E-01   -0.27363E-01  5760   0.164E+00-0.590E-03
CGA:  94    -0.223235860577E+03   -0.19929E-01   -0.19928E-01  5760   0.132E+00 0.667E-02
CGA:  95    -0.223252605312E+03   -0.16745E-01   -0.16746E-01  5760   0.888E-01-0.152E-02
CGA:  96    -0.223269394222E+03   -0.16789E-01   -0.16709E-01  5760   0.979E-01 0.693E-03
CGA:  97    -0.223280660385E+03   -0.11266E-01   -0.11258E-01  5760   0.620E-01 0.114E-02
CGA:  98    -0.223290659966E+03   -0.99996E-02   -0.99980E-02  5760   0.551E-01-0.118E-03
CGA:  99    -0.223299167231E+03   -0.85073E-02   -0.84939E-02  5760   0.628E-01 0.834E-03
CGA: 100    -0.223307772592E+03   -0.86054E-02   -0.86135E-02  5760   0.370E-01-0.716E-03
CGA: 101    -0.223313262345E+03   -0.54898E-02   -0.54964E-02  5760   0.388E-01-0.202E-03
CGA: 102    -0.223318741251E+03   -0.54789E-02   -0.54799E-02  5760   0.357E-01-0.320E-03
CGA: 103    -0.223324431899E+03   -0.56906E-02   -0.57313E-02  5760   0.316E-01-0.156E-02
CGA: 104    -0.223327910701E+03   -0.34788E-02   -0.34647E-02  5760   0.236E-01 0.423E-04
CGA: 105    -0.223331900463E+03   -0.39898E-02   -0.39714E-02  5760   0.229E-01 0.518E-03
CGA: 106    -0.223335213252E+03   -0.33128E-02   -0.33173E-02  5760   0.200E-01-0.324E-03
CGA: 107    -0.223337702859E+03   -0.24896E-02   -0.24892E-02  5760   0.138E-01 0.562E-04
CGA: 108    -0.223340262268E+03   -0.25594E-02   -0.25591E-02  5760   0.200E-01 0.711E-04
CGA: 109    -0.223343053686E+03   -0.27914E-02   -0.27911E-02  5760   0.172E-01 0.897E-04
CGA: 110    -0.223346018687E+03   -0.29650E-02   -0.29623E-02  5760   0.183E-01 0.109E-04
SDA: 111    -0.223348648842E+03   -0.26302E-02   -0.26310E-02  5760   0.207E-01-0.317E-04
CGA: 112    -0.223351967432E+03   -0.33186E-02   -0.33220E-02  5760   0.171E-01 0.342E-05
CGA: 113    -0.223354711085E+03   -0.27437E-02   -0.27444E-02  5760   0.136E-01-0.824E-05
CGA: 114    -0.223358509046E+03   -0.37980E-02   -0.37974E-02  5760   0.786E-02 0.304E-05
CGA: 115    -0.223360949836E+03   -0.24408E-02   -0.24401E-02  5760   0.793E-02 0.476E-05
CGA: 116    -0.223362909187E+03   -0.19594E-02   -0.19655E-02  5760   0.831E-02-0.655E-04
CGA: 117    -0.223364960395E+03   -0.20512E-02   -0.20524E-02  5760   0.821E-02-0.216E-04
CGA: 118    -0.223366239504E+03   -0.12791E-02   -0.12799E-02  5760   0.728E-02 0.107E-05
CGA: 119    -0.223368242123E+03   -0.20026E-02   -0.20021E-02  5760   0.636E-02-0.225E-04
CGA: 120    -0.223371848940E+03   -0.36068E-02   -0.36156E-02  5760   0.981E-02-0.261E-04
CGA: 121    -0.223374759607E+03   -0.29107E-02   -0.29144E-02  5760   0.139E-01-0.349E-04
CGA: 122    -0.223377170605E+03   -0.24110E-02   -0.24082E-02  5760   0.157E-01-0.955E-04
CGA: 123    -0.223381450325E+03   -0.42797E-02   -0.42722E-02  5760   0.981E-02 0.747E-04
CGA: 124    -0.223384420133E+03   -0.29698E-02   -0.29717E-02  5760   0.111E-01-0.210E-05
CGA: 125    -0.223387014200E+03   -0.25941E-02   -0.26039E-02  5760   0.147E-01-0.256E-04
CGA: 126    -0.223390254662E+03   -0.32405E-02   -0.32403E-02  5760   0.156E-01 0.687E-05
CGA: 127    -0.223392795527E+03   -0.25409E-02   -0.25264E-02  5760   0.103E-01 0.147E-04
CGA: 128    -0.223396258754E+03   -0.34632E-02   -0.35286E-02  5760   0.102E-01-0.231E-03
CGA: 129    -0.223398230323E+03   -0.19716E-02   -0.19709E-02  5760   0.658E-02 0.257E-03
CGA: 130    -0.223399066850E+03   -0.83653E-03   -0.80844E-03  5760   0.394E-02 0.890E-05
CGA: 131    -0.223400012231E+03   -0.94538E-03   -0.93851E-03  5760   0.232E-02 0.441E-04
CGA: 132    -0.223400421631E+03   -0.40940E-03   -0.40930E-03  5760   0.177E-02 0.404E-04
CGA: 133    -0.223400727933E+03   -0.30630E-03   -0.30309E-03  5760   0.159E-02 0.908E-06
CGA: 134    -0.223400983654E+03   -0.25572E-03   -0.25526E-03  5760   0.787E-03-0.263E-04
CGA: 135    -0.223401115385E+03   -0.13173E-03   -0.13297E-03  5760   0.510E-03 0.101E-04
CGA: 136    -0.223401217168E+03   -0.10178E-03   -0.10174E-03  5760   0.518E-03 0.554E-05
CGA: 137    -0.223401284137E+03   -0.66969E-04   -0.67229E-04  5760   0.292E-03-0.134E-04
CGA: 138    -0.223401349464E+03   -0.65327E-04   -0.64596E-04  5760   0.223E-03 0.147E-04
CGA: 139    -0.223401391288E+03   -0.41824E-04   -0.41605E-04  5760   0.297E-03 0.794E-06
CGA: 140    -0.223401442289E+03   -0.51001E-04   -0.50955E-04  5760   0.187E-03-0.609E-05
CGA: 141    -0.223401493382E+03   -0.51093E-04   -0.50733E-04  5760   0.289E-03 0.729E-05
SDA: 142    -0.223401534923E+03   -0.41541E-04   -0.40508E-04  5760   0.191E-03-0.208E-05
CGA: 143    -0.223401557068E+03   -0.22145E-04   -0.22307E-04  5760   0.128E-03-0.524E-06
CGA: 144    -0.223401588017E+03   -0.30949E-04   -0.31125E-04  5760   0.119E-03 0.509E-07
CGA: 145    -0.223401620414E+03   -0.32397E-04   -0.32566E-04  5760   0.118E-03-0.233E-05
CGA: 146    -0.223401644648E+03   -0.24234E-04   -0.24177E-04  5760   0.114E-03 0.252E-05
CGA: 147    -0.223401692989E+03   -0.48341E-04   -0.48991E-04  5760   0.172E-03-0.158E-05
CGA: 148    -0.223401730586E+03   -0.37598E-04   -0.37591E-04  5760   0.243E-03-0.944E-06
CGA: 149    -0.223401777350E+03   -0.46764E-04   -0.46712E-04  5760   0.200E-03-0.754E-06
CGA: 150    -0.223401848824E+03   -0.71474E-04   -0.71333E-04  5760   0.219E-03 0.186E-05
CGA: 151    -0.223401909298E+03   -0.60474E-04   -0.60655E-04  5760   0.168E-03-0.125E-05
CGA: 152    -0.223401952298E+03   -0.43000E-04   -0.43181E-04  5760   0.236E-03-0.248E-06
CGA: 153    -0.223401989290E+03   -0.36992E-04   -0.36508E-04  5760   0.148E-03 0.723E-07
CGA: 154    -0.223402030202E+03   -0.40912E-04   -0.40754E-04  5760   0.168E-03-0.125E-05
CGA: 155    -0.223402060360E+03   -0.30158E-04   -0.30418E-04  5760   0.989E-04 0.711E-06
CGA: 156    -0.223402085820E+03   -0.25460E-04   -0.25442E-04  5760   0.622E-04-0.124E-06
CGA: 157    -0.223402104676E+03   -0.18856E-04   -0.18775E-04  5760   0.359E-04 0.660E-06
CGA: 158    -0.223402116835E+03   -0.12160E-04   -0.12084E-04  5760   0.328E-04 0.595E-06
CGA: 159    -0.223402122592E+03   -0.57568E-05   -0.57148E-05  5760   0.364E-04-0.331E-07
CGA: 160    -0.223402129816E+03   -0.72243E-05   -0.71906E-05  5760   0.192E-04-0.577E-06
CGA: 161    -0.223402135531E+03   -0.57153E-05   -0.56394E-05  5760   0.126E-04 0.762E-06
CGA: 162    -0.223402139369E+03   -0.38376E-05   -0.38075E-05  5760   0.119E-04 0.196E-06
CGA: 163    -0.223402141673E+03   -0.23040E-05   -0.23109E-05  5760   0.101E-04-0.131E-06
CGA: 164    -0.223402144237E+03   -0.25640E-05   -0.25675E-05  5760   0.898E-05-0.824E-07
CGA: 165    -0.223402145516E+03   -0.12789E-05   -0.12767E-05  5760   0.667E-05 0.113E-06
CGA: 166    -0.223402147334E+03   -0.18185E-05   -0.18127E-05  5760   0.570E-05 0.152E-06
CGA: 167    -0.223402149766E+03   -0.24316E-05   -0.25339E-05  5760   0.642E-05-0.488E-06
CGA: 168    -0.223402151508E+03   -0.17424E-05   -0.17384E-05  5760   0.751E-05 0.763E-07
CGA: 169    -0.223402153179E+03   -0.16703E-05   -0.16756E-05  5760   0.953E-05 0.271E-06
CGA: 170    -0.223402155023E+03   -0.18441E-05   -0.18498E-05  5760   0.701E-05 0.117E-06
CGA: 171    -0.223402156886E+03   -0.18634E-05   -0.18742E-05  5760   0.846E-05-0.445E-06
CGA: 172    -0.223402158708E+03   -0.18221E-05   -0.18221E-05  5760   0.769E-05 0.210E-07
SDA: 173    -0.223402160729E+03   -0.20207E-05   -0.20075E-05  5760   0.562E-05 0.631E-06
CGA: 174    -0.223402161553E+03   -0.82421E-06   -0.79564E-06  5760   0.425E-05-0.304E-06
   1 F= -.23309464E+03 E0= -.23309183E+03  d E =-.563339E-02  mag=     6.0000
