 vasp.5.4.4.18Apr17-6-g9f103f2a35 (build Nov 22 2021 14:44:17) complex          
  
 executed on             LinuxIFC date 2022.08.08  10:59:29
 running on   64 total cores
 distrk:  each k-point on   64 cores,    1 groups
 distr:  one band on NCORES_PER_BAND=   4 cores,   16 groups


--------------------------------------------------------------------------------------------------------


 INCAR:
 POTCAR:    PAW_PBE Li 17Jan2003                  
 POTCAR:    PAW_PBE Co 02Aug2007                  
 POTCAR:    PAW_PBE O 08Apr2002                   
 POTCAR:    PAW_PBE Li 17Jan2003                  
   VRHFIN =Li: s1p0                                                             
   LEXCH  = PE                                                                  
   EATOM  =     5.3001 eV,    0.3895 Ry                                         
                                                                                
   TITEL  = PAW_PBE Li 17Jan2003                                                
   LULTRA =        F    use ultrasoft PP ?                                      
   IUNSCR =        1    unscreen: 0-lin 1-nonlin 2-no                           
   RPACOR =    1.500    partial core radius                                     
   POMASS =    7.010; ZVAL   =    1.000    mass and valenz                      
   RCORE  =    2.050    outmost cutoff radius                                   
   RWIGS  =    2.600; RWIGS  =    1.376    wigner-seitz radius (au A)           
   ENMAX  =  140.000; ENMIN  =  100.000 eV                                      
   ICORE  =        2    local potential                                         
   LCOR   =        T    correct aug charges                                     
   LPAW   =        T    paw PP                                                  
   EAUG   =  331.638                                                            
   DEXC   =    0.000                                                            
   RMAX   =    2.098    core radius for proj-oper                               
   RAUG   =    1.300    factor for augmentation sphere                          
   RDEP   =    2.094    radius for radial grids                                 
   RDEPT  =    1.810    core radius for aug-charge                              
                                                                                
   Atomic configuration                                                         
    4 entries                                                                   
     n  l   j            E        occ.                                          
     1  0  0.50       -51.8549   2.0000                                         
     2  0  0.50        -2.8742   1.0000                                         
     2  1  0.50        -1.3606   0.0000                                         
     3  2  1.50        -1.3606   0.0000                                         
   Description                                                                  
     l       E           TYP  RCUT    TYP  RCUT                                 
     0     -2.8742052     23  2.050                                             
     0     27.2116520     23  2.050                                             
     1     -1.3605826     23  2.050                                             
     2     -1.3605826     23  2.050                                             
  local pseudopotential read in
  partial core-charges read in
  partial kinetic energy density read in
  atomic valenz-charges read in
  non local Contribution for L=           0  read in
    real space projection operators read in
  non local Contribution for L=           0  read in
    real space projection operators read in
  non local Contribution for L=           1  read in
    real space projection operators read in
    PAW grid and wavefunctions read in
 
   number of l-projection  operators is LMAX  =           3
   number of lm-projection operators is LMMAX =           5
 
 POTCAR:    PAW_PBE Co 02Aug2007                  
   VRHFIN =Co: d8 s1                                                            
   LEXCH  = PE                                                                  
   EATOM  =   813.3670 eV,   59.7808 Ry                                         
                                                                                
   TITEL  = PAW_PBE Co 02Aug2007                                                
   LULTRA =        F    use ultrasoft PP ?                                      
   IUNSCR =        1    unscreen: 0-lin 1-nonlin 2-no                           
   RPACOR =    2.000    partial core radius                                     
   POMASS =   58.933; ZVAL   =    9.000    mass and valenz                      
   RCORE  =    2.300    outmost cutoff radius                                   
   RWIGS  =    2.460; RWIGS  =    1.302    wigner-seitz radius (au A)           
   ENMAX  =  267.968; ENMIN  =  200.976 eV                                      
   RCLOC  =    1.203    cutoff for local pot                                    
   LCOR   =        T    correct aug charges                                     
   LPAW   =        T    paw PP                                                  
   EAUG   =  477.818                                                            
   DEXC   =    0.000                                                            
   RMAX   =    2.360    core radius for proj-oper                               
   RAUG   =    1.300    factor for augmentation sphere                          
   RDEP   =    2.393    radius for radial grids                                 
   RDEPT  =    1.864    core radius for aug-charge                              
                                                                                
   Atomic configuration                                                         
    9 entries                                                                   
     n  l   j            E        occ.                                          
     1  0  0.50     -7587.6674   2.0000                                         
     2  0  0.50      -893.6084   2.0000                                         
     2  1  1.50      -764.5805   6.0000                                         
     3  0  0.50       -97.5973   2.0000                                         
     3  1  1.50       -60.9648   6.0000                                         
     3  2  2.50        -4.2382   8.0000                                         
     4  0  0.50        -4.3746   1.0000                                         
     4  1  1.50        -4.0817   0.0000                                         
     4  3  2.50        -1.3606   0.0000                                         
   Description                                                                  
     l       E           TYP  RCUT    TYP  RCUT                                 
     2     -4.2382362     23  2.300                                             
     2     -5.5988188     23  2.300                                             
     0     -4.3745797     23  2.300                                             
     0      5.7660125     23  2.300                                             
     1     -2.7211652     23  2.300                                             
     1     16.9860234     23  2.300                                             
  local pseudopotential read in
  partial core-charges read in
  partial kinetic energy density read in
  atomic valenz-charges read in
  non local Contribution for L=           2  read in
    real space projection operators read in
  non local Contribution for L=           2  read in
    real space projection operators read in
  non local Contribution for L=           0  read in
    real space projection operators read in
  non local Contribution for L=           0  read in
    real space projection operators read in
  non local Contribution for L=           1  read in
    real space projection operators read in
  non local Contribution for L=           1  read in
    real space projection operators read in
    PAW grid and wavefunctions read in
 
   number of l-projection  operators is LMAX  =           6
   number of lm-projection operators is LMMAX =          18
 
 POTCAR:    PAW_PBE O 08Apr2002                   
   VRHFIN =O: s2p4                                                              
   LEXCH  = PE                                                                  
   EATOM  =   432.3788 eV,   31.7789 Ry                                         
                                                                                
   TITEL  = PAW_PBE O 08Apr2002                                                 
   LULTRA =        F    use ultrasoft PP ?                                      
   IUNSCR =        1    unscreen: 0-lin 1-nonlin 2-no                           
   RPACOR =    1.200    partial core radius                                     
   POMASS =   16.000; ZVAL   =    6.000    mass and valenz                      
   RCORE  =    1.520    outmost cutoff radius                                   
   RWIGS  =    1.550; RWIGS  =    0.820    wigner-seitz radius (au A)           
   ENMAX  =  400.000; ENMIN  =  300.000 eV                                      
   ICORE  =        2    local potential                                         
   LCOR   =        T    correct aug charges                                     
   LPAW   =        T    paw PP                                                  
   EAUG   =  605.392                                                            
   DEXC   =    0.000                                                            
   RMAX   =    1.553    core radius for proj-oper                               
   RAUG   =    1.300    factor for augmentation sphere                          
   RDEP   =    1.550    radius for radial grids                                 
   RDEPT  =    1.329    core radius for aug-charge                              
                                                                                
   Atomic configuration                                                         
    4 entries                                                                   
     n  l   j            E        occ.                                          
     1  0  0.50      -514.6923   2.0000                                         
     2  0  0.50       -23.9615   2.0000                                         
     2  1  0.50        -9.0305   4.0000                                         
     3  2  1.50        -9.5241   0.0000                                         
   Description                                                                  
     l       E           TYP  RCUT    TYP  RCUT                                 
     0    -23.9615318     23  1.200                                             
     0     -9.5240782     23  1.200                                             
     1     -9.0304911     23  1.520                                             
     1      8.1634956     23  1.520                                             
     2     -9.5240782      7  1.500                                             
  local pseudopotential read in
  partial core-charges read in
  partial kinetic energy density read in
  kinetic energy density of atom read in
  atomic valenz-charges read in
  non local Contribution for L=           0  read in
    real space projection operators read in
  non local Contribution for L=           0  read in
    real space projection operators read in
  non local Contribution for L=           1  read in
    real space projection operators read in
  non local Contribution for L=           1  read in
    real space projection operators read in
    PAW grid and wavefunctions read in
 
   number of l-projection  operators is LMAX  =           4
   number of lm-projection operators is LMMAX =           8
 
 Optimization of the real space projectors (new method)

 maximal supplied QI-value         = 18.33
 optimisation between [QCUT,QGAM] = [ 12.46, 24.93] = [ 43.51,174.03] Ry 
 Optimized for a Real-space Cutoff    1.13 Angstroem

   l    n(q)    QCUT    max X(q) W(low)/X(q) W(high)/X(q)  e(spline) 
   0      8    12.465    33.825    0.12E-03    0.29E-03    0.99E-07
   0      8    12.465     8.944    0.86E-04    0.22E-03    0.72E-07
   1      8    12.465     4.214    0.27E-03    0.11E-03    0.82E-07
 Optimization of the real space projectors (new method)

 maximal supplied QI-value         = 16.25
 optimisation between [QCUT,QGAM] = [ 12.51, 25.03] = [ 43.85,175.40] Ry 
 Optimized for a Real-space Cutoff    1.31 Angstroem

   l    n(q)    QCUT    max X(q) W(low)/X(q) W(high)/X(q)  e(spline) 
   2      9    12.514    65.824    0.30E-03    0.46E-03    0.43E-06
   2      9    12.514    61.429    0.31E-03    0.46E-03    0.44E-06
   0     10    12.514    56.174    0.90E-04    0.33E-03    0.30E-06
   0     10    12.514    31.263    0.81E-04    0.30E-03    0.28E-06
   1      9    12.514    19.828    0.38E-03    0.65E-04    0.24E-06
   1      9    12.514    15.139    0.32E-03    0.60E-04    0.20E-06
 Optimization of the real space projectors (new method)

 maximal supplied QI-value         = 24.76
 optimisation between [QCUT,QGAM] = [ 12.38, 25.00] = [ 42.90,175.06] Ry 
 Optimized for a Real-space Cutoff    1.13 Angstroem

   l    n(q)    QCUT    max X(q) W(low)/X(q) W(high)/X(q)  e(spline) 
   0      8    12.378    20.381    0.16E-03    0.54E-05    0.27E-06
   0      8    12.378    15.268    0.17E-03    0.61E-05    0.29E-06
   1      8    12.378     5.964    0.38E-03    0.23E-03    0.28E-06
   1      8    12.378     5.382    0.33E-03    0.20E-03    0.25E-06
  PAW_PBE Li 17Jan2003                  :
 energy of atom  1       EATOM=   -5.3001
 kinetic energy error for atom=    0.0000 (will be added to EATOM!!)
  PAW_PBE Co 02Aug2007                  :
 energy of atom  2       EATOM= -813.3670
 kinetic energy error for atom=    0.0018 (will be added to EATOM!!)
  PAW_PBE O 08Apr2002                   :
 energy of atom  3       EATOM= -432.3788
 kinetic energy error for atom=    0.0168 (will be added to EATOM!!)
 
 
 POSCAR: Li6 Co12 O24                            
  positions in cartesian coordinates
  No initial velocities read in
 exchange correlation table for  LEXCH =        8
   RHO(1)=    0.500       N(1)  =     2000
   RHO(2)=  100.500       N(2)  =     4000
 


--------------------------------------------------------------------------------------------------------


 ion  position               nearest neighbor table
   1  0.475  0.985  0.997-  38 2.00  24 2.02  36 2.06  23 2.15  37 2.20  25 2.37   8 2.71  16 2.79
                            17 2.85   9 3.01  15 3.04  10 3.12
   2  0.861  0.098  0.355-  34 1.86  31 1.87  19 1.91  33 2.06   3 2.43  21 2.47  11 2.52  20 2.62
                            13 2.70  10 2.72  12 2.80   7 3.08   3 3.23
   3  0.781  0.630  0.332-  22 1.82  34 1.89  33 2.20  19 2.21  20 2.22  32 2.32   2 2.43  10 2.70
                             9 2.70  14 2.73  11 2.82   8 3.04  12 3.07   2 3.23
   4  0.148  0.280  0.656-  28 1.92  39 1.93  27 1.95  29 2.05  42 2.35  40 2.61   5 2.71  14 2.72
                            15 2.74  12 2.75  11 2.79   6 2.79   6 2.80   5 2.86  17 2.94  16 3.16
   5  0.112  0.748  0.657-  40 1.82  30 1.97  27 2.01  28 2.06  39 2.35  41 2.43  12 2.54  11 2.70
                             4 2.71   6 2.78   6 2.80  13 2.81  16 2.82   4 2.86  18 2.93  15 3.20
   6  0.633  0.795  0.658-  42 1.80  29 1.89  30 1.94  28 1.97  41 2.29  39 2.34  13 2.65   5 2.78
                            11 2.79   4 2.79   4 2.80  16 2.80   5 2.80  14 2.83  18 2.97  17 3.15
   7  0.191  0.349  0.169-  23 1.79  20 1.80  22 1.92  25 1.94  19 1.96  24 1.97   8 2.67   9 2.70
                            10 2.76  10 2.84   9 2.87   8 2.90   2 3.08
   8  0.194  0.871  0.166-  26 1.83  24 1.87  19 1.88  23 1.90  21 1.92  20 2.00   7 2.67   1 2.71
                            10 2.77   9 2.77   9 2.81  10 2.82   7 2.90   3 3.04
   9  0.687  0.370  0.163-  22 1.78  21 1.86  23 1.88  25 1.90  26 1.90  20 1.96   7 2.70   3 2.70
                             8 2.77  10 2.78  10 2.81   8 2.81   7 2.87   1 3.01
  10  0.686  0.867  0.183-  21 1.66  26 1.89  19 1.90  24 1.92  22 1.96  25 1.97   3 2.70   2 2.72
                             7 2.76   8 2.77   9 2.78   9 2.81   8 2.82   7 2.84   1 3.12
  11  0.989  0.930  0.500-  32 1.68  27 1.84  30 1.85  29 1.90  31 1.98  34 2.04   2 2.52  12 2.56
                             5 2.70  13 2.75  14 2.76   6 2.79   4 2.79  13 2.82   3 2.82  14 2.83
  12  0.989  0.470  0.505-  32 1.83  28 1.90  33 1.90  30 1.94  31 1.98  29 2.05   5 2.54  11 2.56
                            13 2.67  14 2.74   4 2.75   2 2.80  14 2.83  13 2.92  11 3.01   3 3.07
  13  0.484  0.932  0.501-  34 1.81  29 1.90  28 1.91  32 1.92  27 1.97  33 1.98   6 2.65  12 2.67
                             2 2.70  14 2.71  11 2.75   5 2.81  11 2.82  14 2.85  12 2.92
  14  0.485  0.446  0.498-  31 1.84  28 1.84  30 1.87  34 1.90  33 1.92  27 2.03  13 2.71   4 2.72
                             3 2.73  12 2.74  11 2.76   6 2.83  11 2.83  12 2.83  13 2.85
  15  0.332  0.196  0.823-  41 1.80  37 1.81  35 1.84  39 1.85  42 1.99  36 2.07  17 2.72   4 2.74
                            16 2.77  18 2.78  16 2.79  18 2.82  17 2.85   1 3.04   5 3.20
  16  0.326  0.691  0.828-  42 1.80  35 1.87  41 1.89  38 1.89  40 1.89  36 1.95  15 2.77  17 2.77
                            18 2.77   1 2.79  15 2.79  18 2.80   6 2.80  17 2.81   5 2.82   4 3.16
  17  0.822  0.202  0.832-  38 1.81  37 1.87  35 1.90  40 1.92  41 1.92  39 2.00  15 2.72  16 2.77
                            18 2.78  18 2.79  16 2.81  15 2.85   1 2.85   4 2.94   6 3.15
  18  0.829  0.705  0.840-  40 1.78  38 1.80  36 1.85  39 1.89  37 1.96  42 1.97  16 2.77  17 2.78
                            15 2.78  17 2.79  16 2.80  15 2.82   5 2.93   6 2.97
  19  0.023  0.013  0.248-   8 1.88  10 1.90   2 1.91   7 1.96   3 2.21
  20  0.026  0.509  0.235-   7 1.80   9 1.96   8 2.00   3 2.22   2 2.62
  21  0.539  0.038  0.230-  10 1.66   9 1.86   8 1.92   2 2.47
  22  0.521  0.498  0.241-   9 1.78   3 1.82   7 1.92  10 1.96
  23  0.356  0.207  0.096-   7 1.79   9 1.88   8 1.90   1 2.15
  24  0.374  0.706  0.102-   8 1.87  10 1.92   7 1.97   1 2.02
  25  0.857  0.190  0.098-   9 1.90   7 1.94  10 1.97   1 2.37
  26  0.867  0.725  0.104-   8 1.83  10 1.89   9 1.90
  27  0.292  0.090  0.575-  11 1.84   4 1.95  13 1.97   5 2.01  14 2.03
  28  0.319  0.598  0.573-  14 1.84  12 1.90  13 1.91   4 1.92   6 1.97   5 2.06
  29  0.812  0.092  0.571-   6 1.89  11 1.90  13 1.90  12 2.05   4 2.05
  30  0.790  0.620  0.576-  11 1.85  14 1.87  12 1.94   6 1.94   5 1.97
  31  0.165  0.290  0.432-  14 1.84   2 1.87  11 1.98  12 1.98
  32  0.144  0.788  0.435-  11 1.68  12 1.83  13 1.92   3 2.32
  33  0.673  0.285  0.429-  12 1.90  14 1.92  13 1.98   2 2.06   3 2.20
  34  0.636  0.775  0.425-  13 1.81   2 1.86   3 1.89  14 1.90  11 2.04
  35  0.164  0.354  0.893-  15 1.84  16 1.87  17 1.90
  36  0.147  0.848  0.908-  18 1.85  16 1.95   1 2.06  15 2.07
  37  0.624  0.340  0.900-  15 1.81  17 1.87  18 1.96   1 2.20
  38  0.658  0.875  0.895-  18 1.80  17 1.81  16 1.89   1 2.00
  39  0.004  0.019  0.760-  15 1.85  18 1.89   4 1.93  17 2.00   6 2.34   5 2.35
  40  0.984  0.552  0.767-  18 1.78   5 1.82  16 1.89  17 1.92   4 2.61
  41  0.493  0.028  0.759-  15 1.80  16 1.89  17 1.92   6 2.29   5 2.43
  42  0.509  0.560  0.757-   6 1.80  16 1.80  18 1.97  15 1.99   4 2.35
 

IMPORTANT INFORMATION: All symmetrisations will be switched off!
NOSYMM: (Re-)initialisation of all symmetry stuff for point group C_1.

 
 

Automatic generation of k-mesh.
 generate k-points for:    6    6    2
Space group operators:
 irot       det(A)        alpha          n_x          n_y          n_z        tau_x        tau_y        tau_z
    1     1.000000     0.000000     1.000000     0.000000     0.000000     0.000000     0.000000     0.000000
 
 Subroutine IBZKPT returns following result:
 ===========================================
 
 Found     36 irreducible k-points:
 
 Following reciprocal coordinates:
            Coordinates               Weight
  0.083333  0.083333  0.250000      2.000000
  0.250000  0.083333  0.250000      2.000000
  0.416667  0.083333  0.250000      2.000000
 -0.416667  0.083333  0.250000      2.000000
 -0.250000  0.083333  0.250000      2.000000
 -0.083333  0.083333  0.250000      2.000000
  0.083333  0.250000  0.250000      2.000000
  0.250000  0.250000  0.250000      2.000000
  0.416667  0.250000  0.250000      2.000000
 -0.416667  0.250000  0.250000      2.000000
 -0.250000  0.250000  0.250000      2.000000
 -0.083333  0.250000  0.250000      2.000000
  0.083333  0.416667  0.250000      2.000000
  0.250000  0.416667  0.250000      2.000000
  0.416667  0.416667  0.250000      2.000000
 -0.416667  0.416667  0.250000      2.000000
 -0.250000  0.416667  0.250000      2.000000
 -0.083333  0.416667  0.250000      2.000000
  0.083333 -0.416667  0.250000      2.000000
  0.250000 -0.416667  0.250000      2.000000
  0.416667 -0.416667  0.250000      2.000000
 -0.416667 -0.416667  0.250000      2.000000
 -0.250000 -0.416667  0.250000      2.000000
 -0.083333 -0.416667  0.250000      2.000000
  0.083333 -0.250000  0.250000      2.000000
  0.250000 -0.250000  0.250000      2.000000
  0.416667 -0.250000  0.250000      2.000000
 -0.416667 -0.250000  0.250000      2.000000
 -0.250000 -0.250000  0.250000      2.000000
 -0.083333 -0.250000  0.250000      2.000000
  0.083333 -0.083333  0.250000      2.000000
  0.250000 -0.083333  0.250000      2.000000
  0.416667 -0.083333  0.250000      2.000000
 -0.416667 -0.083333  0.250000      2.000000
 -0.250000 -0.083333  0.250000      2.000000
 -0.083333 -0.083333  0.250000      2.000000
 
 Following cartesian coordinates:
            Coordinates               Weight
  0.014981  0.025827  0.017017      2.000000
  0.044944  0.042954  0.015914      2.000000
  0.074906  0.060080  0.014811      2.000000
 -0.074906 -0.025552  0.020327      2.000000
 -0.044944 -0.008426  0.019224      2.000000
 -0.014981  0.008701  0.018121      2.000000
  0.014981  0.060355  0.016834      2.000000
  0.044944  0.077482  0.015731      2.000000
  0.074906  0.094608  0.014627      2.000000
 -0.074906  0.008976  0.020144      2.000000
 -0.044944  0.026102  0.019040      2.000000
 -0.014981  0.043229  0.017937      2.000000
  0.014981  0.094883  0.016650      2.000000
  0.044944  0.112009  0.015547      2.000000
  0.074906  0.129136  0.014444      2.000000
 -0.074906  0.043504  0.019960      2.000000
 -0.044944  0.060630  0.018857      2.000000
 -0.014981  0.077756  0.017754      2.000000
  0.014981 -0.077756  0.017568      2.000000
  0.044944 -0.060630  0.016465      2.000000
  0.074906 -0.043504  0.015361      2.000000
 -0.074906 -0.129136  0.020878      2.000000
 -0.044944 -0.112009  0.019774      2.000000
 -0.014981 -0.094883  0.018671      2.000000
  0.014981 -0.043229  0.017384      2.000000
  0.044944 -0.026102  0.016281      2.000000
  0.074906 -0.008976  0.015178      2.000000
 -0.074906 -0.094608  0.020694      2.000000
 -0.044944 -0.077482  0.019591      2.000000
 -0.014981 -0.060355  0.018488      2.000000
  0.014981 -0.008701  0.017201      2.000000
  0.044944  0.008426  0.016098      2.000000
  0.074906  0.025552  0.014994      2.000000
 -0.074906 -0.060080  0.020511      2.000000
 -0.044944 -0.042954  0.019407      2.000000
 -0.014981 -0.025827  0.018304      2.000000
 


--------------------------------------------------------------------------------------------------------




 Dimension of arrays:
   k-points           NKPTS =     36   k-points in BZ     NKDIM =     36   number of bands    NBANDS=    160
   number of dos      NEDOS =    301   number of ions     NIONS =     42
   non local maximal  LDIM  =      6   non local SUM 2l+1 LMDIM =     18
   total plane-waves  NPLWV = 116640
   max r-space proj   IRMAX =   2918   max aug-charges    IRDMAX=  12301
   dimension x,y,z NGX =    36 NGY =   36 NGZ =   90
   dimension x,y,z NGXF=    72 NGYF=   72 NGZF=  180
   support grid    NGXF=    72 NGYF=   72 NGZF=  180
   ions per type =               6  12  24
   NGX,Y,Z   is equivalent  to a cutoff of  10.76, 10.76, 10.56 a.u.
   NGXF,Y,Z  is equivalent  to a cutoff of  21.52, 21.53, 21.13 a.u.

 SYSTEM =  LiCoO2                                  
 POSCAR =  Li6 Co12 O24                            

 Startparameter for this run:
   NWRITE =      2    write-flag & timer
   PREC   = normal    normal or accurate (medium, high low for compatibility)
   ISTART =      0    job   : 0-new  1-cont  2-samecut
   ICHARG =      2    charge: 1-file 2-atom 10-const
   ISPIN  =      2    spin polarized calculation?
   LNONCOLLINEAR =      F non collinear calculations
   LSORBIT =      F    spin-orbit coupling
   INIWAV =      1    electr: 0-lowe 1-rand  2-diag
   LASPH  =      F    aspherical Exc in radial PAW
   METAGGA=      F    non-selfconsistent MetaGGA calc.

 Electronic Relaxation 1
   ENCUT  =  600.0 eV  44.10 Ry    6.64 a.u.  11.11 11.10 28.29*2*pi/ulx,y,z
   ENINI  =  600.0     initial cutoff
   ENAUG  =  605.4 eV  augmentation charge cutoff
   NELM   =    600;   NELMIN=  2; NELMDL= -5     # of ELM steps 
   EDIFF  = 0.1E-05   stopping-criterion for ELM
   LREAL  =      T    real-space projection
   NLSPLINE    = F    spline interpolate recip. space projectors
   LCOMPAT=      F    compatible to vasp.4.4
   GGA_COMPAT  = T    GGA compatible to vasp.4.4-vasp.4.6
   LMAXPAW     = -100 max onsite density
   LMAXMIX     =    2 max onsite mixed and CHGCAR
   VOSKOWN=      0    Vosko Wilk Nusair interpolation
   ROPT   =   -0.00050  -0.00050  -0.00050
 Ionic relaxation
   EDIFFG = 0.1E-04   stopping-criterion for IOM
   NSW    =      0    number of steps for IOM
   NBLOCK =      1;   KBLOCK =      1    inner block; outer block 
   IBRION =     -1    ionic relax: 0-MD 1-quasi-New 2-CG
   NFREE  =      0    steps in history (QN), initial steepest desc. (CG)
   ISIF   =      2    stress and relaxation
   IWAVPR =     10    prediction:  0-non 1-charg 2-wave 3-comb
   ISYM   =      0    0-nonsym 1-usesym 2-fastsym
   LCORR  =      T    Harris-Foulkes like correction to forces

   POTIM  = 0.5000    time-step for ionic-motion
   TEIN   =    0.0    initial temperature
   TEBEG  =    0.0;   TEEND  =   0.0 temperature during run
   SMASS  =  -3.00    Nose mass-parameter (am)
   estimated Nose-frequenzy (Omega)   =  0.10E-29 period in steps =****** mass=  -0.707E-27a.u.
   SCALEE = 1.0000    scale energy and forces
   NPACO  =    256;   APACO  = 16.0  distance and # of slots for P.C.
   PSTRESS=    0.0 pullay stress

  Mass of Ions in am
   POMASS =   7.01 58.93 16.00
  Ionic Valenz
   ZVAL   =   1.00  9.00  6.00
  Atomic Wigner-Seitz radii
   RWIGS  =  -1.00 -1.00 -1.00
  virtual crystal weights 
   VCA    =   1.00  1.00  1.00
   NELECT =     258.0000    total number of electrons
   NUPDOWN=       6.0000    fix difference up-down

 DOS related values:
   EMIN   =  10.00;   EMAX   =-10.00  energy-range for DOS
   EFERMI =   0.00
   ISMEAR =     0;   SIGMA  =   0.05  broadening in eV -4-tet -1-fermi 0-gaus

 Electronic relaxation 2 (details)
   IALGO  =     58    algorithm
   LDIAG  =      T    sub-space diagonalisation (order eigenvalues)
   LSUBROT=      F    optimize rotation matrix (better conditioning)
   TURBO    =      0    0=normal 1=particle mesh
   IRESTART =      0    0=no restart 2=restart with 2 vectors
   NREBOOT  =      0    no. of reboots
   NMIN     =      0    reboot dimension
   EREF     =   0.00    reference energy to select bands
   IMIX   =      4    mixing-type and parameters
     AMIX     =   0.40;   BMIX     =  1.00
     AMIX_MAG =   1.60;   BMIX_MAG =  1.00
     AMIN     =   0.10
     WC   =   100.;   INIMIX=   1;  MIXPRE=   1;  MAXMIX= -45

 Intra band minimization:
   WEIMIN = 0.0000     energy-eigenvalue tresh-hold
   EBREAK =  0.16E-08  absolut break condition
   DEPER  =   0.30     relativ break condition  

   TIME   =   0.40     timestep for ELM

  volume/ion in A,a.u.               =       9.05        61.07
  Fermi-wavevector in a.u.,A,eV,Ry     =   1.438756  2.718854 28.164304  2.070018
  Thomas-Fermi vector in A             =   2.557687
 
 Write flags
   LWAVE        =      F    write WAVECAR
   LDOWNSAMPLE  =      F    k-point downsampling of WAVECAR
   LCHARG       =      F    write CHGCAR
   LVTOT        =      F    write LOCPOT, total local potential
   LVHAR        =      F    write LOCPOT, Hartree potential only
   LELF         =      F    write electronic localiz. function (ELF)
   LORBIT       =     11    0 simple, 1 ext, 2 COOP (PROOUT), +10 PAW based schemes


 Dipole corrections
   LMONO  =      F    monopole corrections only (constant potential shift)
   LDIPOL =      F    correct potential (dipole corrections)
   IDIPOL =      0    1-x, 2-y, 3-z, 4-all directions 
   EPSILON=  1.0000000 bulk dielectric constant

 LDA+U is selected, type is set to LDAUTYPE =  2
   angular momentum for each species LDAUL =    -1    2   -1
   U (eV)           for each species LDAUU =   0.0  5.1  0.0
   J (eV)           for each species LDAUJ =   0.0  0.0  0.0
 Exchange correlation treatment:
   GGA     =    --    GGA type
   LEXCH   =     8    internal setting for exchange type
   VOSKOWN=      0    Vosko Wilk Nusair interpolation
   LHFCALC =     F    Hartree Fock is set to
   LHFONE  =     F    Hartree Fock one center treatment
   AEXX    =    0.0000 exact exchange contribution

 Linear response parameters
   LEPSILON=     F    determine dielectric tensor
   LRPA    =     F    only Hartree local field effects (RPA)
   LNABLA  =     F    use nabla operator in PAW spheres
   LVEL    =     F    velocity operator in full k-point grid
   LINTERFAST=   F  fast interpolation
   KINTER  =     0    interpolate to denser k-point grid
   CSHIFT  =0.1000    complex shift for real part using Kramers Kronig
   OMEGAMAX=  -1.0    maximum frequency
   DEG_THRESHOLD= 0.2000000E-02 threshold for treating states as degnerate
   RTIME   =   -0.100 relaxation time in fs
  (WPLASMAI=    0.000 imaginary part of plasma frequency in eV, 0.658/RTIME)
   DFIELD  = 0.0000000 0.0000000 0.0000000 field for delta impulse in time
 
 Orbital magnetization related:
   ORBITALMAG=     F  switch on orbital magnetization
   LCHIMAG   =     F  perturbation theory with respect to B field
   DQ        =  0.001000  dq finite difference perturbation B field
   LLRAUG    =     F  two centre corrections for induced B field



--------------------------------------------------------------------------------------------------------


 Static calculation
 charge density and potential will be updated during run
 spin polarized calculation
 Conjugate gradient for all bands (Freysoldt, et al. PRB 79, 241103 (2009))
 preconditioned conjugated gradient                                        
 perform sub-space diagonalisation
    before iterative eigenvector-optimisation
 modified Broyden-mixing scheme, WC =      100.0
 initial mixing is a Kerker type mixing with AMIX =  0.4000 and BMIX =      1.0000
 Hartree-type preconditioning will be used
 using additional bands           31
 real space projection scheme for non local part
 use partial core corrections
 no Harris-corrections to forces 
 use gradient corrections 
 use of overlap-Matrix (Vanderbilt PP)
 Gauss-broadening in eV      SIGMA  =   0.05


--------------------------------------------------------------------------------------------------------


  energy-cutoff  :      600.00
  volume of cell :      380.09
      direct lattice vectors                 reciprocal lattice vectors
     5.562533855  0.000000000  0.000000000     0.179774187  0.102758697 -0.006619611
    -2.759116411  4.827016354  0.000000000     0.000000000  0.207167311 -0.001100937
     0.478239238  0.075226821 14.155708313     0.000000000  0.000000000  0.070642880

  length of vectors
     5.562533855  5.559928979 14.163984245     0.207176078  0.207170237  0.070642880


 
 k-points in units of 2pi/SCALE and weight: read from INCAR                         
   0.01498118  0.02582717  0.01701734       0.028
   0.04494355  0.04295362  0.01591407       0.028
   0.07490591  0.06008007  0.01481080       0.028
  -0.07490591 -0.02555218  0.02032715       0.028
  -0.04494355 -0.00842573  0.01922388       0.028
  -0.01498118  0.00870072  0.01812061       0.028
   0.01498118  0.06035505  0.01683385       0.028
   0.04494355  0.07748150  0.01573058       0.028
   0.07490591  0.09460795  0.01462731       0.028
  -0.07490591  0.00897570  0.02014366       0.028
  -0.04494355  0.02610215  0.01904039       0.028
  -0.01498118  0.04322860  0.01793712       0.028
   0.01498118  0.09488294  0.01665036       0.028
   0.04494355  0.11200939  0.01554709       0.028
   0.07490591  0.12913584  0.01444383       0.028
  -0.07490591  0.04350359  0.01996017       0.028
  -0.04494355  0.06063004  0.01885690       0.028
  -0.01498118  0.07775649  0.01775363       0.028
   0.01498118 -0.07775649  0.01756781       0.028
   0.04494355 -0.06063004  0.01646454       0.028
   0.07490591 -0.04350359  0.01536127       0.028
  -0.07490591 -0.12913584  0.02087761       0.028
  -0.04494355 -0.11200939  0.01977435       0.028
  -0.01498118 -0.09488294  0.01867108       0.028
   0.01498118 -0.04322860  0.01738432       0.028
   0.04494355 -0.02610215  0.01628105       0.028
   0.07490591 -0.00897570  0.01517778       0.028
  -0.07490591 -0.09460795  0.02069413       0.028
  -0.04494355 -0.07748150  0.01959086       0.028
  -0.01498118 -0.06035505  0.01848759       0.028
   0.01498118 -0.00870072  0.01720083       0.028
   0.04494355  0.00842573  0.01609756       0.028
   0.07490591  0.02555218  0.01499429       0.028
  -0.07490591 -0.06008007  0.02051064       0.028
  -0.04494355 -0.04295362  0.01940737       0.028
  -0.01498118 -0.02582717  0.01830410       0.028
 
 k-points in reciprocal lattice and weights: read from INCAR                         
   0.08333333  0.08333333  0.25000000       0.028
   0.25000000  0.08333333  0.25000000       0.028
   0.41666667  0.08333333  0.25000000       0.028
  -0.41666667  0.08333333  0.25000000       0.028
  -0.25000000  0.08333333  0.25000000       0.028
  -0.08333333  0.08333333  0.25000000       0.028
   0.08333333  0.25000000  0.25000000       0.028
   0.25000000  0.25000000  0.25000000       0.028
   0.41666667  0.25000000  0.25000000       0.028
  -0.41666667  0.25000000  0.25000000       0.028
  -0.25000000  0.25000000  0.25000000       0.028
  -0.08333333  0.25000000  0.25000000       0.028
   0.08333333  0.41666667  0.25000000       0.028
   0.25000000  0.41666667  0.25000000       0.028
   0.41666667  0.41666667  0.25000000       0.028
  -0.41666667  0.41666667  0.25000000       0.028
  -0.25000000  0.41666667  0.25000000       0.028
  -0.08333333  0.41666667  0.25000000       0.028
   0.08333333 -0.41666667  0.25000000       0.028
   0.25000000 -0.41666667  0.25000000       0.028
   0.41666667 -0.41666667  0.25000000       0.028
  -0.41666667 -0.41666667  0.25000000       0.028
  -0.25000000 -0.41666667  0.25000000       0.028
  -0.08333333 -0.41666667  0.25000000       0.028
   0.08333333 -0.25000000  0.25000000       0.028
   0.25000000 -0.25000000  0.25000000       0.028
   0.41666667 -0.25000000  0.25000000       0.028
  -0.41666667 -0.25000000  0.25000000       0.028
  -0.25000000 -0.25000000  0.25000000       0.028
  -0.08333333 -0.25000000  0.25000000       0.028
   0.08333333 -0.08333333  0.25000000       0.028
   0.25000000 -0.08333333  0.25000000       0.028
   0.41666667 -0.08333333  0.25000000       0.028
  -0.41666667 -0.08333333  0.25000000       0.028
  -0.25000000 -0.08333333  0.25000000       0.028
  -0.08333333 -0.08333333  0.25000000       0.028
 
 position of ions in fractional coordinates (direct lattice) 
   0.47504572  0.98508848  0.99727474
   0.86073935  0.09757738  0.35535701
   0.78083998  0.62980264  0.33169589
   0.14820657  0.27974271  0.65571500
   0.11212555  0.74777566  0.65700985
   0.63333017  0.79473613  0.65795297
   0.19129482  0.34856883  0.16938820
   0.19396792  0.87053600  0.16614500
   0.68694415  0.36999958  0.16318576
   0.68623618  0.86689329  0.18293681
   0.98904479  0.92961868  0.49962670
   0.98940289  0.47033419  0.50539471
   0.48387351  0.93160079  0.50059097
   0.48517237  0.44557579  0.49846958
   0.33199558  0.19633275  0.82282709
   0.32579251  0.69140851  0.82802640
   0.82230536  0.20177546  0.83157263
   0.82926880  0.70473190  0.83956235
   0.02319201  0.01339235  0.24798194
   0.02608847  0.50929411  0.23514118
   0.53919374  0.03846523  0.22994046
   0.52100978  0.49820394  0.24142346
   0.35649858  0.20660755  0.09587016
   0.37427126  0.70609737  0.10230925
   0.85660365  0.19027286  0.09783474
   0.86683775  0.72494276  0.10420955
   0.29245243  0.08981071  0.57548936
   0.31903984  0.59800085  0.57346617
   0.81201425  0.09233583  0.57138436
   0.78993813  0.62049726  0.57625233
   0.16509302  0.28959818  0.43195859
   0.14359420  0.78774601  0.43464727
   0.67313669  0.28476038  0.42932785
   0.63612638  0.77534351  0.42463790
   0.16387005  0.35433631  0.89346997
   0.14707804  0.84837210  0.90837558
   0.62383938  0.33975842  0.89968650
   0.65762005  0.87520642  0.89508059
   0.00387653  0.01895445  0.75952400
   0.98437365  0.55158177  0.76722409
   0.49334048  0.02842812  0.75939681
   0.50866957  0.56042543  0.75687487
 
 position of ions in cartesian coordinates  (Angst):
   0.40142000  4.83006001 14.11713028
   4.68861008  0.49774000  5.03033018
   2.76437998  3.06502008  4.69539022
   0.36614999  1.39964998  9.28211021
  -1.12529004  3.65895009  9.30043983
   1.64480996  3.88569999  9.31379032
   0.18335000  1.69528997  2.39780998
  -1.24349999  4.21459007  2.35190010
   2.87831998  1.79826999  2.31000996
   1.51284003  4.19826984  2.58960009
   3.17561007  4.52486992  7.07256985
   4.44757986  2.30833006  7.15422010
   0.36057001  4.53451014  7.08621979
   1.70778000  2.18829989  7.05619001
   1.69853997  1.00960004 11.64770031
   0.30055001  3.39972997 11.72130013
   4.41507006  1.03653002 11.77149963
   3.06991005  3.46491003 11.88459969
   0.21065000  0.08330000  3.51036000
  -1.14762998  2.47605991  3.32858992
   3.00311995  0.20297000  3.25497007
   1.63899004  2.42300010  3.41752005
   1.45883000  1.00451005  1.35711002
   0.18262000  3.41603994  1.44825995
   4.28669024  0.92580998  1.38492000
   2.87144995  3.50714993  1.47516000
   1.65419996  0.47681001  8.14645958
   0.39897001  2.92969990  8.11781979
   4.53534985  0.48868999  8.08835030
   2.95761991  3.03850007  8.15725994
   0.32587999  1.43039000  6.11467981
  -1.16687000  3.83516002  6.15274000
   3.16398001  1.40683997  6.07743978
   1.60229003  3.77453995  6.01105022
   0.36116999  1.77760005 12.64770031
  -1.08820999  4.16344023 12.85869980
   2.96296000  1.70770001 12.73569965
   1.67130005  4.29196978 12.67049980
   0.33250001  0.14862999 10.75160027
   4.32065010  2.72021008 10.86060047
   3.02895999  0.19435000 10.74979973
   1.64517999  2.76212001 10.71409988
 


--------------------------------------------------------------------------------------------------------


 k-point  1 :   0.0833 0.0833 0.2500  plane waves:   12635
 k-point  2 :   0.2500 0.0833 0.2500  plane waves:   12667
 k-point  3 :   0.4167 0.0833 0.2500  plane waves:   12697
 k-point  4 :  -0.4167 0.0833 0.2500  plane waves:   12699
 k-point  5 :  -0.2500 0.0833 0.2500  plane waves:   12651
 k-point  6 :  -0.0833 0.0833 0.2500  plane waves:   12656
 k-point  7 :   0.0833 0.2500 0.2500  plane waves:   12681
 k-point  8 :   0.2500 0.2500 0.2500  plane waves:   12714
 k-point  9 :   0.4167 0.2500 0.2500  plane waves:   12701
 k-point 10 :  -0.4167 0.2500 0.2500  plane waves:   12700
 k-point 11 :  -0.2500 0.2500 0.2500  plane waves:   12669
 k-point 12 :  -0.0833 0.2500 0.2500  plane waves:   12656
 k-point 13 :   0.0833 0.4167 0.2500  plane waves:   12689
 k-point 14 :   0.2500 0.4167 0.2500  plane waves:   12708
 k-point 15 :   0.4167 0.4167 0.2500  plane waves:   12696
 k-point 16 :  -0.4167 0.4167 0.2500  plane waves:   12704
 k-point 17 :  -0.2500 0.4167 0.2500  plane waves:   12688
 k-point 18 :  -0.0833 0.4167 0.2500  plane waves:   12701
 k-point 19 :   0.0833-0.4167 0.2500  plane waves:   12683
 k-point 20 :   0.2500-0.4167 0.2500  plane waves:   12697
 k-point 21 :   0.4167-0.4167 0.2500  plane waves:   12690
 k-point 22 :  -0.4167-0.4167 0.2500  plane waves:   12691
 k-point 23 :  -0.2500-0.4167 0.2500  plane waves:   12692
 k-point 24 :  -0.0833-0.4167 0.2500  plane waves:   12688
 k-point 25 :   0.0833-0.2500 0.2500  plane waves:   12657
 k-point 26 :   0.2500-0.2500 0.2500  plane waves:   12666
 k-point 27 :   0.4167-0.2500 0.2500  plane waves:   12690
 k-point 28 :  -0.4167-0.2500 0.2500  plane waves:   12693
 k-point 29 :  -0.2500-0.2500 0.2500  plane waves:   12694
 k-point 30 :  -0.0833-0.2500 0.2500  plane waves:   12671
 k-point 31 :   0.0833-0.0833 0.2500  plane waves:   12666
 k-point 32 :   0.2500-0.0833 0.2500  plane waves:   12667
 k-point 33 :   0.4167-0.0833 0.2500  plane waves:   12677
 k-point 34 :  -0.4167-0.0833 0.2500  plane waves:   12696
 k-point 35 :  -0.2500-0.0833 0.2500  plane waves:   12687
 k-point 36 :  -0.0833-0.0833 0.2500  plane waves:   12663

 maximum and minimum number of plane-waves per node :      3217     3126

 maximum number of plane-waves:     12714
 maximum index in each direction: 
   IXMAX=   11   IYMAX=   11   IZMAX=   28
   IXMIN=  -11   IYMIN=  -11   IZMIN=  -28


 real space projection operators:
  total allocation   :       7792.23 KBytes
  max/ min on nodes  :       1951.40       1944.77


 parallel 3D FFT for wavefunctions:
    minimum data exchange during FFTs selected (reduces bandwidth)
 parallel 3D FFT for charge:
    minimum data exchange during FFTs selected (reduces bandwidth)


 total amount of memory used by VASP MPI-rank0   156701. kBytes
=======================================================================

   base      :      30000. kBytes
   nonlr-proj:       4463. kBytes
   fftplans  :       1686. kBytes
   grid      :       4644. kBytes
   one-center:        342. kBytes
   wavefun   :     115566. kBytes
 
     INWAV:  cpu time    0.0000: real time    0.0002
 Broyden mixing: mesh for mixing (old mesh)
   NGX = 23   NGY = 23   NGZ = 57
  (NGX  = 72   NGY  = 72   NGZ  =180)
  gives a total of  30153 points

 initial charge density was supplied:
 charge density of overlapping atoms calculated
 number of electron     258.0000000 magnetization       6.0000000
 keeping initial charge density in first step


--------------------------------------------------------------------------------------------------------


 Maximum index for non-local projection operator          714
 Maximum index for augmentation-charges         1009 (set IRDMAX)


--------------------------------------------------------------------------------------------------------


 First call to EWALD:  gamma=   0.245
 Maximum number of real-space cells 4x 4x 2
 Maximum number of reciprocal cells 2x 2x 5

    FEWALD:  cpu time    0.0069: real time    0.0069


--------------------------------------- Iteration      1(   1)  ---------------------------------------


    POTLOK:  cpu time    0.0768: real time    0.0908
    SETDIJ:  cpu time    0.0189: real time    0.0201
    TRIAL :  cpu time   22.7559: real time   22.9133
    CORREC:  cpu time    0.0041: real time    0.0041
    --------------------------------------------
      LOOP:  cpu time   23.0580: real time   23.2313

 eigenvalue-minimisations  : 23040
 total energy-change (2. order) : 0.3513571E+04  (-0.1402370E+05)
 number of electron     258.0000000 magnetization       6.0000000
 augmentation part      258.0000000 magnetization       6.0000000

 Free energy of the ion-electron system (eV)
  ---------------------------------------------------
  alpha Z        PSCENC =       771.31480105
  Ewald energy   TEWEN  =    -14133.53649142
  -Hartree energ DENC   =     -6965.57376501
  -exchange      EXHF   =         0.00000000
  -V(xc)+E(xc)   XCENC  =       845.54110209
  PAW double counting   =     17015.18481625   -17491.61297812
  entropy T*S    EENTRO =        -0.00711411
  eigenvalues    EBANDS =      3303.39009356
  atomic energy  EATOM  =     20168.87094289
  ---------------------------------------------------
  free energy    TOTEN  =      3513.57140717 eV

  energy without entropy =     3513.57852128  energy(sigma->0) =     3513.57496422


--------------------------------------------------------------------------------------------------------




--------------------------------------- Iteration      1(   2)  ---------------------------------------


    TRIAL :  cpu time   26.7381: real time   26.7617
    CORREC:  cpu time    0.0053: real time    0.0053
    --------------------------------------------
      LOOP:  cpu time   26.7438: real time   26.7674

 eigenvalue-minimisations  : 24800
 total energy-change (2. order) :-0.3103197E+04  (-0.2858772E+04)
 number of electron     258.0000000 magnetization       6.0000000
 augmentation part      258.0000000 magnetization       6.0000000

 Free energy of the ion-electron system (eV)
  ---------------------------------------------------
  alpha Z        PSCENC =       771.31480105
  Ewald energy   TEWEN  =    -14133.53649142
  -Hartree energ DENC   =     -6965.57376501
  -exchange      EXHF   =         0.00000000
  -V(xc)+E(xc)   XCENC  =       845.54110209
  PAW double counting   =     17015.18481625   -17491.61297812
  entropy T*S    EENTRO =        -0.02178763
  eigenvalues    EBANDS =       200.20806302
  atomic energy  EATOM  =     20168.87094289
  ---------------------------------------------------
  free energy    TOTEN  =       410.37470312 eV

  energy without entropy =      410.39649075  energy(sigma->0) =      410.38559693


--------------------------------------------------------------------------------------------------------




--------------------------------------- Iteration      1(   3)  ---------------------------------------


    TRIAL :  cpu time   24.7358: real time   24.7508
    CORREC:  cpu time    0.0046: real time    0.0046
    --------------------------------------------
      LOOP:  cpu time   24.7452: real time   24.7601

 eigenvalue-minimisations  : 25952
 total energy-change (2. order) :-0.6304118E+03  (-0.5755470E+03)
 number of electron     258.0000000 magnetization       6.0000000
 augmentation part      258.0000000 magnetization       6.0000000

 Free energy of the ion-electron system (eV)
  ---------------------------------------------------
  alpha Z        PSCENC =       771.31480105
  Ewald energy   TEWEN  =    -14133.53649142
  -Hartree energ DENC   =     -6965.57376501
  -exchange      EXHF   =         0.00000000
  -V(xc)+E(xc)   XCENC  =       845.54110209
  PAW double counting   =     17015.18481625   -17491.61297812
  entropy T*S    EENTRO =        -0.03707100
  eigenvalues    EBANDS =      -430.18842612
  atomic energy  EATOM  =     20168.87094289
  ---------------------------------------------------
  free energy    TOTEN  =      -220.03706940 eV

  energy without entropy =     -219.99999840  energy(sigma->0) =     -220.01853390


--------------------------------------------------------------------------------------------------------




--------------------------------------- Iteration      1(   4)  ---------------------------------------


    TRIAL :  cpu time   24.0573: real time   24.2819
    CORREC:  cpu time    0.0049: real time    0.0049
    --------------------------------------------
      LOOP:  cpu time   24.0669: real time   24.2915

 eigenvalue-minimisations  : 25296
 total energy-change (2. order) :-0.4986617E+02  (-0.4881266E+02)
 number of electron     258.0000000 magnetization       6.0000000
 augmentation part      258.0000000 magnetization       6.0000000

 Free energy of the ion-electron system (eV)
  ---------------------------------------------------
  alpha Z        PSCENC =       771.31480105
  Ewald energy   TEWEN  =    -14133.53649142
  -Hartree energ DENC   =     -6965.57376501
  -exchange      EXHF   =         0.00000000
  -V(xc)+E(xc)   XCENC  =       845.54110209
  PAW double counting   =     17015.18481625   -17491.61297812
  entropy T*S    EENTRO =        -0.04435085
  eigenvalues    EBANDS =      -480.04731628
  atomic energy  EATOM  =     20168.87094289
  ---------------------------------------------------
  free energy    TOTEN  =      -269.90323942 eV

  energy without entropy =     -269.85888856  energy(sigma->0) =     -269.88106399


--------------------------------------------------------------------------------------------------------




--------------------------------------- Iteration      1(   5)  ---------------------------------------


    TRIAL :  cpu time   26.2121: real time   26.2533
    CORREC:  cpu time    0.0051: real time    0.0051
    CHARGE:  cpu time    0.4828: real time    0.4829
    --------------------------------------------
      LOOP:  cpu time   26.7052: real time   26.7465

 eigenvalue-minimisations  : 28192
 total energy-change (2. order) :-0.1669302E+01  (-0.1666174E+01)
 number of electron     258.0000001 magnetization       6.0000000
 augmentation part       68.1851010 magnetization       4.3027645

 Free energy of the ion-electron system (eV)
  ---------------------------------------------------
  alpha Z        PSCENC =       771.31480105
  Ewald energy   TEWEN  =    -14133.53649142
  -Hartree energ DENC   =     -6965.57376501
  -exchange      EXHF   =         0.00000000
  -V(xc)+E(xc)   XCENC  =       845.54110209
  PAW double counting   =     17015.18481625   -17491.61297812
  entropy T*S    EENTRO =        -0.04428851
  eigenvalues    EBANDS =      -481.71668107
  atomic energy  EATOM  =     20168.87094289
  ---------------------------------------------------
  free energy    TOTEN  =      -271.57254186 eV

  energy without entropy =     -271.52825334  energy(sigma->0) =     -271.55039760


--------------------------------------------------------------------------------------------------------




--------------------------------------- Iteration      1(   6)  ---------------------------------------


    POTLOK:  cpu time    0.0479: real time    0.0479
    SETDIJ:  cpu time    0.0127: real time    0.0127
    TRIAL :  cpu time   13.2248: real time   13.2528
    CORREC:  cpu time    4.6259: real time    4.6309
    CHARGE:  cpu time    0.5050: real time    0.5049
    --------------------------------------------
      LOOP:  cpu time   18.4207: real time   18.4537

 eigenvalue-minimisations  :     0
 total energy-change (2. order) : 0.3705604E+03  (-0.2078957E+03)
 number of electron     257.9999997 magnetization       6.0000009
 augmentation part       70.5201053 magnetization       4.4276926

 Free energy of the ion-electron system (eV)
  ---------------------------------------------------
  alpha Z        PSCENC =       771.31480105
  Ewald energy   TEWEN  =    -14133.53649142
  -Hartree energ DENC   =     -6682.16158156
  -exchange      EXHF   =         0.00000000
  -V(xc)+E(xc)   XCENC  =       879.85269461
  PAW double counting   =     24251.02434235   -24463.15665008
  entropy T*S    EENTRO =        -0.03933927
  eigenvalues    EBANDS =      -693.17594886
  atomic energy  EATOM  =     20168.87094289
  ---------------------------------------------------
  free energy    TOTEN  =        98.98782048 eV

  energy without entropy =       99.02715976  energy(sigma->0) =       99.00749012


--------------------------------------------------------------------------------------------------------




--------------------------------------- Iteration      1(   7)  ---------------------------------------


    POTLOK:  cpu time    0.0474: real time    0.0474
    SETDIJ:  cpu time    0.0126: real time    0.0126
    TRIAL :  cpu time   13.0791: real time   13.2846
    CORREC:  cpu time    4.7371: real time    4.7428
    CHARGE:  cpu time    0.5419: real time    0.5427
    --------------------------------------------
      LOOP:  cpu time   18.4227: real time   18.6355

 eigenvalue-minimisations  :     0
 total energy-change (2. order) :-0.1081612E+03  (-0.2260014E+02)
 number of electron     257.9999999 magnetization       6.0000008
 augmentation part       71.0332580 magnetization       4.3620198

 Free energy of the ion-electron system (eV)
  ---------------------------------------------------
  alpha Z        PSCENC =       771.31480105
  Ewald energy   TEWEN  =    -14133.53649142
  -Hartree energ DENC   =     -6624.07822657
  -exchange      EXHF   =         0.00000000
  -V(xc)+E(xc)   XCENC  =       870.61442188
  PAW double counting   =     24194.64160528   -24498.06490797
  entropy T*S    EENTRO =        -0.04547519
  eigenvalues    EBANDS =      -758.89620988
  atomic energy  EATOM  =     20168.87094289
  ---------------------------------------------------
  free energy    TOTEN  =        -9.17340402 eV

  energy without entropy =       -9.12792883  energy(sigma->0) =       -9.15066642


--------------------------------------------------------------------------------------------------------




--------------------------------------- Iteration      1(   8)  ---------------------------------------


    POTLOK:  cpu time    0.0462: real time    0.0479
    SETDIJ:  cpu time    0.0123: real time    0.0128
    TRIAL :  cpu time   13.0527: real time   13.0780
    CORREC:  cpu time    4.5653: real time    4.5713
    CHARGE:  cpu time    0.4982: real time    0.4986
    --------------------------------------------
      LOOP:  cpu time   18.1753: real time   18.2135

 eigenvalue-minimisations  :     0
 total energy-change (2. order) :-0.7240225E+02  (-0.5440002E+02)
 number of electron     258.0000006 magnetization       6.0000003
 augmentation part       72.0261271 magnetization       4.3422341

 Free energy of the ion-electron system (eV)
  ---------------------------------------------------
  alpha Z        PSCENC =       771.31480105
  Ewald energy   TEWEN  =    -14133.53649142
  -Hartree energ DENC   =     -6610.60626103
  -exchange      EXHF   =         0.00000000
  -V(xc)+E(xc)   XCENC  =       867.34724964
  PAW double counting   =     24099.74990925   -24421.22784198
  entropy T*S    EENTRO =        -0.03974993
  eigenvalues    EBANDS =      -823.44248593
  atomic energy  EATOM  =     20168.87094289
  ---------------------------------------------------
  free energy    TOTEN  =       -81.57565272 eV

  energy without entropy =      -81.53590279  energy(sigma->0) =      -81.55577775


--------------------------------------------------------------------------------------------------------




--------------------------------------- Iteration      1(   9)  ---------------------------------------


    POTLOK:  cpu time    0.0463: real time    0.0463
    SETDIJ:  cpu time    0.0127: real time    0.0127
    TRIAL :  cpu time   12.9109: real time   12.9248
    CORREC:  cpu time    4.7534: real time    4.7729
    CHARGE:  cpu time    0.4959: real time    0.4958
    --------------------------------------------
      LOOP:  cpu time   18.2233: real time   18.2567

 eigenvalue-minimisations  :     0
 total energy-change (2. order) :-0.2666119E+02  (-0.1255163E+03)
 number of electron     258.0000002 magnetization       6.0000010
 augmentation part       72.8291274 magnetization       4.4082526

 Free energy of the ion-electron system (eV)
  ---------------------------------------------------
  alpha Z        PSCENC =       771.31480105
  Ewald energy   TEWEN  =    -14133.53649142
  -Hartree energ DENC   =     -6706.07464669
  -exchange      EXHF   =         0.00000000
  -V(xc)+E(xc)   XCENC  =       864.89755455
  PAW double counting   =     24201.48457044   -24562.14994872
  entropy T*S    EENTRO =        -0.04328646
  eigenvalues    EBANDS =      -713.00387483
  atomic energy  EATOM  =     20168.87094289
  ---------------------------------------------------
  free energy    TOTEN  =      -108.23684267 eV

  energy without entropy =     -108.19355621  energy(sigma->0) =     -108.21519944


--------------------------------------------------------------------------------------------------------




--------------------------------------- Iteration      1(  10)  ---------------------------------------


    POTLOK:  cpu time    0.0471: real time    0.0475
    SETDIJ:  cpu time    0.0129: real time    0.0129
    TRIAL :  cpu time   12.6225: real time   12.7690
    CORREC:  cpu time    4.4009: real time    4.5754
    CHARGE:  cpu time    0.4901: real time    0.4900
    --------------------------------------------
      LOOP:  cpu time   17.5779: real time   17.8992

 eigenvalue-minimisations  :     0
 total energy-change (2. order) :-0.4781718E+01  (-0.1144466E+03)
 number of electron     258.0000018 magnetization       6.0000000
 augmentation part       75.5747638 magnetization       4.2767343

 Free energy of the ion-electron system (eV)
  ---------------------------------------------------
  alpha Z        PSCENC =       771.31480105
  Ewald energy   TEWEN  =    -14133.53649142
  -Hartree energ DENC   =     -6681.04452879
  -exchange      EXHF   =         0.00000000
  -V(xc)+E(xc)   XCENC  =       862.23664038
  PAW double counting   =     24335.60794007   -24733.20419967
  entropy T*S    EENTRO =        -0.02485097
  eigenvalues    EBANDS =      -703.22037895
  atomic energy  EATOM  =     20168.87094289
  ---------------------------------------------------
  free energy    TOTEN  =      -113.01856089 eV

  energy without entropy =     -112.99370992  energy(sigma->0) =     -113.00613541


--------------------------------------------------------------------------------------------------------




--------------------------------------- Iteration      1(  11)  ---------------------------------------


    POTLOK:  cpu time    0.0469: real time    0.0469
    SETDIJ:  cpu time    0.0129: real time    0.0129
    TRIAL :  cpu time   12.9073: real time   12.9212
    CORREC:  cpu time    4.5523: real time    4.5645
    CHARGE:  cpu time    0.4912: real time    0.4937
    --------------------------------------------
      LOOP:  cpu time   18.0149: real time   18.0434

 eigenvalue-minimisations  :     0
 total energy-change (2. order) :-0.5726943E+02  (-0.6992871E+02)
 number of electron     258.0000018 magnetization       6.0000005
 augmentation part       77.7002674 magnetization       4.1116600

 Free energy of the ion-electron system (eV)
  ---------------------------------------------------
  alpha Z        PSCENC =       771.31480105
  Ewald energy   TEWEN  =    -14133.53649142
  -Hartree energ DENC   =     -6878.14768399
  -exchange      EXHF   =         0.00000000
  -V(xc)+E(xc)   XCENC  =       855.56449300
  PAW double counting   =     24840.89427563   -25353.86053717
  entropy T*S    EENTRO =        -0.02661281
  eigenvalues    EBANDS =      -441.36293804
  atomic energy  EATOM  =     20168.87094289
  ---------------------------------------------------
  free energy    TOTEN  =      -170.28798902 eV

  energy without entropy =     -170.26137621  energy(sigma->0) =     -170.27468262


--------------------------------------------------------------------------------------------------------




--------------------------------------- Iteration      1(  12)  ---------------------------------------


    POTLOK:  cpu time    0.0469: real time    0.0469
    SETDIJ:  cpu time    0.0127: real time    0.0127
    TRIAL :  cpu time   12.8014: real time   13.0304
    CORREC:  cpu time    4.5336: real time    4.5399
    CHARGE:  cpu time    0.4910: real time    0.4940
    --------------------------------------------
      LOOP:  cpu time   17.8898: real time   18.1281

 eigenvalue-minimisations  :     0
 total energy-change (2. order) :-0.1966635E+02  (-0.1629743E+02)
 number of electron     258.0000019 magnetization       6.0000003
 augmentation part       77.0869231 magnetization       4.0878419

 Free energy of the ion-electron system (eV)
  ---------------------------------------------------
  alpha Z        PSCENC =       771.31480105
  Ewald energy   TEWEN  =    -14133.53649142
  -Hartree energ DENC   =     -6972.20505284
  -exchange      EXHF   =         0.00000000
  -V(xc)+E(xc)   XCENC  =       851.23747569
  PAW double counting   =     25305.57071355   -25909.28549087
  entropy T*S    EENTRO =        -0.02362805
  eigenvalues    EBANDS =      -271.89462062
  atomic energy  EATOM  =     20168.87094289
  ---------------------------------------------------
  free energy    TOTEN  =      -189.95433538 eV

  energy without entropy =     -189.93070732  energy(sigma->0) =     -189.94252135


--------------------------------------------------------------------------------------------------------




--------------------------------------- Iteration      1(  13)  ---------------------------------------


    POTLOK:  cpu time    0.0472: real time    0.0477
    SETDIJ:  cpu time    0.0126: real time    0.0126
    TRIAL :  cpu time   12.8179: real time   12.8413
    CORREC:  cpu time    4.4977: real time    4.5022
    CHARGE:  cpu time    0.4859: real time    0.4859
    --------------------------------------------
      LOOP:  cpu time   17.8656: real time   17.8938

 eigenvalue-minimisations  :     0
 total energy-change (2. order) :-0.6968928E+01  (-0.2103494E+02)
 number of electron     258.0000014 magnetization       6.0000005
 augmentation part       75.2199454 magnetization       4.1180802

 Free energy of the ion-electron system (eV)
  ---------------------------------------------------
  alpha Z        PSCENC =       771.31480105
  Ewald energy   TEWEN  =    -14133.53649142
  -Hartree energ DENC   =     -6964.84595820
  -exchange      EXHF   =         0.00000000
  -V(xc)+E(xc)   XCENC  =       851.50398976
  PAW double counting   =     25039.91201818   -25610.26110800
  entropy T*S    EENTRO =        -0.02575507
  eigenvalues    EBANDS =      -319.85782916
  atomic energy  EATOM  =     20168.87094289
  ---------------------------------------------------
  free energy    TOTEN  =      -196.92326296 eV

  energy without entropy =     -196.89750789  energy(sigma->0) =     -196.91038543


--------------------------------------------------------------------------------------------------------




--------------------------------------- Iteration      1(  14)  ---------------------------------------


    POTLOK:  cpu time    0.0459: real time    0.0459
    SETDIJ:  cpu time    0.0126: real time    0.0126
    TRIAL :  cpu time   12.8875: real time   12.9071
    CORREC:  cpu time    4.5143: real time    4.6508
    CHARGE:  cpu time    0.4895: real time    0.4914
    --------------------------------------------
      LOOP:  cpu time   17.9541: real time   18.1121

 eigenvalue-minimisations  :     0
 total energy-change (2. order) :-0.1833895E+02  (-0.1782817E+01)
 number of electron     258.0000015 magnetization       6.0000004
 augmentation part       75.2192404 magnetization       4.0926042

 Free energy of the ion-electron system (eV)
  ---------------------------------------------------
  alpha Z        PSCENC =       771.31480105
  Ewald energy   TEWEN  =    -14133.53649142
  -Hartree energ DENC   =     -6855.98325828
  -exchange      EXHF   =         0.00000000
  -V(xc)+E(xc)   XCENC  =       852.51510975
  PAW double counting   =     24514.63127193   -24993.03159135
  entropy T*S    EENTRO =        -0.02285820
  eigenvalues    EBANDS =      -540.01724649
  atomic energy  EATOM  =     20168.87094289
  ---------------------------------------------------
  free energy    TOTEN  =      -215.26221698 eV

  energy without entropy =     -215.23935878  energy(sigma->0) =     -215.25078788


--------------------------------------------------------------------------------------------------------




--------------------------------------- Iteration      1(  15)  ---------------------------------------


    POTLOK:  cpu time    0.0511: real time    0.0511
    SETDIJ:  cpu time    0.0128: real time    0.0128
    TRIAL :  cpu time   12.6792: real time   12.7045
    CORREC:  cpu time    4.4448: real time    4.6858
    CHARGE:  cpu time    0.4934: real time    0.4933
    --------------------------------------------
      LOOP:  cpu time   17.6854: real time   17.9516

 eigenvalue-minimisations  :     0
 total energy-change (2. order) :-0.9834880E+00  (-0.1530927E+01)
 number of electron     258.0000015 magnetization       6.0000004
 augmentation part       75.3913290 magnetization       4.0423588

 Free energy of the ion-electron system (eV)
  ---------------------------------------------------
  alpha Z        PSCENC =       771.31480105
  Ewald energy   TEWEN  =    -14133.53649142
  -Hartree energ DENC   =     -6872.03601972
  -exchange      EXHF   =         0.00000000
  -V(xc)+E(xc)   XCENC  =       852.85357843
  PAW double counting   =     24474.11785472   -24947.73636995
  entropy T*S    EENTRO =        -0.01982652
  eigenvalues    EBANDS =      -530.07114274
  atomic energy  EATOM  =     20168.87094289
  ---------------------------------------------------
  free energy    TOTEN  =      -216.24570494 eV

  energy without entropy =     -216.22587842  energy(sigma->0) =     -216.23579168


--------------------------------------------------------------------------------------------------------




--------------------------------------- Iteration      1(  16)  ---------------------------------------


    POTLOK:  cpu time    0.0463: real time    0.0462
    SETDIJ:  cpu time    0.0128: real time    0.0128
    TRIAL :  cpu time   12.9517: real time   12.9819
    CORREC:  cpu time    4.9359: real time    4.9404
    CHARGE:  cpu time    0.4979: real time    0.4981
    --------------------------------------------
      LOOP:  cpu time   18.4487: real time   18.4836

 eigenvalue-minimisations  :     0
 total energy-change (2. order) :-0.1367891E+01  (-0.9622475E+00)
 number of electron     258.0000016 magnetization       6.0000004
 augmentation part       75.6183082 magnetization       3.9908181

 Free energy of the ion-electron system (eV)
  ---------------------------------------------------
  alpha Z        PSCENC =       771.31480105
  Ewald energy   TEWEN  =    -14133.53649142
  -Hartree energ DENC   =     -6884.62613548
  -exchange      EXHF   =         0.00000000
  -V(xc)+E(xc)   XCENC  =       853.42118567
  PAW double counting   =     24417.52735705   -24888.56848853
  entropy T*S    EENTRO =        -0.01969517
  eigenvalues    EBANDS =      -521.99694081
  atomic energy  EATOM  =     20168.87094289
  ---------------------------------------------------
  free energy    TOTEN  =      -217.61359610 eV

  energy without entropy =     -217.59390093  energy(sigma->0) =     -217.60374852


--------------------------------------------------------------------------------------------------------




--------------------------------------- Iteration      1(  17)  ---------------------------------------


    POTLOK:  cpu time    0.0476: real time    0.0476
    SETDIJ:  cpu time    0.0128: real time    0.0128
    TRIAL :  cpu time   12.7606: real time   12.8682
    CORREC:  cpu time    4.5458: real time    4.5556
    CHARGE:  cpu time    0.4916: real time    0.4923
    --------------------------------------------
      LOOP:  cpu time   17.8628: real time   17.9809

 eigenvalue-minimisations  :     0
 total energy-change (2. order) :-0.8115983E+00  (-0.9304358E+00)
 number of electron     258.0000015 magnetization       6.0000004
 augmentation part       75.8974824 magnetization       3.9308087

 Free energy of the ion-electron system (eV)
  ---------------------------------------------------
  alpha Z        PSCENC =       771.31480105
  Ewald energy   TEWEN  =    -14133.53649142
  -Hartree energ DENC   =     -6904.87461323
  -exchange      EXHF   =         0.00000000
  -V(xc)+E(xc)   XCENC  =       853.89281836
  PAW double counting   =     24382.61268879   -24854.37159799
  entropy T*S    EENTRO =        -0.01822464
  eigenvalues    EBANDS =      -502.31404774
  atomic energy  EATOM  =     20168.87094289
  ---------------------------------------------------
  free energy    TOTEN  =      -218.42519445 eV

  energy without entropy =     -218.40696981  energy(sigma->0) =     -218.41608213


--------------------------------------------------------------------------------------------------------




--------------------------------------- Iteration      1(  18)  ---------------------------------------


    POTLOK:  cpu time    0.0474: real time    0.0474
    SETDIJ:  cpu time    0.0128: real time    0.0128
    TRIAL :  cpu time   12.9432: real time   12.9888
    CORREC:  cpu time    4.4635: real time    4.5469
    CHARGE:  cpu time    0.4801: real time    0.4931
    --------------------------------------------
      LOOP:  cpu time   17.9513: real time   18.0933

 eigenvalue-minimisations  :     0
 total energy-change (2. order) :-0.8899761E+00  (-0.5041096E+00)
 number of electron     258.0000015 magnetization       6.0000004
 augmentation part       75.9762629 magnetization       3.9029673

 Free energy of the ion-electron system (eV)
  ---------------------------------------------------
  alpha Z        PSCENC =       771.31480105
  Ewald energy   TEWEN  =    -14133.53649142
  -Hartree energ DENC   =     -6926.47149874
  -exchange      EXHF   =         0.00000000
  -V(xc)+E(xc)   XCENC  =       854.45837506
  PAW double counting   =     24341.50839331   -24813.91610640
  entropy T*S    EENTRO =        -0.01681489
  eigenvalues    EBANDS =      -481.52536167
  atomic energy  EATOM  =     20168.87094289
  ---------------------------------------------------
  free energy    TOTEN  =      -219.31517055 eV

  energy without entropy =     -219.29835566  energy(sigma->0) =     -219.30676311


--------------------------------------------------------------------------------------------------------




--------------------------------------- Iteration      1(  19)  ---------------------------------------


    POTLOK:  cpu time    0.0468: real time    0.0478
    SETDIJ:  cpu time    0.0128: real time    0.0130
    TRIAL :  cpu time   12.9907: real time   13.0279
    CORREC:  cpu time    4.6983: real time    4.7113
    CHARGE:  cpu time    0.4967: real time    0.4967
    --------------------------------------------
      LOOP:  cpu time   18.2459: real time   18.3014

 eigenvalue-minimisations  :     0
 total energy-change (2. order) :-0.4966555E+00  (-0.1547101E+00)
 number of electron     258.0000015 magnetization       6.0000004
 augmentation part       75.9686875 magnetization       3.9041687

 Free energy of the ion-electron system (eV)
  ---------------------------------------------------
  alpha Z        PSCENC =       771.31480105
  Ewald energy   TEWEN  =    -14133.53649142
  -Hartree energ DENC   =     -6927.72300484
  -exchange      EXHF   =         0.00000000
  -V(xc)+E(xc)   XCENC  =       854.72101949
  PAW double counting   =     24297.05138022   -24765.44376361
  entropy T*S    EENTRO =        -0.01485182
  eigenvalues    EBANDS =      -485.04989493
  atomic energy  EATOM  =     20168.87094289
  ---------------------------------------------------
  free energy    TOTEN  =      -219.81182604 eV

  energy without entropy =     -219.79697422  energy(sigma->0) =     -219.80440013


--------------------------------------------------------------------------------------------------------




--------------------------------------- Iteration      1(  20)  ---------------------------------------


    POTLOK:  cpu time    0.0462: real time    0.0462
    SETDIJ:  cpu time    0.0128: real time    0.0128
    TRIAL :  cpu time   13.0506: real time   13.0944
    CORREC:  cpu time    4.5207: real time    4.5286
    CHARGE:  cpu time    0.4985: real time    0.4984
    --------------------------------------------
      LOOP:  cpu time   18.1331: real time   18.1847

 eigenvalue-minimisations  :     0
 total energy-change (2. order) :-0.1378544E+00  (-0.1966588E+00)
 number of electron     258.0000015 magnetization       6.0000004
 augmentation part       75.9726513 magnetization       3.9135706

 Free energy of the ion-electron system (eV)
  ---------------------------------------------------
  alpha Z        PSCENC =       771.31480105
  Ewald energy   TEWEN  =    -14133.53649142
  -Hartree energ DENC   =     -6927.92648782
  -exchange      EXHF   =         0.00000000
  -V(xc)+E(xc)   XCENC  =       854.78327028
  PAW double counting   =     24280.64959265   -24746.27922104
  entropy T*S    EENTRO =        -0.01375281
  eigenvalues    EBANDS =      -487.81123520
  atomic energy  EATOM  =     20168.87094289
  ---------------------------------------------------
  free energy    TOTEN  =      -219.94968042 eV

  energy without entropy =     -219.93592762  energy(sigma->0) =     -219.94280402


--------------------------------------------------------------------------------------------------------




--------------------------------------- Iteration      1(  21)  ---------------------------------------


    POTLOK:  cpu time    0.0470: real time    0.0469
    SETDIJ:  cpu time    0.0129: real time    0.0129
    TRIAL :  cpu time   12.8393: real time   12.8619
    CORREC:  cpu time    4.6090: real time    4.6136
    CHARGE:  cpu time    0.4924: real time    0.4925
    --------------------------------------------
      LOOP:  cpu time   18.0046: real time   18.0320

 eigenvalue-minimisations  :     0
 total energy-change (2. order) :-0.1955223E+00  (-0.1646771E+00)
 number of electron     258.0000015 magnetization       6.0000004
 augmentation part       76.0297739 magnetization       3.9407684

 Free energy of the ion-electron system (eV)
  ---------------------------------------------------
  alpha Z        PSCENC =       771.31480105
  Ewald energy   TEWEN  =    -14133.53649142
  -Hartree energ DENC   =     -6926.82292518
  -exchange      EXHF   =         0.00000000
  -V(xc)+E(xc)   XCENC  =       854.82568095
  PAW double counting   =     24264.22072198   -24726.67370666
  entropy T*S    EENTRO =        -0.01140239
  eigenvalues    EBANDS =      -492.33047355
  atomic energy  EATOM  =     20168.87094289
  ---------------------------------------------------
  free energy    TOTEN  =      -220.14520275 eV

  energy without entropy =     -220.13380035  energy(sigma->0) =     -220.13950155


--------------------------------------------------------------------------------------------------------




--------------------------------------- Iteration      1(  22)  ---------------------------------------


    POTLOK:  cpu time    0.0459: real time    0.0459
    SETDIJ:  cpu time    0.0125: real time    0.0125
    TRIAL :  cpu time   12.9732: real time   13.0113
    CORREC:  cpu time    4.5496: real time    4.5546
    CHARGE:  cpu time    0.4948: real time    0.4948
    --------------------------------------------
      LOOP:  cpu time   18.0803: real time   18.1234

 eigenvalue-minimisations  :     0
 total energy-change (2. order) :-0.1582326E+00  (-0.1649917E+00)
 number of electron     258.0000016 magnetization       6.0000004
 augmentation part       76.1119096 magnetization       3.9914707

 Free energy of the ion-electron system (eV)
  ---------------------------------------------------
  alpha Z        PSCENC =       771.31480105
  Ewald energy   TEWEN  =    -14133.53649142
  -Hartree energ DENC   =     -6927.24735937
  -exchange      EXHF   =         0.00000000
  -V(xc)+E(xc)   XCENC  =       854.88688376
  PAW double counting   =     24263.71152156   -24726.43853434
  entropy T*S    EENTRO =        -0.01040979
  eigenvalues    EBANDS =      -491.85379705
  atomic energy  EATOM  =     20168.87094289
  ---------------------------------------------------
  free energy    TOTEN  =      -220.30343531 eV

  energy without entropy =     -220.29302552  energy(sigma->0) =     -220.29823041


--------------------------------------------------------------------------------------------------------




--------------------------------------- Iteration      1(  23)  ---------------------------------------


    POTLOK:  cpu time    0.0470: real time    0.0470
    SETDIJ:  cpu time    0.0135: real time    0.0135
    TRIAL :  cpu time   12.8193: real time   12.8655
    CORREC:  cpu time    4.5305: real time    4.5373
    CHARGE:  cpu time    0.4919: real time    0.4918
    --------------------------------------------
      LOOP:  cpu time   17.9064: real time   17.9599

 eigenvalue-minimisations  :     0
 total energy-change (2. order) :-0.1651059E+00  (-0.2551020E+00)
 number of electron     258.0000015 magnetization       6.0000004
 augmentation part       76.1051743 magnetization       4.1418918

 Free energy of the ion-electron system (eV)
  ---------------------------------------------------
  alpha Z        PSCENC =       771.31480105
  Ewald energy   TEWEN  =    -14133.53649142
  -Hartree energ DENC   =     -6932.33440755
  -exchange      EXHF   =         0.00000000
  -V(xc)+E(xc)   XCENC  =       854.98685367
  PAW double counting   =     24268.36578554   -24733.32121432
  entropy T*S    EENTRO =        -0.00616607
  eigenvalues    EBANDS =      -484.80440124
  atomic energy  EATOM  =     20168.87094289
  ---------------------------------------------------
  free energy    TOTEN  =      -220.46854118 eV

  energy without entropy =     -220.46237511  energy(sigma->0) =     -220.46545814


--------------------------------------------------------------------------------------------------------




--------------------------------------- Iteration      1(  24)  ---------------------------------------


    POTLOK:  cpu time    0.0468: real time    0.0468
    SETDIJ:  cpu time    0.0128: real time    0.0128
    TRIAL :  cpu time   12.7915: real time   12.8016
    CORREC:  cpu time    4.7449: real time    4.7494
    CHARGE:  cpu time    0.4922: real time    0.4921
    --------------------------------------------
      LOOP:  cpu time   18.0924: real time   18.1071

 eigenvalue-minimisations  :     0
 total energy-change (2. order) :-0.2821574E+00  (-0.2630831E+00)
 number of electron     258.0000015 magnetization       6.0000005
 augmentation part       75.9801973 magnetization       4.2987196

 Free energy of the ion-electron system (eV)
  ---------------------------------------------------
  alpha Z        PSCENC =       771.31480105
  Ewald energy   TEWEN  =    -14133.53649142
  -Hartree energ DENC   =     -6927.85560307
  -exchange      EXHF   =         0.00000000
  -V(xc)+E(xc)   XCENC  =       855.13288027
  PAW double counting   =     24248.62861385   -24714.24697301
  entropy T*S    EENTRO =        -0.00587303
  eigenvalues    EBANDS =      -489.05270303
  atomic energy  EATOM  =     20168.87094289
  ---------------------------------------------------
  free energy    TOTEN  =      -220.75069854 eV

  energy without entropy =     -220.74482551  energy(sigma->0) =     -220.74776203


--------------------------------------------------------------------------------------------------------




--------------------------------------- Iteration      1(  25)  ---------------------------------------


    POTLOK:  cpu time    0.0462: real time    0.0462
    SETDIJ:  cpu time    0.0128: real time    0.0128
    TRIAL :  cpu time   12.9781: real time   12.9785
    CORREC:  cpu time    4.5612: real time    4.5613
    CHARGE:  cpu time    0.4925: real time    0.4925
    --------------------------------------------
      LOOP:  cpu time   18.0950: real time   18.0961

 eigenvalue-minimisations  :     0
 total energy-change (2. order) :-0.2626545E+00  (-0.1526953E+00)
[...]
   20        1.574   3.394   0.000   4.969
   21        1.581   3.462   0.000   5.043
   22        1.577   3.433   0.000   5.010
   23        1.578   3.415   0.000   4.993
   24        1.577   3.381   0.000   4.957
   25        1.586   3.328   0.000   4.914
   26        1.584   3.371   0.000   4.954
   27        1.563   3.438   0.000   5.002
   28        1.553   3.528   0.000   5.082
   29        1.561   3.453   0.000   5.014
   30        1.566   3.469   0.000   5.036
   31        1.570   3.408   0.000   4.979
   32        1.577   3.468   0.000   5.045
   33        1.560   3.429   0.000   4.989
   34        1.560   3.482   0.000   5.042
   35        1.579   3.387   0.000   4.966
   36        1.577   3.357   0.000   4.934
   37        1.576   3.401   0.000   4.977
   38        1.568   3.468   0.000   5.037
   39        1.565   3.456   0.000   5.022
   40        1.565   3.493   0.000   5.058
   41        1.569   3.443   0.000   5.012
   42        1.569   3.444   0.000   5.014
--------------------------------------------------
tot         43.863  92.595  88.093 224.551
 


 magnetization (x)
 
# of ion       s       p       d       tot
------------------------------------------
    1        0.000  -0.002   0.000  -0.002
    2        0.000   0.000   0.000   0.001
    3        0.001  -0.001   0.000  -0.001
    4       -0.000  -0.001   0.000  -0.002
    5        0.001   0.001   0.000   0.002
    6        0.001  -0.001   0.000  -0.000
    7        0.013   0.016   1.514   1.543
    8        0.005   0.008  -0.016  -0.003
    9        0.013   0.019   1.311   1.343
   10        0.013   0.021   1.255   1.289
   11        0.008   0.010   1.166   1.184
   12        0.005   0.003   0.027   0.036
   13        0.000   0.000  -0.015  -0.014
   14        0.000   0.001  -0.007  -0.006
   15        0.011   0.010   1.340   1.361
   16        0.004   0.007  -0.076  -0.066
   17        0.005   0.006  -0.043  -0.031
   18        0.009   0.012   1.240   1.262
   19        0.001  -0.092   0.000  -0.091
   20        0.001  -0.113   0.000  -0.112
   21        0.002  -0.011   0.000  -0.009
   22        0.002  -0.099   0.000  -0.096
   23        0.001  -0.075   0.000  -0.074
   24        0.001  -0.166   0.000  -0.165
   25        0.001  -0.219   0.000  -0.218
   26        0.002  -0.092   0.000  -0.090
   27       -0.000  -0.071   0.000  -0.071
   28       -0.000  -0.005   0.000  -0.006
   29        0.000  -0.018   0.000  -0.018
   30        0.001  -0.014   0.000  -0.013
   31       -0.000  -0.063   0.000  -0.063
   32        0.001   0.006   0.000   0.006
   33       -0.000  -0.006   0.000  -0.006
   34       -0.000  -0.042   0.000  -0.042
   35       -0.000  -0.085   0.000  -0.085
   36       -0.000  -0.168   0.000  -0.169
   37        0.000  -0.111   0.000  -0.111
   38        0.000  -0.006   0.000  -0.006
   39        0.000  -0.065   0.000  -0.065
   40        0.000  -0.023   0.000  -0.022
   41        0.000  -0.028   0.000  -0.027
   42        0.000  -0.106   0.000  -0.105
--------------------------------------------------
tot          0.103  -1.561   7.696   6.237
 
    FORLOC:  cpu time    0.0082: real time    0.0082
    FORNL :  cpu time    4.5296: real time    4.5298
    STRESS:  cpu time   13.0302: real time   13.0307
    FORCOR:  cpu time    0.0505: real time    0.0505
    OFIELD:  cpu time    0.0003: real time    0.0003

  DFT-D2 method for vdW energy calculation
  -------------------------------------------------------------------

  Parameters of vdW forcefield:
         C6(Jnm^6/mol)     R0(A)
   -----------------------------
   Li       1.610          0.825
   Co      10.800          1.562
   O        0.700          1.342

  IVDW =   1
  VDW_RADIUS =    50.000 A
  VDW_S6 =     0.750
  VDW_SR =     1.000
  VDW_D =    20.000
  LVDW_EWALD = F

  Number of pair interactions contributing to vdW energy: 1244320
  Edisp (eV):   -9.83151
    FORVDW:  cpu time    0.1812: real time    0.1823

  FORCE on cell =-STRESS in cart. coord.  units (eV):
  Direction    XX          YY          ZZ          XY          YZ          ZX
  --------------------------------------------------------------------------------------
  Alpha Z   771.31480   771.31480   771.31480
  Ewald   -1548.71282 -2003.06196-10581.83087  -159.66705   178.25496  -152.56873
  Hartree  4582.74415  4387.35553 -2049.86229   -50.10429    79.41162   -49.73819
  E(xc)   -1288.01170 -1288.62132 -1289.98670    -0.48297    -0.01119    -0.22025
  Local   -7989.28251 -7375.64879  7609.89826   179.12673  -252.73540   183.10899
  n-local  -578.92963  -594.55155  -595.31427    -8.62999     6.63400    -7.14732
  augment  2007.52761  2026.88812  2005.04091    17.81629    -1.91610     9.89995
  Kinetic  4070.38671  4093.93235  4151.43014    16.72887     2.62250     6.70887
  Fock        0.00000     0.00000     0.00000     0.00000     0.00000     0.00000
  vdW        -7.20783    -7.12251   -14.44084    -0.09369    -0.37960    -0.17302
  -------------------------------------------------------------------------------------
  Total      19.82877    10.48468     6.24914    -5.30610    11.88078   -10.12971
  in kB      83.58402    44.19598    26.34194   -22.36676    50.08094   -42.69966
  external pressure =       51.37 kB  Pullay stress =        0.00 kB


 VOLUME and BASIS-vectors are now :
 -----------------------------------------------------------------------------
  energy-cutoff  :      600.00
  volume of cell :      380.09
      direct lattice vectors                 reciprocal lattice vectors
     5.562533855  0.000000000  0.000000000     0.179774187  0.102758697 -0.006619611
    -2.759116411  4.827016354  0.000000000     0.000000000  0.207167311 -0.001100937
     0.478239238  0.075226821 14.155708313     0.000000000  0.000000000  0.070642880

  length of vectors
     5.562533855  5.559928979 14.163984245     0.207176078  0.207170237  0.070642880


 FORCES acting on ions:
    Electron-Ion                     Ewald-Force                    Non-Local-Force
 -----------------------------------------------------------------------------------------------
   -.185E+01 -.109E+01 -.638E+01   0.192E+01 0.731E+00 0.599E+01   -.458E-01 0.487E+00 0.261E+00
   0.566E+01 -.593E+01 0.233E+02   -.534E+01 0.635E+01 -.227E+02   -.104E+01 0.736E+00 -.107E+01
   -.980E+01 0.140E+01 0.198E+01   0.929E+01 -.194E+01 -.156E+01   0.165E+01 0.372E-01 0.343E+00
   0.459E+01 -.415E+01 -.155E+02   -.430E+01 0.360E+01 0.148E+02   -.315E+00 0.497E+00 0.817E+00
   -.324E+01 -.560E+00 -.105E+02   0.290E+01 0.439E+00 0.108E+02   0.374E+00 0.837E+00 -.276E+00
   0.167E+01 -.661E+01 -.124E+02   -.156E+01 0.630E+01 0.122E+02   -.145E+00 0.901E+00 0.288E+00
   0.277E+02 -.254E+02 0.647E+02   -.290E+02 0.267E+02 -.653E+02   0.225E+00 -.400E+00 0.317E+00
   -.146E+02 0.387E+02 0.582E+02   0.148E+02 -.405E+02 -.580E+02   0.596E+00 0.624E+00 0.115E+01
   -.420E+02 -.310E+02 0.134E+03   0.442E+02 0.314E+02 -.135E+03   0.528E+00 -.371E+00 0.192E+00
   -.231E+02 0.422E+02 -.158E+02   0.259E+02 -.442E+02 0.113E+02   0.563E+00 -.607E-01 0.382E+00
   0.570E+02 -.624E+02 0.684E+02   -.602E+02 0.665E+02 -.666E+02   -.971E+00 -.627E+00 -.516E+00
   -.137E+01 0.745E+02 -.210E+02   0.188E+01 -.794E+02 0.190E+02   0.376E-02 0.336E+00 0.155E+01
   0.177E+02 -.663E+02 0.345E+02   -.179E+02 0.693E+02 -.350E+02   -.119E+01 -.331E+00 0.726E+00
   -.324E+02 0.655E+02 0.569E+02   0.324E+02 -.674E+02 -.583E+02   0.427E+00 0.154E+00 0.142E+01
   0.175E+02 -.824E+01 -.338E+02   -.181E+02 0.824E+01 0.354E+02   -.292E+00 -.285E+00 -.994E-02
   0.263E+02 0.130E+02 -.102E+03   -.270E+02 -.127E+02 0.103E+03   -.644E+00 0.901E+00 -.403E-01
   -.300E+02 -.327E+02 -.692E+02   0.305E+02 0.330E+02 0.697E+02   0.308E+00 -.226E+00 -.172E+01
   0.156E+02 0.247E+02 -.185E+03   -.160E+02 -.249E+02 0.186E+03   -.498E+00 -.530E+00 -.949E+00
   -.182E+02 -.565E+01 -.285E+03   0.243E+02 0.800E+01 0.303E+03   -.696E+01 -.203E+01 -.189E+02
   0.790E+01 -.242E+02 -.271E+03   -.887E+01 0.269E+02 0.292E+03   -.555E+00 -.179E+01 -.208E+02
   0.498E+02 -.114E+02 -.298E+03   -.600E+02 0.156E+02 0.322E+03   0.700E+01 -.325E+01 -.220E+02
   0.242E+02 -.610E+01 -.288E+03   -.300E+02 0.325E+01 0.310E+03   0.444E+01 0.415E+01 -.217E+02
   -.304E+01 -.195E+01 0.378E+03   0.190E+01 0.234E+01 -.404E+03   0.224E+01 -.974E+00 0.256E+02
   -.502E+01 0.265E+02 0.352E+03   0.872E+01 -.304E+02 -.372E+03   -.350E+01 0.367E+01 0.209E+02
   -.124E+02 -.768E+01 0.364E+03   0.156E+02 0.535E+01 -.388E+03   -.306E+01 0.224E+01 0.238E+02
   0.735E+01 0.110E+02 0.362E+03   -.105E+02 -.899E+01 -.388E+03   0.288E+01 -.339E+01 0.258E+02
   -.348E+02 -.372E+02 -.290E+03   0.398E+02 0.412E+02 0.307E+03   -.425E+01 -.357E+01 -.175E+02
   0.198E+02 0.117E+02 -.307E+03   -.183E+02 -.121E+02 0.322E+03   -.283E+01 0.140E+01 -.137E+02
   0.196E+02 -.507E+02 -.278E+03   -.217E+02 0.546E+02 0.292E+03   0.218E+01 -.299E+01 -.147E+02
   -.890E+01 0.429E+02 -.314E+03   0.575E+01 -.477E+02 0.334E+03   0.466E+01 0.476E+01 -.199E+02
   0.235E+02 0.884E+01 0.326E+03   -.235E+02 -.666E+01 -.345E+03   -.601E+00 -.300E+01 0.195E+02
   -.467E+02 0.643E+00 0.389E+03   0.550E+02 -.123E+01 -.417E+03   -.594E+01 -.202E+00 0.256E+02
   -.947E+00 0.218E+02 0.322E+03   0.413E-01 -.241E+02 -.340E+03   0.603E+00 0.248E+01 0.183E+02
   -.690E+01 -.935E+01 0.348E+03   0.446E+01 0.709E+01 -.364E+03   0.428E+01 0.198E+01 0.164E+02
   0.103E+02 0.540E+00 -.387E+03   -.101E+02 -.989E+00 0.412E+03   -.788E+00 0.760E+00 -.253E+02
   -.996E+01 -.903E+01 -.384E+03   0.109E+02 0.112E+02 0.405E+03   -.646E+00 -.136E+01 -.220E+02
   -.486E+01 -.221E+02 -.391E+03   0.397E+01 0.243E+02 0.415E+03   0.161E+01 -.949E+00 -.236E+02
   0.592E+01 0.731E+01 -.394E+03   -.715E+01 -.802E+01 0.416E+03   0.100E+01 0.795E-02 -.201E+02
   0.248E+02 -.163E+02 0.257E+03   -.282E+02 0.138E+02 -.273E+03   0.262E+01 0.296E+01 0.161E+02
   -.109E+02 0.341E+02 0.266E+03   0.105E+02 -.379E+02 -.284E+03   0.173E+01 0.233E+01 0.169E+02
   -.198E+02 -.999E+01 0.282E+03   0.232E+02 0.104E+02 -.303E+03   -.289E+01 -.665E+00 0.206E+02
   -.247E+02 0.261E+02 0.260E+03   0.299E+02 -.276E+02 -.277E+03   -.415E+01 -.284E+00 0.175E+02
 -----------------------------------------------------------------------------------------------
   0.139E+01 -.496E+01 -.969E+01   0.284E-13 0.711E-14 0.455E-12   -.139E+01 0.497E+01 0.965E+01
 
 
 POSITION                                       TOTAL-FORCE (eV/Angst)
 -----------------------------------------------------------------------------------
      0.40142      4.83006     14.11713         0.108662      0.131445     -0.136533
      4.68861      0.49774      5.03033        -0.621888      0.939565     -0.407407
      2.76438      3.06502      4.69539         0.882787     -0.354214      0.749806
      0.36615      1.39965      9.28211         0.024166      0.026325      0.094475
     -1.12529      3.65895      9.30044         0.010335      0.706199      0.279809
      1.64481      3.88570      9.31379         0.004704      0.511249      0.063133
      0.18335      1.69529      2.39781        -0.982421      0.903380     -0.242782
     -1.24350      4.21459      2.35190         0.691980     -1.112930      1.159560
      2.87832      1.79827      2.31001         2.492603      0.041352     -0.908704
      1.51284      4.19827      2.58960         2.978048     -1.713122     -3.801357
      3.17561      4.52487      7.07257        -3.655118      3.039398      1.413254
      4.44758      2.30833      7.15422         0.480626     -4.227019     -0.512045
      0.36057      4.53451      7.08622        -1.086075      2.351259      0.208561
      1.70778      2.18830      7.05619         0.236792     -1.446415      0.093570
      1.69854      1.00960     11.64770        -0.833605     -0.302208      1.501730
      0.30055      3.39973     11.72130        -1.165822      1.072820      1.501596
      4.41507      1.03653     11.77150         0.600695     -0.053594     -1.131742
      3.06991      3.46491     11.88460        -0.745684     -0.603948     -0.151746
      0.21065      0.08330      3.51036        -0.817716      0.319127     -0.430612
     -1.14763      2.47606      3.32859        -1.484038      0.928283      0.139741
      3.00312      0.20297      3.25497        -3.120716      0.935499      2.430557
      1.63899      2.42300      3.41752        -1.482624      1.307221      0.089720
      1.45883      1.00451      1.35711         1.066269     -0.531551     -0.137508
      0.18262      3.41604      1.44826         0.184673     -0.298253      0.192636
      4.28669      0.92581      1.38492         0.102850     -0.088478      0.606413
      2.87145      3.50715      1.47516        -0.270157     -1.398825      0.163564
      1.65420      0.47681      8.14646         0.852165      0.494384     -0.626367
      0.39897      2.92970      8.11782        -1.321871      0.955445      0.741647
      4.53535      0.48869      8.08835        -0.052353      1.000176     -0.453008
      2.95762      3.03850      8.15726         1.507304     -0.176462     -0.387569
      0.32588      1.43039      6.11468        -0.577357     -0.793789      0.396173
     -1.16687      3.83516      6.15274         2.309354     -0.786558     -2.050022
      3.16398      1.40684      6.07744        -0.398278      0.128664      0.536545
      1.60229      3.77454      6.01105         1.787423     -0.303307      0.042953
      0.36117      1.77760     12.64770        -0.577142      0.318774      0.060129
     -1.08821      4.16344     12.85870         0.205809      0.796944     -1.157958
      2.96296      1.70770     12.73570         0.734898      1.321887      0.276624
      1.67130      4.29197     12.67050        -0.146490     -0.750984      1.107203
      0.33250      0.14863     10.75160        -0.735833      0.401653     -0.161014
      4.32065      2.72021     10.86060         1.335358     -1.574664     -0.779784
      3.02896      0.19435     10.74980         0.479156     -0.226602     -0.651871
      1.64518      2.76212     10.71410         0.998531     -1.888126      0.278629
 -----------------------------------------------------------------------------------
    total drift:                                0.003319      0.009622     -0.048709


--------------------------------------------------------------------------------------------------------



  FREE ENERGIE OF THE ION-ELECTRON SYSTEM (eV)
  ---------------------------------------------------
  free  energy   TOTEN  =      -232.12542375 eV

  energy  without entropy=     -232.11942308  energy(sigma->0) =     -232.12242341
 


--------------------------------------------------------------------------------------------------------


    POTLOK:  cpu time    0.0793: real time    0.0793


--------------------------------------------------------------------------------------------------------


     LOOP+:  cpu time 2516.3732: real time 2530.1807
    4ORBIT:  cpu time    0.0000: real time    0.0000
 


 total charge     
 
# of ion       s       p       d       tot
------------------------------------------
    1        0.079   0.159   0.000   0.237
    2        0.115   0.254   0.000   0.370
    3        0.102   0.219   0.000   0.321
    4        0.103   0.220   0.000   0.323
    5        0.110   0.236   0.000   0.346
    6        0.124   0.272   0.000   0.396
    7        0.458   0.745   7.228   8.431
    8        0.443   0.700   7.401   8.545
    9        0.477   0.775   7.264   8.516
   10        0.489   0.807   7.334   8.631
   11        0.503   0.824   7.361   8.688
   12        0.425   0.655   7.386   8.467
   13        0.432   0.676   7.374   8.482
   14        0.442   0.708   7.393   8.543
   15        0.474   0.778   7.260   8.512
   16        0.462   0.747   7.445   8.654
   17        0.443   0.694   7.399   8.535
   18        0.475   0.783   7.247   8.506
   19        1.569   3.432   0.000   5.001
   20        1.574   3.394   0.000   4.969
   21        1.581   3.462   0.000   5.043
   22        1.577   3.433   0.000   5.010
   23        1.578   3.415   0.000   4.993
   24        1.577   3.381   0.000   4.957
   25        1.586   3.328   0.000   4.914
   26        1.584   3.371   0.000   4.954
   27        1.563   3.438   0.000   5.002
   28        1.553   3.528   0.000   5.082
   29        1.561   3.453   0.000   5.014
   30        1.566   3.469   0.000   5.036
   31        1.570   3.408   0.000   4.979
   32        1.577   3.468   0.000   5.045
   33        1.560   3.429   0.000   4.989
   34        1.560   3.482   0.000   5.042
   35        1.579   3.387   0.000   4.966
   36        1.577   3.357   0.000   4.934
   37        1.576   3.401   0.000   4.977
   38        1.568   3.468   0.000   5.037
   39        1.565   3.456   0.000   5.022
   40        1.565   3.493   0.000   5.058
   41        1.569   3.443   0.000   5.012
   42        1.569   3.444   0.000   5.014
--------------------------------------------------
tot         43.863  92.595  88.093 224.551
 


 magnetization (x)
 
# of ion       s       p       d       tot
------------------------------------------
    1        0.000  -0.002   0.000  -0.002
    2        0.000   0.000   0.000   0.001
    3        0.001  -0.001   0.000  -0.001
    4       -0.000  -0.001   0.000  -0.002
    5        0.001   0.001   0.000   0.002
    6        0.001  -0.001   0.000  -0.000
    7        0.013   0.016   1.514   1.543
    8        0.005   0.008  -0.016  -0.003
    9        0.013   0.019   1.311   1.343
   10        0.013   0.021   1.255   1.289
   11        0.008   0.010   1.166   1.184
   12        0.005   0.003   0.027   0.036
   13        0.000   0.000  -0.015  -0.014
   14        0.000   0.001  -0.007  -0.006
   15        0.011   0.010   1.340   1.361
   16        0.004   0.007  -0.076  -0.066
   17        0.005   0.006  -0.043  -0.031
   18        0.009   0.012   1.240   1.262
   19        0.001  -0.092   0.000  -0.091
   20        0.001  -0.113   0.000  -0.112
   21        0.002  -0.011   0.000  -0.009
   22        0.002  -0.099   0.000  -0.096
   23        0.001  -0.075   0.000  -0.074
   24        0.001  -0.166   0.000  -0.165
   25        0.001  -0.219   0.000  -0.218
   26        0.002  -0.092   0.000  -0.090
   27       -0.000  -0.071   0.000  -0.071
   28       -0.000  -0.005   0.000  -0.006
   29        0.000  -0.018   0.000  -0.018
   30        0.001  -0.014   0.000  -0.013
   31       -0.000  -0.063   0.000  -0.063
   32        0.001   0.006   0.000   0.006
   33       -0.000  -0.006   0.000  -0.006
   34       -0.000  -0.042   0.000  -0.042
   35       -0.000  -0.085   0.000  -0.085
   36       -0.000  -0.168   0.000  -0.169
   37        0.000  -0.111   0.000  -0.111
   38        0.000  -0.006   0.000  -0.006
   39        0.000  -0.065   0.000  -0.065
   40        0.000  -0.023   0.000  -0.022
   41        0.000  -0.028   0.000  -0.027
   42        0.000  -0.106   0.000  -0.105
--------------------------------------------------
tot          0.103  -1.561   7.696   6.237
 

 total amount of memory used by VASP MPI-rank0   156701. kBytes
=======================================================================

   base      :      30000. kBytes
   nonlr-proj:       4463. kBytes
   fftplans  :       1686. kBytes
   grid      :       4644. kBytes
   one-center:        342. kBytes
   wavefun   :     115566. kBytes
 
  
  
 General timing and accounting informations for this job:
 ========================================================
  
                  Total CPU time used (sec):     2541.927
                            User time (sec):     2260.774
                          System time (sec):      281.153
                         Elapsed time (sec):     2556.476
  
                   Maximum memory used (kb):      714956.
                   Average memory used (kb):           0.
  
                          Minor page faults:        70292
                          Major page faults:           67
                 Voluntary context switches:          642
