 running on   64 total cores
 distrk:  each k-point on   64 cores,    1 groups
 distr:  one band on    4 cores,   16 groups
 using from now: INCAR     
 vasp.5.4.4.18Apr17-6-g9f103f2a35 (build Nov 22 2021 14:44:17) complex          
  
 POSCAR found type information on POSCAR  Li Co O 
 POSCAR found :  3 types and      42 ions
 scaLAPACK will be used
 LDA part: xc-table for Pade appr. of Perdew
 generate k-points for:    6    6    2
 POSCAR, INCAR and KPOINTS ok, starting setup
 FFT: planning ...
 WAVECAR not read
 entering main loop
       N       E                     dE             d eps       ncg     rms          ort
DAV:   1     0.348101423309E+04    0.34810E+04   -0.13908E+05  5760   0.217E+03
DAV:   2     0.414611539257E+03   -0.30664E+04   -0.28246E+04  5760   0.529E+02
DAV:   3    -0.218224341927E+03   -0.63284E+03   -0.58134E+03  5760   0.253E+02
DAV:   4    -0.268898339008E+03   -0.50674E+02   -0.49537E+02  5760   0.735E+01
DAV:   5    -0.270707848887E+03   -0.18095E+01   -0.18058E+01  5760   0.139E+01
 gam= 0.000 g(H,U,f)=  0.163E+04 0.595E+03 0.487E+02 ort(H,U,f) = 0.000E+00 0.000E+00 0.000E+00
SDA:   6     0.596774902020E+02    0.33039E+03   -0.18058E+01  5760   0.227E+04 0.000E+00
 gam= 0.000 trial= 0.400  step= 0.190 mean= 0.400
 gam= 1.258 g(H,U,f)=  0.183E+03 0.130E+04 0.137E+04 ort(H,U,f) = 0.763E+02 0.351E+02-0.163E+03
CGA:   7    -0.137331269683E+03   -0.19701E+03   -0.21519E+03  5760   0.286E+04-0.512E+02
 gam= 1.258 trial= 0.389  step= 0.047 mean= 0.389
 gam= 0.188 g(H,U,f)=  0.833E+02 0.271E+03 0.182E+03 ort(H,U,f) =-0.184E+03 0.104E+03-0.256E+03
CGA:   8    -0.185044584036E+03   -0.47713E+02   -0.65810E+02  5760   0.536E+03-0.336E+03
 gam= 0.188 trial= 0.372  step= 0.078 mean= 0.372
 gam= 0.000 g(H,U,f)=  0.829E+02 0.261E+03 0.312E+03 ort(H,U,f) =-0.311E+02-0.178E+03-0.220E+03
CGA:   9    -0.194382624714E+03   -0.93380E+01   -0.18533E+02  5760   0.656E+03-0.430E+03
 gam= 0.000 trial= 0.358  step= 0.150 mean= 0.358
 gam= 0.497 g(H,U,f)=  0.123E+03 0.174E+03 0.290E+02 ort(H,U,f) =-0.263E+01-0.575E+02-0.735E+01
CGA:  10    -0.170142087530E+03    0.24241E+02   -0.49030E+02  5760   0.326E+03-0.675E+02
 gam= 0.497 trial= 0.347  step= 0.007 mean= 0.347
 gam= 0.000 g(H,U,f)=  0.110E+03 0.446E+03 0.435E+03 ort(H,U,f) = 0.117E+03 0.384E+03 0.376E+03
CGA:  11    -0.173360289468E+03   -0.32182E+01   -0.10105E+01  5760   0.991E+03 0.876E+03
 gam= 0.000 trial= 0.330  step= 0.013 mean= 0.330
 gam= 0.000 g(H,U,f)=  0.586E+02 0.527E+03 0.360E+03 ort(H,U,f) = 0.798E+02 0.776E+03 0.530E+03
CGA:  12    -0.192856705406E+03   -0.19496E+02   -0.62159E+01  5760   0.945E+03 0.139E+04
 gam= 0.000 trial= 0.314  step= 0.049 mean= 0.314
 gam= 0.037 g(H,U,f)=  0.168E+02 0.138E+02 0.395E+01 ort(H,U,f) = 0.139E+02-0.592E+02-0.365E+02
CGA:  13    -0.209693556719E+03   -0.16837E+02   -0.22939E+02  5760   0.345E+02-0.817E+02
 gam= 0.037 trial= 0.301  step= 0.186 mean= 0.301
 gam= 2.609 g(H,U,f)=  0.103E+02 0.348E+02 0.450E+02 ort(H,U,f) = 0.100E+02-0.185E+01-0.835E+01
CGA:  14    -0.212108634626E+03   -0.24151E+01   -0.29406E+01  5760   0.901E+02-0.190E+00
 gam= 2.609 trial= 0.295  step= 0.121 mean= 0.295
 gam= 0.833 g(H,U,f)=  0.659E+01 0.431E+02 0.254E+02 ort(H,U,f) = 0.266E+00-0.179E+01-0.135E+02
CGA:  15    -0.216534715146E+03   -0.44261E+01   -0.54402E+01  5760   0.751E+02-0.150E+02
 gam= 0.833 trial= 0.287  step= 0.107 mean= 0.287
 gam= 0.262 g(H,U,f)=  0.528E+01 0.846E+01 0.593E+01 ort(H,U,f) =-0.149E+02 0.115E+02-0.486E+01
CGA:  16    -0.219006616207E+03   -0.24719E+01   -0.33592E+01  5760   0.197E+02-0.834E+01
 gam= 0.262 trial= 0.278  step= 0.075 mean= 0.278
 gam= 0.307 g(H,U,f)=  0.341E+01 0.190E+01 0.732E+00 ort(H,U,f) = 0.184E+00 0.226E+01-0.133E+01
CGA:  17    -0.219708068372E+03   -0.70145E+00   -0.65863E+00  5760   0.604E+01 0.112E+01
 gam= 0.307 trial= 0.268  step= 0.215 mean= 0.268
 gam= 0.675 g(H,U,f)=  0.179E+01 0.193E+01 0.363E+00 ort(H,U,f) = 0.122E+01-0.103E+01-0.154E+00
CGA:  18    -0.220390402524E+03   -0.68233E+00   -0.68541E+00  5760   0.408E+01 0.426E-01
 gam= 0.675 trial= 0.265  step= 0.179 mean= 0.265
 gam= 1.146 g(H,U,f)=  0.108E+01 0.246E+01 0.114E+01 ort(H,U,f) = 0.799E+00-0.399E+00-0.390E+00
CGA:  19    -0.220752712343E+03   -0.36231E+00   -0.36694E+00  5760   0.467E+01 0.107E-01
 gam= 1.146 trial= 0.261  step= 0.122 mean= 0.261
 gam= 0.447 g(H,U,f)=  0.676E+00 0.113E+01 0.281E+00 ort(H,U,f) =-0.300E+00 0.315E+00-0.193E+00
CGA:  20    -0.221016016779E+03   -0.26330E+00   -0.28523E+00  5760   0.209E+01-0.178E+00
 gam= 0.447 trial= 0.254  step= 0.180 mean= 0.254
 gam= 0.517 g(H,U,f)=  0.468E+00 0.479E+00 0.133E+00 ort(H,U,f) =-0.516E+00 0.553E+00-0.325E-01
CGA:  21    -0.221193713077E+03   -0.17770E+00   -0.18058E+00  5760   0.108E+01 0.450E-02
 gam= 0.517 trial= 0.250  step= 0.241 mean= 0.250
 gam= 1.419 g(H,U,f)=  0.626E+00 0.672E+00 0.234E+00 ort(H,U,f) =-0.171E+00 0.284E+00-0.138E-01
CGA:  22    -0.221323045979E+03   -0.12933E+00   -0.13030E+00  5760   0.153E+01 0.989E-01
 gam= 1.419 trial= 0.249  step= 0.373 mean= 0.249
 gam= 1.745 g(H,U,f)=  0.784E+00 0.126E+01 0.631E+00 ort(H,U,f) =-0.371E+00 0.599E+00-0.141E+00
CGA:  23    -0.221641665576E+03   -0.31862E+00   -0.31244E+00  5760   0.267E+01 0.869E-01
 gam= 1.745 trial= 0.256  step= 0.153 mean= 0.256
 gam= 0.671 g(H,U,f)=  0.800E+00 0.814E+00 0.181E+00 ort(H,U,f) =-0.855E+00 0.102E+01-0.116E+00
CGA:  24    -0.221854223908E+03   -0.21256E+00   -0.21658E+00  5760   0.179E+01 0.525E-01
 gam= 0.671 trial= 0.251  step= 0.282 mean= 0.251
 gam= 1.072 g(H,U,f)=  0.965E+00 0.852E+00 0.107E+00 ort(H,U,f) =-0.573E+00 0.616E+00 0.438E-01
CGA:  25    -0.222114489607E+03   -0.26027E+00   -0.25798E+00  5760   0.192E+01 0.865E-01
 gam= 1.072 trial= 0.252  step= 0.344 mean= 0.252
 gam= 1.114 g(H,U,f)=  0.104E+01 0.950E+00 0.157E+00 ort(H,U,f) =-0.310E+00 0.473E+00 0.426E-01
CGA:  26    -0.222475195774E+03   -0.36071E+00   -0.34690E+00  5760   0.214E+01 0.205E+00
 gam= 1.114 trial= 0.257  step= 0.255 mean= 0.257
 gam= 0.505 g(H,U,f)=  0.530E+00 0.540E+00 0.116E-01 ort(H,U,f) =-0.145E+00 0.319E+00-0.234E-01
CGA:  27    -0.222776580557E+03   -0.30138E+00   -0.30173E+00  5760   0.108E+01 0.151E+00
 gam= 0.505 trial= 0.257  step= 0.397 mean= 0.257
 gam= 0.833 g(H,U,f)=  0.405E+00 0.496E+00 0.399E-04 ort(H,U,f) =-0.194E+00 0.258E+00-0.110E-03
CGA:  28    -0.223012241721E+03   -0.23566E+00   -0.22973E+00  5760   0.901E+00 0.643E-01
 gam= 0.833 trial= 0.264  step= 0.451 mean= 0.264
 gam= 0.944 g(H,U,f)=  0.481E+00 0.352E+00 0.171E-01 ort(H,U,f) =-0.235E+00 0.250E+00 0.264E-02
CGA:  29    -0.223229735290E+03   -0.21749E+00   -0.21503E+00  5760   0.850E+00 0.173E-01
 gam= 0.944 trial= 0.273  step= 0.402 mean= 0.273
 gam= 0.728 g(H,U,f)=  0.326E+00 0.293E+00 0.625E-07 ort(H,U,f) =-0.102E+00 0.149E+00 0.641E-07
CGA:  30    -0.223408313170E+03   -0.17858E+00   -0.17410E+00  5760   0.619E+00 0.475E-01
 gam= 0.728 trial= 0.279  step= 0.357 mean= 0.279
 gam= 0.641 g(H,U,f)=  0.223E+00 0.174E+00 0.200E-15 ort(H,U,f) =-0.118E+00 0.131E+00-0.299E-15
CGA:  31    -0.223525681290E+03   -0.11737E+00   -0.11659E+00  5760   0.397E+00 0.134E-01
 gam= 0.641 trial= 0.283  step= 0.501 mean= 0.283
 gam= 0.915 g(H,U,f)=  0.217E+00 0.146E+00 0.366E-08 ort(H,U,f) =-0.544E-01 0.556E-01-0.267E-07
CGA:  32    -0.223627473091E+03   -0.10179E+00   -0.10156E+00  5760   0.363E+00 0.120E-02
 gam= 0.915 trial= 0.294  step= 0.374 mean= 0.294
 gam= 0.591 g(H,U,f)=  0.118E+00 0.970E-01 0.150E-05 ort(H,U,f) =-0.382E-01 0.391E-01 0.414E-06
CGA:  33    -0.223695626838E+03   -0.68154E-01   -0.68098E-01  5760   0.215E+00 0.862E-03
 gam= 0.591 trial= 0.298  step= 0.422 mean= 0.298
 gam= 0.731 g(H,U,f)=  0.886E-01 0.682E-01 0.308E-06 ort(H,U,f) =-0.355E-01 0.385E-01 0.807E-06
CGA:  34    -0.223741281138E+03   -0.45654E-01   -0.45416E-01  5760   0.157E+00 0.292E-02
 gam= 0.731 trial= 0.304  step= 0.448 mean= 0.304
 gam= 0.808 g(H,U,f)=  0.687E-01 0.581E-01 0.619E-07 ort(H,U,f) =-0.259E-01 0.259E-01-0.859E-07
CGA:  35    -0.223776906334E+03   -0.35625E-01   -0.35628E-01  5760   0.127E+00-0.409E-04
 gam= 0.808 trial= 0.312  step= 0.479 mean= 0.312
 gam= 0.761 g(H,U,f)=  0.518E-01 0.446E-01 0.155E-10 ort(H,U,f) =-0.269E-01 0.264E-01 0.311E-10
CGA:  36    -0.223807232130E+03   -0.30326E-01   -0.30379E-01  5760   0.965E-01-0.543E-03
 gam= 0.761 trial= 0.320  step= 0.408 mean= 0.320
 gam= 0.654 g(H,U,f)=  0.378E-01 0.253E-01 0.971E-13 ort(H,U,f) =-0.164E-01 0.158E-01 0.323E-12
CGA:  37    -0.223826782384E+03   -0.19550E-01   -0.19583E-01  5760   0.631E-01-0.587E-03
 gam= 0.654 trial= 0.324  step= 0.474 mean= 0.324
 gam= 0.903 g(H,U,f)=  0.295E-01 0.275E-01 0.808E-15 ort(H,U,f) =-0.429E-02 0.416E-02 0.242E-14
CGA:  38    -0.223841637555E+03   -0.14855E-01   -0.14866E-01  5760   0.570E-01-0.132E-03
 gam= 0.903 trial= 0.332  step= 0.425 mean= 0.332
 gam= 0.612 g(H,U,f)=  0.192E-01 0.156E-01 0.693E-14 ort(H,U,f) =-0.855E-02 0.867E-02-0.393E-14
CGA:  39    -0.223853730369E+03   -0.12093E-01   -0.12086E-01  5760   0.348E-01 0.119E-03
 gam= 0.612 trial= 0.337  step= 0.424 mean= 0.337
 gam= 0.837 g(H,U,f)=  0.164E-01 0.128E-01 0.530E-16 ort(H,U,f) =-0.417E-02 0.418E-02-0.239E-15
CGA:  40    -0.223861132026E+03   -0.74017E-02   -0.74014E-02  5760   0.292E-01 0.745E-05
 gam= 0.837 trial= 0.341  step= 0.492 mean= 0.341
 gam= 0.843 g(H,U,f)=  0.133E-01 0.113E-01 0.998E-16 ort(H,U,f) =-0.606E-02 0.611E-02-0.142E-15
CGA:  41    -0.223868306047E+03   -0.71740E-02   -0.71687E-02  5760   0.246E-01 0.517E-04
 gam= 0.843 trial= 0.348  step= 0.451 mean= 0.348
 gam= 0.878 g(H,U,f)=  0.126E-01 0.896E-02 0.560E-16 ort(H,U,f) =-0.722E-02 0.724E-02 0.340E-16
CGA:  42    -0.223873859125E+03   -0.55531E-02   -0.55515E-02  5760   0.216E-01 0.218E-04
 gam= 0.878 trial= 0.354  step= 0.485 mean= 0.354
 gam= 0.000 g(H,U,f)=  0.111E-01 0.831E-02 0.372E-16 ort(H,U,f) =-0.532E-02 0.538E-02 0.147E-15
SDA:  43    -0.223879099727E+03   -0.52406E-02   -0.52364E-02  5760   0.194E-01 0.532E-04
 gam= 0.000 trial= 0.360  step= 0.467 mean= 0.360
 gam= 0.639 g(H,U,f)=  0.530E-02 0.707E-02 0.118E-15 ort(H,U,f) =-0.288E-03 0.247E-03 0.871E-16
CGA:  44    -0.223883620622E+03   -0.45209E-02   -0.45233E-02  5760   0.124E-01-0.412E-04
 gam= 0.639 trial= 0.365  step= 0.768 mean= 0.365
 gam= 0.669 g(H,U,f)=  0.452E-02 0.376E-02 0.130E-15 ort(H,U,f) =-0.353E-02 0.352E-02 0.279E-15
CGA:  45    -0.223888361740E+03   -0.47411E-02   -0.47425E-02  5760   0.827E-02-0.737E-05
 gam= 0.669 trial= 0.386  step= 0.636 mean= 0.386
 gam= 0.905 g(H,U,f)=  0.344E-02 0.405E-02 0.921E-18 ort(H,U,f) =-0.175E-02 0.176E-02 0.219E-16
CGA:  46    -0.223890991656E+03   -0.26299E-02   -0.26287E-02  5760   0.749E-02 0.901E-05
 gam= 0.905 trial= 0.398  step= 0.730 mean= 0.398
 gam= 0.805 g(H,U,f)=  0.328E-02 0.275E-02 0.220E-15 ort(H,U,f) =-0.212E-02 0.211E-02-0.106E-14
CGA:  47    -0.223893726576E+03   -0.27349E-02   -0.27372E-02  5760   0.603E-02-0.135E-04
 gam= 0.805 trial= 0.415  step= 0.804 mean= 0.415
 gam= 1.420 g(H,U,f)=  0.363E-02 0.493E-02 0.363E-14 ort(H,U,f) =-0.113E-02 0.116E-02-0.514E-14
CGA:  48    -0.223896149848E+03   -0.24233E-02   -0.24185E-02  5760   0.856E-02 0.253E-04
 gam= 1.420 trial= 0.434  step= 0.808 mean= 0.434
 gam= 0.920 g(H,U,f)=  0.430E-02 0.358E-02 0.123E-13 ort(H,U,f) =-0.245E-02 0.242E-02-0.248E-13
CGA:  49    -0.223899619251E+03   -0.34694E-02   -0.34740E-02  5760   0.788E-02-0.244E-04
 gam= 0.920 trial= 0.453  step= 1.165 mean= 0.453
 gam= 1.510 g(H,U,f)=  0.618E-02 0.571E-02 0.215E-13 ort(H,U,f) =-0.298E-02 0.291E-02-0.119E-13
CGA:  50    -0.223904169084E+03   -0.45498E-02   -0.45732E-02  5760   0.119E-01-0.688E-04
 gam= 1.510 trial= 0.488  step= 0.799 mean= 0.488
 gam= 1.160 g(H,U,f)=  0.767E-02 0.612E-02 0.892E-14 ort(H,U,f) =-0.362E-02 0.361E-02 0.609E-15
CGA:  51    -0.223908874624E+03   -0.47055E-02   -0.47075E-02  5760   0.138E-01-0.903E-05
 gam= 1.160 trial= 0.504  step= 1.049 mean= 0.504
 gam= 0.904 g(H,U,f)=  0.709E-02 0.538E-02 0.270E-14 ort(H,U,f) =-0.330E-02 0.316E-02-0.306E-14
CGA:  52    -0.223916064961E+03   -0.71903E-02   -0.72276E-02  5760   0.125E-01-0.138E-03
 gam= 0.904 trial= 0.531  step= 0.662 mean= 0.531
 gam= 0.748 g(H,U,f)=  0.455E-02 0.478E-02 0.279E-15 ort(H,U,f) =-0.189E-02 0.188E-02-0.381E-16
CGA:  53    -0.223920149508E+03   -0.40845E-02   -0.40849E-02  5760   0.933E-02-0.129E-04
 gam= 0.748 trial= 0.538  step= 0.774 mean= 0.538
 gam= 0.841 g(H,U,f)=  0.317E-02 0.469E-02 0.882E-16 ort(H,U,f) =-0.839E-03 0.830E-03 0.324E-16
CGA:  54    -0.223923757600E+03   -0.36081E-02   -0.36096E-02  5760   0.785E-02-0.932E-05
 gam= 0.841 trial= 0.550  step= 0.546 mean= 0.550
 gam= 0.572 g(H,U,f)=  0.198E-02 0.251E-02 0.402E-16 ort(H,U,f) =-0.110E-02 0.109E-02 0.557E-16
CGA:  55    -0.223925900134E+03   -0.21425E-02   -0.21425E-02  5760   0.449E-02-0.790E-05
 gam= 0.572 trial= 0.549  step= 0.809 mean= 0.549
 gam= 0.839 g(H,U,f)=  0.184E-02 0.193E-02 0.260E-17 ort(H,U,f) =-0.755E-03 0.767E-03 0.504E-17
CGA:  56    -0.223927715468E+03   -0.18153E-02   -0.18139E-02  5760   0.377E-02 0.116E-04
 gam= 0.839 trial= 0.562  step= 0.681 mean= 0.562
 gam= 0.716 g(H,U,f)=  0.130E-02 0.139E-02 0.237E-16 ort(H,U,f) =-0.523E-03 0.550E-03 0.551E-16
CGA:  57    -0.223929003355E+03   -0.12879E-02   -0.12865E-02  5760   0.270E-02 0.268E-04
 gam= 0.716 trial= 0.568  step= 0.745 mean= 0.568
 gam= 0.620 g(H,U,f)=  0.848E-03 0.823E-03 0.130E-15 ort(H,U,f) =-0.374E-03 0.383E-03-0.503E-15
CGA:  58    -0.223930015172E+03   -0.10118E-02   -0.10111E-02  5760   0.167E-02 0.960E-05
 gam= 0.620 trial= 0.577  step= 0.796 mean= 0.577
 gam= 1.013 g(H,U,f)=  0.585E-03 0.111E-02 0.600E-15 ort(H,U,f) =-0.156E-03 0.160E-03-0.756E-15
CGA:  59    -0.223930682848E+03   -0.66768E-03   -0.66727E-03  5760   0.169E-02 0.363E-05
 gam= 1.013 trial= 0.588  step= 0.640 mean= 0.588
 gam= 0.613 g(H,U,f)=  0.494E-03 0.544E-03 0.188E-14 ort(H,U,f) =-0.313E-03 0.318E-03-0.343E-15
CGA:  60    -0.223931225956E+03   -0.54311E-03   -0.54299E-03  5760   0.104E-02 0.520E-05
 gam= 0.613 trial= 0.591  step= 0.742 mean= 0.591
 gam= 0.921 g(H,U,f)=  0.394E-03 0.562E-03 0.988E-15 ort(H,U,f) =-0.119E-03 0.109E-03 0.954E-15
CGA:  61    -0.223931611515E+03   -0.38556E-03   -0.38638E-03  5760   0.956E-03-0.108E-04
 gam= 0.921 trial= 0.598  step= 0.724 mean= 0.598
 gam= 0.525 g(H,U,f)=  0.280E-03 0.222E-03 0.244E-15 ort(H,U,f) =-0.170E-03 0.162E-03 0.140E-14
CGA:  62    -0.223931953543E+03   -0.34203E-03   -0.34250E-03  5760   0.502E-03-0.800E-05
 gam= 0.525 trial= 0.605  step= 0.730 mean= 0.605
 gam= 0.870 g(H,U,f)=  0.192E-03 0.245E-03 0.113E-15 ort(H,U,f) =-0.462E-04 0.467E-04 0.505E-15
CGA:  63    -0.223932135251E+03   -0.18171E-03   -0.18167E-03  5760   0.437E-03 0.523E-06
 gam= 0.870 trial= 0.611  step= 0.830 mean= 0.611
 gam= 0.707 g(H,U,f)=  0.133E-03 0.176E-03 0.624E-17 ort(H,U,f) =-0.841E-04 0.826E-04-0.842E-16
CGA:  64    -0.223932316495E+03   -0.18124E-03   -0.18140E-03  5760   0.309E-03-0.149E-05
 gam= 0.707 trial= 0.622  step= 0.769 mean= 0.622
 gam= 1.379 g(H,U,f)=  0.150E-03 0.276E-03 0.958E-16 ort(H,U,f) =-0.455E-04 0.473E-04-0.189E-15
CGA:  65    -0.223932434991E+03   -0.11850E-03   -0.11836E-03  5760   0.426E-03 0.180E-05
 gam= 1.379 trial= 0.629  step= 0.805 mean= 0.629
 gam= 0.824 g(H,U,f)=  0.187E-03 0.165E-03 0.743E-16 ort(H,U,f) =-0.146E-03 0.155E-03-0.117E-15
CGA:  66    -0.223932608199E+03   -0.17321E-03   -0.17242E-03  5760   0.351E-03 0.900E-05
 gam= 0.824 trial= 0.638  step= 1.179 mean= 0.638
 gam= 1.404 g(H,U,f)=  0.247E-03 0.246E-03 0.381E-16 ort(H,U,f) =-0.953E-04 0.999E-04-0.160E-16
CGA:  67    -0.223932820926E+03   -0.21273E-03   -0.21148E-03  5760   0.493E-03 0.459E-05
 gam= 1.404 trial= 0.665  step= 0.759 mean= 0.665
 gam= 0.859 g(H,U,f)=  0.239E-03 0.185E-03 0.296E-16 ort(H,U,f) =-0.112E-03 0.112E-03 0.138E-16
CGA:  68    -0.223933010552E+03   -0.18963E-03   -0.18963E-03  5760   0.424E-03 0.811E-07
 gam= 0.859 trial= 0.670  step= 0.829 mean= 0.670
 gam= 0.889 g(H,U,f)=  0.179E-03 0.198E-03 0.894E-18 ort(H,U,f) =-0.600E-04 0.569E-04-0.346E-17
CGA:  69    -0.223933185892E+03   -0.17534E-03   -0.17560E-03  5760   0.377E-03-0.315E-05
 gam= 0.889 trial= 0.678  step= 0.659 mean= 0.678
 gam= 0.688 g(H,U,f)=  0.120E-03 0.139E-03 0.184E-15 ort(H,U,f) =-0.406E-04 0.351E-04-0.126E-15
CGA:  70    -0.223933309257E+03   -0.12336E-03   -0.12332E-03  5760   0.259E-03-0.543E-05
 gam= 0.688 trial= 0.677  step= 0.709 mean= 0.677
 gam= 0.831 g(H,U,f)=  0.947E-04 0.121E-03 0.121E-15 ort(H,U,f) =-0.288E-04 0.240E-04 0.464E-16
CGA:  71    -0.223933399765E+03   -0.90508E-04   -0.90586E-04  5760   0.215E-03-0.482E-05
 gam= 0.831 trial= 0.678  step= 0.634 mean= 0.678
 gam= 0.574 g(H,U,f)=  0.666E-04 0.571E-04 0.624E-16 ort(H,U,f) =-0.301E-04 0.288E-04 0.117E-15
CGA:  72    -0.223933466783E+03   -0.67018E-04   -0.66988E-04  5760   0.124E-03-0.135E-05
 gam= 0.574 trial= 0.676  step= 0.934 mean= 0.676
 gam= 0.737 g(H,U,f)=  0.463E-04 0.448E-04 0.304E-16 ort(H,U,f) =-0.178E-04 0.176E-04 0.145E-15
CGA:  73    -0.223933524153E+03   -0.57370E-04   -0.57398E-04  5760   0.912E-04-0.229E-06
 gam= 0.737 trial= 0.689  step= 0.617 mean= 0.689
 gam= 0.000 g(H,U,f)=  0.339E-04 0.362E-04 0.385E-16 ort(H,U,f) =-0.699E-05 0.799E-05 0.133E-15
SDA:  74    -0.223933552193E+03   -0.28040E-04   -0.28075E-04  5760   0.702E-04 0.993E-06
 gam= 0.000 trial= 0.685  step= 0.400 mean= 0.685
 gam= 0.584 g(H,U,f)=  0.147E-04 0.263E-04 0.552E-17 ort(H,U,f) = 0.629E-05-0.574E-05 0.147E-16
CGA:  75    -0.223933566152E+03   -0.13959E-04   -0.14038E-04  5760   0.410E-04 0.554E-06
 gam= 0.584 trial= 0.671  step= 0.821 mean= 0.671
 gam= 0.812 g(H,U,f)=  0.148E-04 0.185E-04 0.192E-17 ort(H,U,f) =-0.852E-05 0.101E-04-0.730E-17
CGA:  76    -0.223933583226E+03   -0.17074E-04   -0.16959E-04  5760   0.333E-04 0.153E-05
 gam= 0.812 trial= 0.679  step= 0.774 mean= 0.679
 gam= 1.047 g(H,U,f)=  0.171E-04 0.178E-04 0.697E-18 ort(H,U,f) =-0.892E-05 0.951E-05 0.175E-18
CGA:  77    -0.223933596612E+03   -0.13386E-04   -0.13357E-04  5760   0.348E-04 0.594E-06
 gam= 1.047 trial= 0.683  step= 0.773 mean= 0.683
 gam= 0.757 g(H,U,f)=  0.150E-04 0.113E-04 0.316E-17 ort(H,U,f) =-0.100E-04 0.116E-04-0.593E-17
CGA:  78    -0.223933610382E+03   -0.13770E-04   -0.13698E-04  5760   0.264E-04 0.160E-05
 gam= 0.757 trial= 0.688  step= 1.007 mean= 0.688
 gam= 1.119 g(H,U,f)=  0.139E-04 0.156E-04 0.188E-16 ort(H,U,f) =-0.571E-05 0.631E-05-0.264E-17
CGA:  79    -0.223933624372E+03   -0.13990E-04   -0.13894E-04  5760   0.295E-04 0.603E-06
 gam= 1.119 trial= 0.704  step= 0.783 mean= 0.704
 gam= 1.024 g(H,U,f)=  0.132E-04 0.170E-04 0.161E-16 ort(H,U,f) =-0.551E-05 0.468E-05 0.127E-16
CGA:  80    -0.223933636164E+03   -0.11792E-04   -0.11825E-04  5760   0.302E-04-0.829E-06
 gam= 1.024 trial= 0.708  step= 0.647 mean= 0.708
 gam= 0.728 g(H,U,f)=  0.106E-04 0.114E-04 0.313E-17 ort(H,U,f) =-0.422E-05 0.428E-05 0.108E-16
CGA:  81    -0.223933645670E+03   -0.95067E-05   -0.95086E-05  5760   0.220E-04 0.611E-07
 gam= 0.728 trial= 0.705  step= 0.781 mean= 0.705
 gam= 0.591 g(H,U,f)=  0.663E-05 0.639E-05 0.474E-19 ort(H,U,f) =-0.372E-05 0.338E-05-0.486E-18
CGA:  82    -0.223933654278E+03   -0.86077E-05   -0.86205E-05  5760   0.130E-04-0.333E-06
 gam= 0.591 trial= 0.709  step= 0.947 mean= 0.709
 gam= 1.164 g(H,U,f)=  0.644E-05 0.871E-05 0.146E-17 ort(H,U,f) =-0.271E-05 0.179E-05 0.502E-17
CGA:  83    -0.223933660242E+03   -0.59642E-05   -0.60748E-05  5760   0.152E-04-0.927E-06
 gam= 1.164 trial= 0.721  step= 0.558 mean= 0.721
 gam= 0.642 g(H,U,f)=  0.510E-05 0.463E-05 0.542E-17 ort(H,U,f) =-0.238E-05 0.289E-05-0.142E-16
CGA:  84    -0.223933664127E+03   -0.38849E-05   -0.39265E-05  5760   0.973E-05 0.512E-06
 gam= 0.642 trial= 0.712  step= 0.786 mean= 0.712
 gam= 1.112 g(H,U,f)=  0.465E-05 0.617E-05 0.859E-17 ort(H,U,f) =-0.111E-05 0.179E-05-0.336E-17
CGA:  85    -0.223933668104E+03   -0.39766E-05   -0.39514E-05  5760   0.108E-04 0.687E-06
 gam= 1.112 trial= 0.716  step= 0.778 mean= 0.716
 gam= 0.858 g(H,U,f)=  0.530E-05 0.398E-05 0.269E-18 ort(H,U,f) =-0.339E-05 0.280E-05-0.576E-18
CGA:  86    -0.223933672589E+03   -0.44848E-05   -0.45030E-05  5760   0.928E-05-0.594E-06
 gam= 0.858 trial= 0.719  step= 0.936 mean= 0.719
 gam= 0.942 g(H,U,f)=  0.415E-05 0.459E-05 0.182E-18 ort(H,U,f) =-0.160E-05 0.201E-05-0.475E-18
CGA:  87    -0.223933676741E+03   -0.41529E-05   -0.41076E-05  5760   0.875E-05 0.417E-06
 gam= 0.942 trial= 0.730  step= 0.671 mean= 0.730
 gam= 0.737 g(H,U,f)=  0.296E-05 0.349E-05 0.131E-17 ort(H,U,f) =-0.146E-05 0.151E-05 0.136E-17
CGA:  88    -0.223933679808E+03   -0.30662E-05   -0.30676E-05  5760   0.645E-05 0.497E-07
 gam= 0.737 trial= 0.727  step= 0.748 mean= 0.727
 gam= 1.265 g(H,U,f)=  0.315E-05 0.501E-05 0.271E-18 ort(H,U,f) =-0.115E-05 0.316E-06-0.981E-18
CGA:  89    -0.223933682226E+03   -0.24180E-05   -0.24267E-05  5760   0.816E-05-0.832E-06
 gam= 1.265 trial= 0.728  step= 0.637 mean= 0.728
 gam= 0.493 g(H,U,f)=  0.246E-05 0.156E-05 0.278E-17 ort(H,U,f) =-0.186E-05 0.144E-05-0.357E-17
CGA:  90    -0.223933684509E+03   -0.22839E-05   -0.22644E-05  5760   0.403E-05-0.428E-06
 gam= 0.493 trial= 0.724  step= 0.671 mean= 0.724
 gam= 0.852 g(H,U,f)=  0.176E-05 0.167E-05 0.128E-19 ort(H,U,f) =-0.190E-06 0.510E-06-0.556E-19
CGA:  91    -0.223933685781E+03   -0.12713E-05   -0.12797E-05  5760   0.343E-05 0.321E-06
 gam= 0.852 trial= 0.721  step= 0.771 mean= 0.721
 gam= 1.096 g(H,U,f)=  0.153E-05 0.222E-05 0.777E-19 ort(H,U,f) =-0.763E-06 0.295E-06 0.976E-19
CGA:  92    -0.223933687196E+03   -0.14154E-05   -0.14271E-05  5760   0.376E-05-0.468E-06
 gam= 1.096 trial= 0.723  step= 0.572 mean= 0.723
 gam= 0.781 g(H,U,f)=  0.164E-05 0.129E-05 0.706E-18 ort(H,U,f) =-0.940E-06 0.754E-06 0.606E-18
CGA:  93    -0.223933688139E+03   -0.94285E-06   -0.92882E-06  5760   0.294E-05-0.186E-06
 gam= 0.781 trial= 0.716  step= 0.549 mean= 0.716
 final diagonalization
   1 F= -.23306662E+03 E0= -.23306662E+03  d E =-.298181E-16  mag=     6.0000
