       N       E                     dE             d eps       ncg     rms          ort
DAV:   1     0.348101423309E+04    0.34810E+04   -0.13908E+05  5760   0.217E+03
DAV:   2     0.414611539257E+03   -0.30664E+04   -0.28246E+04  5760   0.529E+02
DAV:   3    -0.218224341927E+03   -0.63284E+03   -0.58134E+03  5760   0.253E+02
DAV:   4    -0.268898339008E+03   -0.50674E+02   -0.49537E+02  5760   0.735E+01
DAV:   5    -0.270707848887E+03   -0.18095E+01   -0.18058E+01  5760   0.139E+01
SDA:   6     0.596774902020E+02    0.33039E+03   -0.18058E+01  5760   0.227E+04 0.000E+00
CGA:   7    -0.137331269683E+03   -0.19701E+03   -0.21519E+03  5760   0.286E+04-0.512E+02
CGA:   8    -0.185044584036E+03   -0.47713E+02   -0.65810E+02  5760   0.536E+03-0.336E+03
CGA:   9    -0.194382624714E+03   -0.93380E+01   -0.18533E+02  5760   0.656E+03-0.430E+03
CGA:  10    -0.170142087530E+03    0.24241E+02   -0.49030E+02  5760   0.326E+03-0.675E+02
CGA:  11    -0.173360289468E+03   -0.32182E+01   -0.10105E+01  5760   0.991E+03 0.876E+03
CGA:  12    -0.192856705406E+03   -0.19496E+02   -0.62159E+01  5760   0.945E+03 0.139E+04
CGA:  13    -0.209693556719E+03   -0.16837E+02   -0.22939E+02  5760   0.345E+02-0.817E+02
CGA:  14    -0.212108634626E+03   -0.24151E+01   -0.29406E+01  5760   0.901E+02-0.190E+00
CGA:  15    -0.216534715146E+03   -0.44261E+01   -0.54402E+01  5760   0.751E+02-0.150E+02
CGA:  16    -0.219006616207E+03   -0.24719E+01   -0.33592E+01  5760   0.197E+02-0.834E+01
CGA:  17    -0.219708068372E+03   -0.70145E+00   -0.65863E+00  5760   0.604E+01 0.112E+01
CGA:  18    -0.220390402524E+03   -0.68233E+00   -0.68541E+00  5760   0.408E+01 0.426E-01
CGA:  19    -0.220752712343E+03   -0.36231E+00   -0.36694E+00  5760   0.467E+01 0.107E-01
CGA:  20    -0.221016016779E+03   -0.26330E+00   -0.28523E+00  5760   0.209E+01-0.178E+00
CGA:  21    -0.221193713077E+03   -0.17770E+00   -0.18058E+00  5760   0.108E+01 0.450E-02
CGA:  22    -0.221323045979E+03   -0.12933E+00   -0.13030E+00  5760   0.153E+01 0.989E-01
CGA:  23    -0.221641665576E+03   -0.31862E+00   -0.31244E+00  5760   0.267E+01 0.869E-01
CGA:  24    -0.221854223908E+03   -0.21256E+00   -0.21658E+00  5760   0.179E+01 0.525E-01
CGA:  25    -0.222114489607E+03   -0.26027E+00   -0.25798E+00  5760   0.192E+01 0.865E-01
CGA:  26    -0.222475195774E+03   -0.36071E+00   -0.34690E+00  5760   0.214E+01 0.205E+00
CGA:  27    -0.222776580557E+03   -0.30138E+00   -0.30173E+00  5760   0.108E+01 0.151E+00
CGA:  28    -0.223012241721E+03   -0.23566E+00   -0.22973E+00  5760   0.901E+00 0.643E-01
CGA:  29    -0.223229735290E+03   -0.21749E+00   -0.21503E+00  5760   0.850E+00 0.173E-01
CGA:  30    -0.223408313170E+03   -0.17858E+00   -0.17410E+00  5760   0.619E+00 0.475E-01
CGA:  31    -0.223525681290E+03   -0.11737E+00   -0.11659E+00  5760   0.397E+00 0.134E-01
CGA:  32    -0.223627473091E+03   -0.10179E+00   -0.10156E+00  5760   0.363E+00 0.120E-02
CGA:  33    -0.223695626838E+03   -0.68154E-01   -0.68098E-01  5760   0.215E+00 0.862E-03
CGA:  34    -0.223741281138E+03   -0.45654E-01   -0.45416E-01  5760   0.157E+00 0.292E-02
CGA:  35    -0.223776906334E+03   -0.35625E-01   -0.35628E-01  5760   0.127E+00-0.409E-04
CGA:  36    -0.223807232130E+03   -0.30326E-01   -0.30379E-01  5760   0.965E-01-0.543E-03
CGA:  37    -0.223826782384E+03   -0.19550E-01   -0.19583E-01  5760   0.631E-01-0.587E-03
CGA:  38    -0.223841637555E+03   -0.14855E-01   -0.14866E-01  5760   0.570E-01-0.132E-03
CGA:  39    -0.223853730369E+03   -0.12093E-01   -0.12086E-01  5760   0.348E-01 0.119E-03
CGA:  40    -0.223861132026E+03   -0.74017E-02   -0.74014E-02  5760   0.292E-01 0.745E-05
CGA:  41    -0.223868306047E+03   -0.71740E-02   -0.71687E-02  5760   0.246E-01 0.517E-04
CGA:  42    -0.223873859125E+03   -0.55531E-02   -0.55515E-02  5760   0.216E-01 0.218E-04
SDA:  43    -0.223879099727E+03   -0.52406E-02   -0.52364E-02  5760   0.194E-01 0.532E-04
CGA:  44    -0.223883620622E+03   -0.45209E-02   -0.45233E-02  5760   0.124E-01-0.412E-04
CGA:  45    -0.223888361740E+03   -0.47411E-02   -0.47425E-02  5760   0.827E-02-0.737E-05
CGA:  46    -0.223890991656E+03   -0.26299E-02   -0.26287E-02  5760   0.749E-02 0.901E-05
CGA:  47    -0.223893726576E+03   -0.27349E-02   -0.27372E-02  5760   0.603E-02-0.135E-04
CGA:  48    -0.223896149848E+03   -0.24233E-02   -0.24185E-02  5760   0.856E-02 0.253E-04
CGA:  49    -0.223899619251E+03   -0.34694E-02   -0.34740E-02  5760   0.788E-02-0.244E-04
CGA:  50    -0.223904169084E+03   -0.45498E-02   -0.45732E-02  5760   0.119E-01-0.688E-04
CGA:  51    -0.223908874624E+03   -0.47055E-02   -0.47075E-02  5760   0.138E-01-0.903E-05
CGA:  52    -0.223916064961E+03   -0.71903E-02   -0.72276E-02  5760   0.125E-01-0.138E-03
CGA:  53    -0.223920149508E+03   -0.40845E-02   -0.40849E-02  5760   0.933E-02-0.129E-04
CGA:  54    -0.223923757600E+03   -0.36081E-02   -0.36096E-02  5760   0.785E-02-0.932E-05
CGA:  55    -0.223925900134E+03   -0.21425E-02   -0.21425E-02  5760   0.449E-02-0.790E-05
CGA:  56    -0.223927715468E+03   -0.18153E-02   -0.18139E-02  5760   0.377E-02 0.116E-04
CGA:  57    -0.223929003355E+03   -0.12879E-02   -0.12865E-02  5760   0.270E-02 0.268E-04
CGA:  58    -0.223930015172E+03   -0.10118E-02   -0.10111E-02  5760   0.167E-02 0.960E-05
CGA:  59    -0.223930682848E+03   -0.66768E-03   -0.66727E-03  5760   0.169E-02 0.363E-05
CGA:  60    -0.223931225956E+03   -0.54311E-03   -0.54299E-03  5760   0.104E-02 0.520E-05
CGA:  61    -0.223931611515E+03   -0.38556E-03   -0.38638E-03  5760   0.956E-03-0.108E-04
CGA:  62    -0.223931953543E+03   -0.34203E-03   -0.34250E-03  5760   0.502E-03-0.800E-05
CGA:  63    -0.223932135251E+03   -0.18171E-03   -0.18167E-03  5760   0.437E-03 0.523E-06
CGA:  64    -0.223932316495E+03   -0.18124E-03   -0.18140E-03  5760   0.309E-03-0.149E-05
CGA:  65    -0.223932434991E+03   -0.11850E-03   -0.11836E-03  5760   0.426E-03 0.180E-05
CGA:  66    -0.223932608199E+03   -0.17321E-03   -0.17242E-03  5760   0.351E-03 0.900E-05
CGA:  67    -0.223932820926E+03   -0.21273E-03   -0.21148E-03  5760   0.493E-03 0.459E-05
CGA:  68    -0.223933010552E+03   -0.18963E-03   -0.18963E-03  5760   0.424E-03 0.811E-07
CGA:  69    -0.223933185892E+03   -0.17534E-03   -0.17560E-03  5760   0.377E-03-0.315E-05
CGA:  70    -0.223933309257E+03   -0.12336E-03   -0.12332E-03  5760   0.259E-03-0.543E-05
CGA:  71    -0.223933399765E+03   -0.90508E-04   -0.90586E-04  5760   0.215E-03-0.482E-05
CGA:  72    -0.223933466783E+03   -0.67018E-04   -0.66988E-04  5760   0.124E-03-0.135E-05
CGA:  73    -0.223933524153E+03   -0.57370E-04   -0.57398E-04  5760   0.912E-04-0.229E-06
SDA:  74    -0.223933552193E+03   -0.28040E-04   -0.28075E-04  5760   0.702E-04 0.993E-06
CGA:  75    -0.223933566152E+03   -0.13959E-04   -0.14038E-04  5760   0.410E-04 0.554E-06
CGA:  76    -0.223933583226E+03   -0.17074E-04   -0.16959E-04  5760   0.333E-04 0.153E-05
CGA:  77    -0.223933596612E+03   -0.13386E-04   -0.13357E-04  5760   0.348E-04 0.594E-06
CGA:  78    -0.223933610382E+03   -0.13770E-04   -0.13698E-04  5760   0.264E-04 0.160E-05
CGA:  79    -0.223933624372E+03   -0.13990E-04   -0.13894E-04  5760   0.295E-04 0.603E-06
CGA:  80    -0.223933636164E+03   -0.11792E-04   -0.11825E-04  5760   0.302E-04-0.829E-06
CGA:  81    -0.223933645670E+03   -0.95067E-05   -0.95086E-05  5760   0.220E-04 0.611E-07
CGA:  82    -0.223933654278E+03   -0.86077E-05   -0.86205E-05  5760   0.130E-04-0.333E-06
CGA:  83    -0.223933660242E+03   -0.59642E-05   -0.60748E-05  5760   0.152E-04-0.927E-06
CGA:  84    -0.223933664127E+03   -0.38849E-05   -0.39265E-05  5760   0.973E-05 0.512E-06
CGA:  85    -0.223933668104E+03   -0.39766E-05   -0.39514E-05  5760   0.108E-04 0.687E-06
CGA:  86    -0.223933672589E+03   -0.44848E-05   -0.45030E-05  5760   0.928E-05-0.594E-06
CGA:  87    -0.223933676741E+03   -0.41529E-05   -0.41076E-05  5760   0.875E-05 0.417E-06
CGA:  88    -0.223933679808E+03   -0.30662E-05   -0.30676E-05  5760   0.645E-05 0.497E-07
CGA:  89    -0.223933682226E+03   -0.24180E-05   -0.24267E-05  5760   0.816E-05-0.832E-06
CGA:  90    -0.223933684509E+03   -0.22839E-05   -0.22644E-05  5760   0.403E-05-0.428E-06
CGA:  91    -0.223933685781E+03   -0.12713E-05   -0.12797E-05  5760   0.343E-05 0.321E-06
CGA:  92    -0.223933687196E+03   -0.14154E-05   -0.14271E-05  5760   0.376E-05-0.468E-06
CGA:  93    -0.223933688139E+03   -0.94285E-06   -0.92882E-06  5760   0.294E-05-0.186E-06
   1 F= -.23306662E+03 E0= -.23306662E+03  d E =-.298181E-16  mag=     6.0000
