       N       E                     dE             d eps       ncg     rms          ort
DAV:   1     0.355670782869E+04    0.35567E+04   -0.14008E+05  5760   0.226E+03
DAV:   2     0.401534871433E+03   -0.31552E+04   -0.29025E+04  5760   0.556E+02
DAV:   3    -0.221567026013E+03   -0.62310E+03   -0.56311E+03  5760   0.259E+02
DAV:   4    -0.270084191036E+03   -0.48517E+02   -0.47614E+02  5760   0.744E+01
DAV:   5    -0.271585459613E+03   -0.15013E+01   -0.14990E+01  5760   0.130E+01
SDA:   6     0.911053115128E+02    0.36269E+03   -0.14990E+01  5760   0.528E+04 0.000E+00
CGA:   7     0.101756623929E+02   -0.80930E+02   -0.24755E+03  5760   0.762E+04 0.187E+03
CGA:   8    -0.603782036216E+02   -0.70554E+02   -0.31083E+03  5760   0.594E+04 0.609E+03
CGA:   9    -0.123738839796E+03   -0.63361E+02   -0.19470E+03  5760   0.188E+04-0.269E+04
CGA:  10    -0.158730205859E+03   -0.34991E+02   -0.28056E+02  5760   0.570E+03-0.121E+03
CGA:  11    -0.173897212939E+03   -0.15167E+02   -0.26713E+02  5760   0.806E+03-0.202E+03
CGA:  12    -0.195096521462E+03   -0.21199E+02   -0.22420E+02  5760   0.855E+03-0.317E+01
CGA:  13    -0.178202466144E+03    0.16894E+02   -0.30184E+02  5760   0.146E+04-0.982E+03
CGA:  14    -0.186551334789E+03   -0.83489E+01   -0.74584E+02  5760   0.102E+04-0.685E+03
CGA:  15    -0.211802562229E+03   -0.25251E+02   -0.25285E+02  5760   0.147E+03-0.254E+02
CGA:  16    -0.216073953966E+03   -0.42714E+01   -0.47088E+01  5760   0.635E+02-0.674E+01
CGA:  17    -0.217965659245E+03   -0.18917E+01   -0.24302E+01  5760   0.168E+02-0.972E+01
CGA:  18    -0.218400978993E+03   -0.43532E+00   -0.38039E+00  5760   0.703E+01 0.166E+01
CGA:  19    -0.218809157773E+03   -0.40818E+00   -0.42081E+00  5760   0.745E+01-0.334E-01
CGA:  20    -0.219002004188E+03   -0.19285E+00   -0.22885E+00  5760   0.373E+01-0.538E+00
CGA:  21    -0.219182253782E+03   -0.18025E+00   -0.19734E+00  5760   0.614E+01-0.376E+00
CGA:  22    -0.219497319846E+03   -0.31507E+00   -0.32466E+00  5760   0.340E+01-0.359E-01
CGA:  23    -0.219591188580E+03   -0.93869E-01   -0.11167E+00  5760   0.128E+01-0.403E+00
CGA:  24    -0.219658925800E+03   -0.67737E-01   -0.67736E-01  5760   0.104E+01 0.580E-02
CGA:  25    -0.219699042308E+03   -0.40117E-01   -0.47061E-01  5760   0.623E+00-0.419E-01
CGA:  26    -0.219787165876E+03   -0.88124E-01   -0.85717E-01  5760   0.124E+01 0.103E-01
CGA:  27    -0.219846623654E+03   -0.59458E-01   -0.58128E-01  5760   0.435E+00 0.899E-02
CGA:  28    -0.219915569293E+03   -0.68946E-01   -0.69335E-01  5760   0.879E+00-0.937E-03
CGA:  29    -0.219977387601E+03   -0.61818E-01   -0.68211E-01  5760   0.830E+00 0.772E-01
CGA:  30    -0.220138324515E+03   -0.16094E+00   -0.18397E+00  5760   0.144E+01-0.258E+00
CGA:  31    -0.220220558242E+03   -0.82234E-01   -0.82693E-01  5760   0.190E+01 0.247E-02
CGA:  32    -0.220355084763E+03   -0.13453E+00   -0.12376E+00  5760   0.115E+01 0.409E-01
CGA:  33    -0.220454524229E+03   -0.99439E-01   -0.99873E-01  5760   0.184E+01 0.974E-02
CGA:  34    -0.220601900749E+03   -0.14738E+00   -0.14711E+00  5760   0.155E+01 0.713E-02
CGA:  35    -0.220690398188E+03   -0.88497E-01   -0.91920E-01  5760   0.130E+01-0.210E-01
CGA:  36    -0.220795799446E+03   -0.10540E+00   -0.10666E+00  5760   0.108E+01 0.258E-01
CGA:  37    -0.220866612745E+03   -0.70813E-01   -0.69454E-01  5760   0.731E+00 0.792E-02
CGA:  38    -0.220958640176E+03   -0.92027E-01   -0.92050E-01  5760   0.123E+01-0.321E-03
CGA:  39    -0.221034039128E+03   -0.75399E-01   -0.77094E-01  5760   0.626E+00 0.416E-03
CGA:  40    -0.221098971395E+03   -0.64932E-01   -0.64843E-01  5760   0.845E+00 0.785E-02
CGA:  41    -0.221178319756E+03   -0.79348E-01   -0.79001E-01  5760   0.583E+00-0.286E-01
CGA:  42    -0.221224559668E+03   -0.46240E-01   -0.45581E-01  5760   0.734E+00-0.114E-01
CGA:  43    -0.221272304890E+03   -0.47745E-01   -0.47550E-01  5760   0.537E+00 0.125E-02
SDA:  44    -0.221303951160E+03   -0.31646E-01   -0.32337E-01  5760   0.493E+00 0.466E-03
CGA:  45    -0.221362155650E+03   -0.58204E-01   -0.58729E-01  5760   0.547E+00-0.147E-01
CGA:  46    -0.221423712307E+03   -0.61557E-01   -0.61135E-01  5760   0.408E+00 0.134E-01
CGA:  47    -0.221511043879E+03   -0.87332E-01   -0.87259E-01  5760   0.193E+00 0.578E-03
CGA:  48    -0.221550678204E+03   -0.39634E-01   -0.39769E-01  5760   0.271E+00-0.139E-02
CGA:  49    -0.221577319912E+03   -0.26642E-01   -0.26590E-01  5760   0.171E+00-0.285E-02
CGA:  50    -0.221600137166E+03   -0.22817E-01   -0.22711E-01  5760   0.169E+00 0.258E-02
CGA:  51    -0.221634013861E+03   -0.33877E-01   -0.34179E-01  5760   0.169E+00-0.360E-02
CGA:  52    -0.221672961345E+03   -0.38947E-01   -0.37027E-01  5760   0.244E+00 0.198E-01
CGA:  53    -0.221696242509E+03   -0.23281E-01   -0.20750E-01  5760   0.268E+00 0.775E-02
CGA:  54    -0.221728563527E+03   -0.32321E-01   -0.35757E-01  5760   0.112E+01-0.162E+00
CGA:  55    -0.221773570657E+03   -0.45007E-01   -0.60459E-01  5760   0.308E+00-0.191E+00
CGA:  56    -0.221834984658E+03   -0.61414E-01   -0.63093E-01  5760   0.558E+00-0.137E-01
CGA:  57    -0.221931930131E+03   -0.96945E-01   -0.86654E-01  5760   0.202E+00 0.169E+00
CGA:  58    -0.221999414191E+03   -0.67484E-01   -0.68840E-01  5760   0.244E+00-0.102E-01
CGA:  59    -0.222045420458E+03   -0.46006E-01   -0.47079E-01  5760   0.238E+00-0.197E-01
CGA:  60    -0.222075513059E+03   -0.30093E-01   -0.30055E-01  5760   0.170E+00 0.612E-02
CGA:  61    -0.222098229482E+03   -0.22716E-01   -0.22734E-01  5760   0.106E+00 0.383E-02
CGA:  62    -0.222114060735E+03   -0.15831E-01   -0.15812E-01  5760   0.615E-01 0.842E-03
CGA:  63    -0.222125419717E+03   -0.11359E-01   -0.11353E-01  5760   0.624E-01 0.157E-03
CGA:  64    -0.222135609999E+03   -0.10190E-01   -0.10178E-01  5760   0.355E-01 0.308E-03
CGA:  65    -0.222141519100E+03   -0.59091E-02   -0.58805E-02  5760   0.293E-01 0.707E-03
CGA:  66    -0.222147899877E+03   -0.63808E-02   -0.63612E-02  5760   0.238E-01 0.209E-03
CGA:  67    -0.222152009663E+03   -0.41098E-02   -0.41097E-02  5760   0.177E-01 0.145E-04
CGA:  68    -0.222156285690E+03   -0.42760E-02   -0.42770E-02  5760   0.198E-01-0.152E-04
CGA:  69    -0.222159776784E+03   -0.34911E-02   -0.34958E-02  5760   0.103E-01-0.121E-03
CGA:  70    -0.222161755532E+03   -0.19787E-02   -0.19823E-02  5760   0.988E-02-0.361E-04
CGA:  71    -0.222163962089E+03   -0.22066E-02   -0.22086E-02  5760   0.719E-02-0.203E-04
CGA:  72    -0.222165370360E+03   -0.14083E-02   -0.14066E-02  5760   0.633E-02 0.345E-04
CGA:  73    -0.222166828599E+03   -0.14582E-02   -0.14611E-02  5760   0.552E-02-0.372E-04
CGA:  74    -0.222168141692E+03   -0.13131E-02   -0.13161E-02  5760   0.622E-02-0.181E-04
CGA:  75    -0.222169470198E+03   -0.13285E-02   -0.13273E-02  5760   0.539E-02 0.488E-04
CGA:  76    -0.222170796529E+03   -0.13263E-02   -0.13102E-02  5760   0.576E-02 0.176E-03
CGA:  77    -0.222172100016E+03   -0.13035E-02   -0.13002E-02  5760   0.573E-02-0.238E-08
CGA:  78    -0.222173571047E+03   -0.14710E-02   -0.14751E-02  5760   0.644E-02-0.348E-04
CGA:  79    -0.222175217508E+03   -0.16465E-02   -0.16470E-02  5760   0.850E-02 0.715E-04
CGA:  80    -0.222176951077E+03   -0.17336E-02   -0.17274E-02  5760   0.499E-02 0.221E-03
CGA:  81    -0.222178041494E+03   -0.10904E-02   -0.10885E-02  5760   0.605E-02 0.461E-06
CGA:  82    -0.222179541457E+03   -0.15000E-02   -0.15067E-02  5760   0.490E-02-0.456E-04
CGA:  83    -0.222180402233E+03   -0.86078E-03   -0.86101E-03  5760   0.351E-02 0.511E-05
CGA:  84    -0.222181183058E+03   -0.78083E-03   -0.78292E-03  5760   0.335E-02-0.364E-04
SDA:  85    -0.222181895698E+03   -0.71264E-03   -0.71221E-03  5760   0.270E-02-0.352E-04
CGA:  86    -0.222182350821E+03   -0.45512E-03   -0.45589E-03  5760   0.121E-02 0.130E-04
CGA:  87    -0.222182695123E+03   -0.34430E-03   -0.34416E-03  5760   0.851E-03 0.437E-05
CGA:  88    -0.222183025508E+03   -0.33039E-03   -0.32800E-03  5760   0.570E-03 0.115E-04
CGA:  89    -0.222183215426E+03   -0.18992E-03   -0.18887E-03  5760   0.404E-03 0.682E-05
CGA:  90    -0.222183381737E+03   -0.16631E-03   -0.16644E-03  5760   0.400E-03-0.589E-06
CGA:  91    -0.222183518308E+03   -0.13657E-03   -0.13712E-03  5760   0.311E-03-0.416E-05
CGA:  92    -0.222183629567E+03   -0.11126E-03   -0.11075E-03  5760   0.363E-03 0.166E-05
CGA:  93    -0.222183764908E+03   -0.13534E-03   -0.13613E-03  5760   0.307E-03-0.349E-05
CGA:  94    -0.222183900446E+03   -0.13554E-03   -0.13683E-03  5760   0.436E-03-0.658E-05
CGA:  95    -0.222184003659E+03   -0.10321E-03   -0.10321E-03  5760   0.268E-03 0.111E-05
CGA:  96    -0.222184100148E+03   -0.96489E-04   -0.95707E-04  5760   0.196E-03 0.619E-05
CGA:  97    -0.222184186458E+03   -0.86311E-04   -0.87137E-04  5760   0.181E-03-0.451E-05
CGA:  98    -0.222184258857E+03   -0.72399E-04   -0.71179E-04  5760   0.151E-03 0.800E-05
CGA:  99    -0.222184334301E+03   -0.75444E-04   -0.75206E-04  5760   0.175E-03 0.120E-05
CGA: 100    -0.222184395795E+03   -0.61494E-04   -0.61635E-04  5760   0.192E-03-0.126E-05
CGA: 101    -0.222184450664E+03   -0.54869E-04   -0.54869E-04  5760   0.157E-03-0.880E-07
CGA: 102    -0.222184501573E+03   -0.50909E-04   -0.50850E-04  5760   0.126E-03 0.163E-05
CGA: 103    -0.222184549878E+03   -0.48306E-04   -0.48365E-04  5760   0.882E-04-0.797E-06
CGA: 104    -0.222184584792E+03   -0.34914E-04   -0.34877E-04  5760   0.698E-04-0.587E-06
CGA: 105    -0.222184608013E+03   -0.23221E-04   -0.23163E-04  5760   0.626E-04 0.184E-05
CGA: 106    -0.222184626342E+03   -0.18329E-04   -0.18313E-04  5760   0.572E-04-0.555E-06
CGA: 107    -0.222184643422E+03   -0.17080E-04   -0.17080E-04  5760   0.391E-04-0.955E-06
CGA: 108    -0.222184659055E+03   -0.15633E-04   -0.15527E-04  5760   0.403E-04 0.108E-05
CGA: 109    -0.222184674295E+03   -0.15240E-04   -0.15252E-04  5760   0.403E-04-0.207E-06
CGA: 110    -0.222184687047E+03   -0.12752E-04   -0.12775E-04  5760   0.315E-04-0.167E-05
CGA: 111    -0.222184697924E+03   -0.10877E-04   -0.10848E-04  5760   0.217E-04 0.376E-06
CGA: 112    -0.222184704112E+03   -0.61881E-05   -0.62093E-05  5760   0.196E-04 0.682E-06
CGA: 113    -0.222184710528E+03   -0.64153E-05   -0.64183E-05  5760   0.170E-04-0.279E-06
CGA: 114    -0.222184715877E+03   -0.53495E-05   -0.53466E-05  5760   0.119E-04 0.301E-06
CGA: 115    -0.222184721889E+03   -0.60113E-05   -0.58422E-05  5760   0.106E-04 0.881E-06
SDA: 116    -0.222184726254E+03   -0.43650E-05   -0.43870E-05  5760   0.699E-05-0.251E-06
CGA: 117    -0.222184727814E+03   -0.15604E-05   -0.15924E-05  5760   0.406E-05 0.233E-06
CGA: 118    -0.222184729289E+03   -0.14752E-05   -0.14787E-05  5760   0.406E-05-0.968E-07
CGA: 119    -0.222184730460E+03   -0.11707E-05   -0.11643E-05  5760   0.328E-05-0.240E-06
CGA: 120    -0.222184731819E+03   -0.13591E-05   -0.13734E-05  5760   0.445E-05-0.112E-06
CGA: 121    -0.222184733046E+03   -0.12267E-05   -0.12265E-05  5760   0.319E-05 0.450E-08
CGA: 122    -0.222184734507E+03   -0.14616E-05   -0.15255E-05  5760   0.459E-05-0.394E-06
CGA: 123    -0.222184735771E+03   -0.12637E-05   -0.12664E-05  5760   0.277E-05 0.428E-07
CGA: 124    -0.222184736863E+03   -0.10922E-05   -0.10767E-05  5760   0.188E-05 0.279E-06
CGA: 125    -0.222184737853E+03   -0.99026E-06   -0.10444E-05  5760   0.309E-05-0.309E-06
   1 F= -.23321642E+03 E0= -.23321633E+03  d E =-.181971E-03  mag=     6.0000
