 vasp.5.4.4.18Apr17-6-g9f103f2a35 (build Nov 22 2021 14:44:17) complex          
  
 executed on             LinuxIFC date 2022.08.06  11:41:12
 running on   64 total cores
 distrk:  each k-point on   64 cores,    1 groups
 distr:  one band on NCORES_PER_BAND=   4 cores,   16 groups


--------------------------------------------------------------------------------------------------------


 INCAR:
 POTCAR:    PAW_PBE Li 17Jan2003                  
 POTCAR:    PAW_PBE Co 02Aug2007                  
 POTCAR:    PAW_PBE O 08Apr2002                   
 POTCAR:    PAW_PBE Li 17Jan2003                  
   VRHFIN =Li: s1p0                                                             
   LEXCH  = PE                                                                  
   EATOM  =     5.3001 eV,    0.3895 Ry                                         
                                                                                
   TITEL  = PAW_PBE Li 17Jan2003                                                
   LULTRA =        F    use ultrasoft PP ?                                      
   IUNSCR =        1    unscreen: 0-lin 1-nonlin 2-no                           
   RPACOR =    1.500    partial core radius                                     
   POMASS =    7.010; ZVAL   =    1.000    mass and valenz                      
   RCORE  =    2.050    outmost cutoff radius                                   
   RWIGS  =    2.600; RWIGS  =    1.376    wigner-seitz radius (au A)           
   ENMAX  =  140.000; ENMIN  =  100.000 eV                                      
   ICORE  =        2    local potential                                         
   LCOR   =        T    correct aug charges                                     
   LPAW   =        T    paw PP                                                  
   EAUG   =  331.638                                                            
   DEXC   =    0.000                                                            
   RMAX   =    2.098    core radius for proj-oper                               
   RAUG   =    1.300    factor for augmentation sphere                          
   RDEP   =    2.094    radius for radial grids                                 
   RDEPT  =    1.810    core radius for aug-charge                              
                                                                                
   Atomic configuration                                                         
    4 entries                                                                   
     n  l   j            E        occ.                                          
     1  0  0.50       -51.8549   2.0000                                         
     2  0  0.50        -2.8742   1.0000                                         
     2  1  0.50        -1.3606   0.0000                                         
     3  2  1.50        -1.3606   0.0000                                         
   Description                                                                  
     l       E           TYP  RCUT    TYP  RCUT                                 
     0     -2.8742052     23  2.050                                             
     0     27.2116520     23  2.050                                             
     1     -1.3605826     23  2.050                                             
     2     -1.3605826     23  2.050                                             
  local pseudopotential read in
  partial core-charges read in
  partial kinetic energy density read in
  atomic valenz-charges read in
  non local Contribution for L=           0  read in
    real space projection operators read in
  non local Contribution for L=           0  read in
    real space projection operators read in
  non local Contribution for L=           1  read in
    real space projection operators read in
    PAW grid and wavefunctions read in
 
   number of l-projection  operators is LMAX  =           3
   number of lm-projection operators is LMMAX =           5
 
 POTCAR:    PAW_PBE Co 02Aug2007                  
   VRHFIN =Co: d8 s1                                                            
   LEXCH  = PE                                                                  
   EATOM  =   813.3670 eV,   59.7808 Ry                                         
                                                                                
   TITEL  = PAW_PBE Co 02Aug2007                                                
   LULTRA =        F    use ultrasoft PP ?                                      
   IUNSCR =        1    unscreen: 0-lin 1-nonlin 2-no                           
   RPACOR =    2.000    partial core radius                                     
   POMASS =   58.933; ZVAL   =    9.000    mass and valenz                      
   RCORE  =    2.300    outmost cutoff radius                                   
   RWIGS  =    2.460; RWIGS  =    1.302    wigner-seitz radius (au A)           
   ENMAX  =  267.968; ENMIN  =  200.976 eV                                      
   RCLOC  =    1.203    cutoff for local pot                                    
   LCOR   =        T    correct aug charges                                     
   LPAW   =        T    paw PP                                                  
   EAUG   =  477.818                                                            
   DEXC   =    0.000                                                            
   RMAX   =    2.360    core radius for proj-oper                               
   RAUG   =    1.300    factor for augmentation sphere                          
   RDEP   =    2.393    radius for radial grids                                 
   RDEPT  =    1.864    core radius for aug-charge                              
                                                                                
   Atomic configuration                                                         
    9 entries                                                                   
     n  l   j            E        occ.                                          
     1  0  0.50     -7587.6674   2.0000                                         
     2  0  0.50      -893.6084   2.0000                                         
     2  1  1.50      -764.5805   6.0000                                         
     3  0  0.50       -97.5973   2.0000                                         
     3  1  1.50       -60.9648   6.0000                                         
     3  2  2.50        -4.2382   8.0000                                         
     4  0  0.50        -4.3746   1.0000                                         
     4  1  1.50        -4.0817   0.0000                                         
     4  3  2.50        -1.3606   0.0000                                         
   Description                                                                  
     l       E           TYP  RCUT    TYP  RCUT                                 
     2     -4.2382362     23  2.300                                             
     2     -5.5988188     23  2.300                                             
     0     -4.3745797     23  2.300                                             
     0      5.7660125     23  2.300                                             
     1     -2.7211652     23  2.300                                             
     1     16.9860234     23  2.300                                             
  local pseudopotential read in
  partial core-charges read in
  partial kinetic energy density read in
  atomic valenz-charges read in
  non local Contribution for L=           2  read in
    real space projection operators read in
  non local Contribution for L=           2  read in
    real space projection operators read in
  non local Contribution for L=           0  read in
    real space projection operators read in
  non local Contribution for L=           0  read in
    real space projection operators read in
  non local Contribution for L=           1  read in
    real space projection operators read in
  non local Contribution for L=           1  read in
    real space projection operators read in
    PAW grid and wavefunctions read in
 
   number of l-projection  operators is LMAX  =           6
   number of lm-projection operators is LMMAX =          18
 
 POTCAR:    PAW_PBE O 08Apr2002                   
   VRHFIN =O: s2p4                                                              
   LEXCH  = PE                                                                  
   EATOM  =   432.3788 eV,   31.7789 Ry                                         
                                                                                
   TITEL  = PAW_PBE O 08Apr2002                                                 
   LULTRA =        F    use ultrasoft PP ?                                      
   IUNSCR =        1    unscreen: 0-lin 1-nonlin 2-no                           
   RPACOR =    1.200    partial core radius                                     
   POMASS =   16.000; ZVAL   =    6.000    mass and valenz                      
   RCORE  =    1.520    outmost cutoff radius                                   
   RWIGS  =    1.550; RWIGS  =    0.820    wigner-seitz radius (au A)           
   ENMAX  =  400.000; ENMIN  =  300.000 eV                                      
   ICORE  =        2    local potential                                         
   LCOR   =        T    correct aug charges                                     
   LPAW   =        T    paw PP                                                  
   EAUG   =  605.392                                                            
   DEXC   =    0.000                                                            
   RMAX   =    1.553    core radius for proj-oper                               
   RAUG   =    1.300    factor for augmentation sphere                          
   RDEP   =    1.550    radius for radial grids                                 
   RDEPT  =    1.329    core radius for aug-charge                              
                                                                                
   Atomic configuration                                                         
    4 entries                                                                   
     n  l   j            E        occ.                                          
     1  0  0.50      -514.6923   2.0000                                         
     2  0  0.50       -23.9615   2.0000                                         
     2  1  0.50        -9.0305   4.0000                                         
     3  2  1.50        -9.5241   0.0000                                         
   Description                                                                  
     l       E           TYP  RCUT    TYP  RCUT                                 
     0    -23.9615318     23  1.200                                             
     0     -9.5240782     23  1.200                                             
     1     -9.0304911     23  1.520                                             
     1      8.1634956     23  1.520                                             
     2     -9.5240782      7  1.500                                             
  local pseudopotential read in
  partial core-charges read in
  partial kinetic energy density read in
  kinetic energy density of atom read in
  atomic valenz-charges read in
  non local Contribution for L=           0  read in
    real space projection operators read in
  non local Contribution for L=           0  read in
    real space projection operators read in
  non local Contribution for L=           1  read in
    real space projection operators read in
  non local Contribution for L=           1  read in
    real space projection operators read in
    PAW grid and wavefunctions read in
 
   number of l-projection  operators is LMAX  =           4
   number of lm-projection operators is LMMAX =           8
 
 Optimization of the real space projectors (new method)

 maximal supplied QI-value         = 18.33
 optimisation between [QCUT,QGAM] = [ 12.46, 24.93] = [ 43.51,174.03] Ry 
 Optimized for a Real-space Cutoff    1.13 Angstroem

   l    n(q)    QCUT    max X(q) W(low)/X(q) W(high)/X(q)  e(spline) 
   0      8    12.465    33.825    0.12E-03    0.29E-03    0.99E-07
   0      8    12.465     8.944    0.86E-04    0.22E-03    0.72E-07
   1      8    12.465     4.214    0.27E-03    0.11E-03    0.82E-07
 Optimization of the real space projectors (new method)

 maximal supplied QI-value         = 16.25
 optimisation between [QCUT,QGAM] = [ 12.51, 25.03] = [ 43.85,175.40] Ry 
 Optimized for a Real-space Cutoff    1.31 Angstroem

   l    n(q)    QCUT    max X(q) W(low)/X(q) W(high)/X(q)  e(spline) 
   2      9    12.514    65.824    0.30E-03    0.46E-03    0.43E-06
   2      9    12.514    61.429    0.31E-03    0.46E-03    0.44E-06
   0     10    12.514    56.174    0.90E-04    0.33E-03    0.30E-06
   0     10    12.514    31.263    0.81E-04    0.30E-03    0.28E-06
   1      9    12.514    19.828    0.38E-03    0.65E-04    0.24E-06
   1      9    12.514    15.139    0.32E-03    0.60E-04    0.20E-06
 Optimization of the real space projectors (new method)

 maximal supplied QI-value         = 24.76
 optimisation between [QCUT,QGAM] = [ 12.38, 25.00] = [ 42.90,175.06] Ry 
 Optimized for a Real-space Cutoff    1.13 Angstroem

   l    n(q)    QCUT    max X(q) W(low)/X(q) W(high)/X(q)  e(spline) 
   0      8    12.378    20.381    0.16E-03    0.54E-05    0.27E-06
   0      8    12.378    15.268    0.17E-03    0.61E-05    0.29E-06
   1      8    12.378     5.964    0.38E-03    0.23E-03    0.28E-06
   1      8    12.378     5.382    0.33E-03    0.20E-03    0.25E-06
  PAW_PBE Li 17Jan2003                  :
 energy of atom  1       EATOM=   -5.3001
 kinetic energy error for atom=    0.0000 (will be added to EATOM!!)
  PAW_PBE Co 02Aug2007                  :
 energy of atom  2       EATOM= -813.3670
 kinetic energy error for atom=    0.0018 (will be added to EATOM!!)
  PAW_PBE O 08Apr2002                   :
 energy of atom  3       EATOM= -432.3788
 kinetic energy error for atom=    0.0168 (will be added to EATOM!!)
 
 
 POSCAR: Li6 Co12 O24                            
  positions in cartesian coordinates
  No initial velocities read in
 exchange correlation table for  LEXCH =        8
   RHO(1)=    0.500       N(1)  =     2000
   RHO(2)=  100.500       N(2)  =     4000
 


--------------------------------------------------------------------------------------------------------


 ion  position               nearest neighbor table
   1  0.986  0.916  0.993-  38 1.90  26 1.92  36 2.00  23 2.17  35 2.21  25 2.31   3 2.71  18 2.77
                             2 2.79  17 2.83   3 2.88   2 2.89  10 2.90   8 2.97  15 3.08   7 3.08
   2  0.464  0.895  0.985-  36 1.77  38 2.09  24 2.12  37 2.25  25 2.40  23 2.47  16 2.58   3 2.69
                             1 2.79  15 2.82   1 2.89   3 2.94  10 2.97  17 2.99   8 3.00
   3  0.500  0.432  0.995-  23 1.99  35 1.99  38 2.07  26 2.13  24 2.26  37 2.31   2 2.69   1 2.71
                            16 2.83   9 2.83   1 2.88  15 2.92   2 2.94  18 2.97   7 3.00  10 3.02
   4  0.561  0.693  0.327-  21 1.83  33 1.99  22 2.18  34 2.19  10 2.46  19 2.59  14 2.67   8 3.10

   5  0.680  0.381  0.676-  41 1.95  42 2.03  40 2.06  30 2.12  29 2.18  27 2.24  15 2.64  17 2.76
                            18 2.76   6 2.79   6 2.84  12 2.89  14 2.94  13 3.11
   6  0.730  0.911  0.677-  39 1.93  42 2.00  30 2.00  41 2.10  29 2.19  28 2.59  11 2.65  18 2.69
                            17 2.69   5 2.79   5 2.84  16 2.89  14 3.04
   7  0.161  0.224  0.167-  23 1.86  24 1.87  22 1.91  19 1.91  25 1.91  20 1.92  10 2.69   8 2.76
                             9 2.83   8 2.85   9 2.85  10 2.90   3 3.00   1 3.08
   8  0.178  0.725  0.168-  21 1.82  20 1.83  24 1.90  19 1.92  26 2.01  23 2.04   9 2.72   7 2.76
                            10 2.78   7 2.85   9 2.88  10 2.90   1 2.97   2 3.00   4 3.10
   9  0.678  0.255  0.164-  21 1.86  26 1.90  20 1.93  22 1.96  25 1.97  23 2.02   8 2.72  10 2.76
                             3 2.83   7 2.83  10 2.85   7 2.85   8 2.88
  10  0.678  0.747  0.163-  25 1.83  19 1.87  22 1.89  24 1.95  21 1.96  26 1.99   4 2.46   7 2.69
                             9 2.76   8 2.78   9 2.85   8 2.90   7 2.90   1 2.90   2 2.97   3 3.02
  11  0.972  0.086  0.512-  31 1.78  30 1.84  29 1.85  32 1.90  34 1.91  27 1.96   6 2.65  12 2.71
                            14 2.77  13 2.79  14 2.82  12 2.91  13 2.91
  12  0.972  0.608  0.503-  28 1.87  29 1.87  32 1.90  30 1.94  31 2.00  33 2.06  11 2.71  13 2.71
                            14 2.73  13 2.88   5 2.89  11 2.91  14 2.95
  13  0.460  0.091  0.496-  32 1.85  28 1.85  33 1.88  34 1.90  27 1.91  29 1.97  12 2.71  14 2.75
                            11 2.79  14 2.87  12 2.88  11 2.91   5 3.11
  14  0.482  0.586  0.510-  27 1.79  34 1.83  31 1.84  30 1.84  33 1.87  28 1.96   4 2.67  12 2.73
                            13 2.75  11 2.77  11 2.82  13 2.87   5 2.94  12 2.95   6 3.04
  15  0.363  0.172  0.823-  39 1.82  41 1.87  35 1.87  37 1.91  42 1.95  36 2.02   5 2.64  16 2.79
                            18 2.79  18 2.80   2 2.82  16 2.83  17 2.83  17 2.85   3 2.92   1 3.08
  16  0.361  0.672  0.832-  35 1.92  38 1.93  41 1.93  42 1.94  40 1.94  36 2.07   2 2.58  17 2.77
                            15 2.79  17 2.82  18 2.82   3 2.83  15 2.83  18 2.86   6 2.89
  17  0.866  0.175  0.830-  40 1.81  37 1.82  39 1.90  41 1.91  35 1.93  38 2.02   6 2.69   5 2.76
                            16 2.77  18 2.80  18 2.81  16 2.82  15 2.83   1 2.83  15 2.85   2 2.99
  18  0.858  0.672  0.830-  42 1.83  39 1.90  38 1.92  37 1.92  36 1.94  40 2.01   6 2.69   5 2.76
                             1 2.77  15 2.79  17 2.80  15 2.80  17 2.81  16 2.82  16 2.86   3 2.97
  19  0.999  0.860  0.234-  10 1.87   7 1.91   8 1.92   4 2.59
  20  0.012  0.384  0.236-   8 1.83   7 1.92   9 1.93
  21  0.503  0.899  0.229-   8 1.82   4 1.83   9 1.86  10 1.96
  22  0.500  0.393  0.234-  10 1.89   7 1.91   9 1.96   4 2.18
  23  0.321  0.105  0.091-   7 1.86   3 1.99   9 2.02   8 2.04   1 2.17   2 2.47
  24  0.329  0.574  0.097-   7 1.87   8 1.90  10 1.95   2 2.12   3 2.26
  25  0.833  0.089  0.095-  10 1.83   7 1.91   9 1.97   1 2.31   2 2.40
  26  0.842  0.602  0.087-   9 1.90   1 1.92  10 1.99   8 2.01   3 2.13
  27  0.331  0.247  0.574-  14 1.79  13 1.91  11 1.96   5 2.24
  28  0.305  0.750  0.568-  13 1.85  12 1.87  14 1.96   6 2.59
  29  0.808  0.247  0.566-  11 1.85  12 1.87  13 1.97   5 2.18   6 2.19
  30  0.801  0.737  0.578-  14 1.84  11 1.84  12 1.94   6 2.00   5 2.12
  31  0.148  0.426  0.450-  11 1.78  14 1.84  12 2.00
  32  0.130  0.965  0.433-  13 1.85  11 1.90  12 1.90
  33  0.611  0.448  0.429-  14 1.87  13 1.88   4 1.99  12 2.06
  34  0.637  0.932  0.444-  14 1.83  13 1.90  11 1.91   4 2.19
  35  0.209  0.303  0.898-  15 1.87  16 1.92  17 1.93   3 1.99   1 2.21
  36  0.179  0.816  0.910-   2 1.77  18 1.94   1 2.00  15 2.02  16 2.07
  37  0.695  0.300  0.894-  17 1.82  15 1.91  18 1.92   2 2.25   3 2.31
  38  0.691  0.798  0.906-   1 1.90  18 1.92  16 1.93  17 2.02   3 2.07   2 2.09
  39  0.034  0.034  0.763-  15 1.82  17 1.90  18 1.90   6 1.93
  40  0.024  0.509  0.760-  17 1.81  16 1.94  18 2.01   5 2.06
  41  0.532  0.033  0.760-  15 1.87  17 1.91  16 1.93   5 1.95   6 2.10
  42  0.545  0.550  0.759-  18 1.83  16 1.94  15 1.95   6 2.00   5 2.03
 

IMPORTANT INFORMATION: All symmetrisations will be switched off!
NOSYMM: (Re-)initialisation of all symmetry stuff for point group C_1.

 
 

Automatic generation of k-mesh.
 generate k-points for:    6    6    2
Space group operators:
 irot       det(A)        alpha          n_x          n_y          n_z        tau_x        tau_y        tau_z
    1     1.000000     0.000000     1.000000     0.000000     0.000000     0.000000     0.000000     0.000000
 
 Subroutine IBZKPT returns following result:
 ===========================================
 
 Found     36 irreducible k-points:
 
 Following reciprocal coordinates:
            Coordinates               Weight
  0.083333  0.083333  0.250000      2.000000
  0.250000  0.083333  0.250000      2.000000
  0.416667  0.083333  0.250000      2.000000
 -0.416667  0.083333  0.250000      2.000000
 -0.250000  0.083333  0.250000      2.000000
 -0.083333  0.083333  0.250000      2.000000
  0.083333  0.250000  0.250000      2.000000
  0.250000  0.250000  0.250000      2.000000
  0.416667  0.250000  0.250000      2.000000
 -0.416667  0.250000  0.250000      2.000000
 -0.250000  0.250000  0.250000      2.000000
 -0.083333  0.250000  0.250000      2.000000
  0.083333  0.416667  0.250000      2.000000
  0.250000  0.416667  0.250000      2.000000
  0.416667  0.416667  0.250000      2.000000
 -0.416667  0.416667  0.250000      2.000000
 -0.250000  0.416667  0.250000      2.000000
 -0.083333  0.416667  0.250000      2.000000
  0.083333 -0.416667  0.250000      2.000000
  0.250000 -0.416667  0.250000      2.000000
  0.416667 -0.416667  0.250000      2.000000
 -0.416667 -0.416667  0.250000      2.000000
 -0.250000 -0.416667  0.250000      2.000000
 -0.083333 -0.416667  0.250000      2.000000
  0.083333 -0.250000  0.250000      2.000000
  0.250000 -0.250000  0.250000      2.000000
  0.416667 -0.250000  0.250000      2.000000
 -0.416667 -0.250000  0.250000      2.000000
 -0.250000 -0.250000  0.250000      2.000000
 -0.083333 -0.250000  0.250000      2.000000
  0.083333 -0.083333  0.250000      2.000000
  0.250000 -0.083333  0.250000      2.000000
  0.416667 -0.083333  0.250000      2.000000
 -0.416667 -0.083333  0.250000      2.000000
 -0.250000 -0.083333  0.250000      2.000000
 -0.083333 -0.083333  0.250000      2.000000
 
 Following cartesian coordinates:
            Coordinates               Weight
  0.014683  0.025958  0.015519      2.000000
  0.044048  0.043341  0.015829      2.000000
  0.073414  0.060725  0.016138      2.000000
 -0.073414 -0.026193  0.014590      2.000000
 -0.044048 -0.008809  0.014899      2.000000
 -0.014683  0.008574  0.015209      2.000000
  0.014683  0.060490  0.011575      2.000000
  0.044048  0.077873  0.011885      2.000000
  0.073414  0.095257  0.012195      2.000000
 -0.073414  0.008339  0.010646      2.000000
 -0.044048  0.025722  0.010956      2.000000
 -0.014683  0.043106  0.011266      2.000000
  0.014683  0.095022  0.007632      2.000000
  0.044048  0.112405  0.007942      2.000000
  0.073414  0.129789  0.008251      2.000000
 -0.073414  0.042871  0.006703      2.000000
 -0.044048  0.060254  0.007012      2.000000
 -0.014683  0.077638  0.007322      2.000000
  0.014683 -0.077638  0.027349      2.000000
  0.044048 -0.060254  0.027659      2.000000
  0.073414 -0.042871  0.027969      2.000000
 -0.073414 -0.129789  0.026420      2.000000
 -0.044048 -0.112405  0.026730      2.000000
 -0.014683 -0.095022  0.027040      2.000000
  0.014683 -0.043106  0.023406      2.000000
  0.044048 -0.025722  0.023716      2.000000
  0.073414 -0.008339  0.024025      2.000000
 -0.073414 -0.095257  0.022477      2.000000
 -0.044048 -0.077873  0.022786      2.000000
 -0.014683 -0.060490  0.023096      2.000000
  0.014683 -0.008574  0.019462      2.000000
  0.044048  0.008809  0.019772      2.000000
  0.073414  0.026193  0.020082      2.000000
 -0.073414 -0.060725  0.018533      2.000000
 -0.044048 -0.043341  0.018843      2.000000
 -0.014683 -0.025958  0.019153      2.000000
 


--------------------------------------------------------------------------------------------------------




 Dimension of arrays:
   k-points           NKPTS =     36   k-points in BZ     NKDIM =     36   number of bands    NBANDS=    160
   number of dos      NEDOS =    301   number of ions     NIONS =     42
   non local maximal  LDIM  =      6   non local SUM 2l+1 LMDIM =     18
   total plane-waves  NPLWV = 116640
   max r-space proj   IRMAX =   2809   max aug-charges    IRDMAX=  11843
   dimension x,y,z NGX =    36 NGY =   36 NGZ =   90
   dimension x,y,z NGXF=    72 NGYF=   72 NGZF=  180
   support grid    NGXF=    72 NGYF=   72 NGZF=  180
   ions per type =               6  12  24
   NGX,Y,Z   is equivalent  to a cutoff of  10.54, 10.67, 10.28 a.u.
   NGXF,Y,Z  is equivalent  to a cutoff of  21.09, 21.34, 20.55 a.u.

 SYSTEM =  LiCoO2                                  
 POSCAR =  Li6 Co12 O24                            

 Startparameter for this run:
   NWRITE =      2    write-flag & timer
   PREC   = normal    normal or accurate (medium, high low for compatibility)
   ISTART =      0    job   : 0-new  1-cont  2-samecut
   ICHARG =      2    charge: 1-file 2-atom 10-const
   ISPIN  =      2    spin polarized calculation?
   LNONCOLLINEAR =      F non collinear calculations
   LSORBIT =      F    spin-orbit coupling
   INIWAV =      1    electr: 0-lowe 1-rand  2-diag
   LASPH  =      F    aspherical Exc in radial PAW
   METAGGA=      F    non-selfconsistent MetaGGA calc.

 Electronic Relaxation 1
   ENCUT  =  600.0 eV  44.10 Ry    6.64 a.u.  11.34 11.20 29.08*2*pi/ulx,y,z
   ENINI  =  600.0     initial cutoff
   ENAUG  =  605.4 eV  augmentation charge cutoff
   NELM   =    600;   NELMIN=  2; NELMDL= -5     # of ELM steps 
   EDIFF  = 0.1E-05   stopping-criterion for ELM
   LREAL  =      T    real-space projection
   NLSPLINE    = F    spline interpolate recip. space projectors
   LCOMPAT=      F    compatible to vasp.4.4
   GGA_COMPAT  = T    GGA compatible to vasp.4.4-vasp.4.6
   LMAXPAW     = -100 max onsite density
   LMAXMIX     =    2 max onsite mixed and CHGCAR
   VOSKOWN=      0    Vosko Wilk Nusair interpolation
   ROPT   =   -0.00050  -0.00050  -0.00050
 Ionic relaxation
   EDIFFG = 0.1E-04   stopping-criterion for IOM
   NSW    =      0    number of steps for IOM
   NBLOCK =      1;   KBLOCK =      1    inner block; outer block 
   IBRION =     -1    ionic relax: 0-MD 1-quasi-New 2-CG
   NFREE  =      0    steps in history (QN), initial steepest desc. (CG)
   ISIF   =      2    stress and relaxation
   IWAVPR =     10    prediction:  0-non 1-charg 2-wave 3-comb
   ISYM   =      0    0-nonsym 1-usesym 2-fastsym
   LCORR  =      T    Harris-Foulkes like correction to forces

   POTIM  = 0.5000    time-step for ionic-motion
   TEIN   =    0.0    initial temperature
   TEBEG  =    0.0;   TEEND  =   0.0 temperature during run
   SMASS  =  -3.00    Nose mass-parameter (am)
   estimated Nose-frequenzy (Omega)   =  0.10E-29 period in steps =****** mass=  -0.736E-27a.u.
   SCALEE = 1.0000    scale energy and forces
   NPACO  =    256;   APACO  = 16.0  distance and # of slots for P.C.
   PSTRESS=    0.0 pullay stress

  Mass of Ions in am
   POMASS =   7.01 58.93 16.00
  Ionic Valenz
   ZVAL   =   1.00  9.00  6.00
  Atomic Wigner-Seitz radii
   RWIGS  =  -1.00 -1.00 -1.00
  virtual crystal weights 
   VCA    =   1.00  1.00  1.00
   NELECT =     258.0000    total number of electrons
   NUPDOWN=       6.0000    fix difference up-down

 DOS related values:
   EMIN   =  10.00;   EMAX   =-10.00  energy-range for DOS
   EFERMI =   0.00
   ISMEAR =     0;   SIGMA  =   0.05  broadening in eV -4-tet -1-fermi 0-gaus

 Electronic relaxation 2 (details)
   IALGO  =     58    algorithm
   LDIAG  =      T    sub-space diagonalisation (order eigenvalues)
   LSUBROT=      F    optimize rotation matrix (better conditioning)
   TURBO    =      0    0=normal 1=particle mesh
   IRESTART =      0    0=no restart 2=restart with 2 vectors
   NREBOOT  =      0    no. of reboots
   NMIN     =      0    reboot dimension
   EREF     =   0.00    reference energy to select bands
   IMIX   =      4    mixing-type and parameters
     AMIX     =   0.40;   BMIX     =  1.00
     AMIX_MAG =   1.60;   BMIX_MAG =  1.00
     AMIN     =   0.10
     WC   =   100.;   INIMIX=   1;  MIXPRE=   1;  MAXMIX= -45

 Intra band minimization:
   WEIMIN = 0.0000     energy-eigenvalue tresh-hold
   EBREAK =  0.16E-08  absolut break condition
   DEPER  =   0.30     relativ break condition  

   TIME   =   0.40     timestep for ELM

  volume/ion in A,a.u.               =       9.41        63.47
  Fermi-wavevector in a.u.,A,eV,Ry     =   1.420374  2.684118 27.449254  2.017463
  Thomas-Fermi vector in A             =   2.541296
 
 Write flags
   LWAVE        =      F    write WAVECAR
   LDOWNSAMPLE  =      F    k-point downsampling of WAVECAR
   LCHARG       =      F    write CHGCAR
   LVTOT        =      F    write LOCPOT, total local potential
   LVHAR        =      F    write LOCPOT, Hartree potential only
   LELF         =      F    write electronic localiz. function (ELF)
   LORBIT       =     11    0 simple, 1 ext, 2 COOP (PROOUT), +10 PAW based schemes


 Dipole corrections
   LMONO  =      F    monopole corrections only (constant potential shift)
   LDIPOL =      F    correct potential (dipole corrections)
   IDIPOL =      0    1-x, 2-y, 3-z, 4-all directions 
   EPSILON=  1.0000000 bulk dielectric constant

 LDA+U is selected, type is set to LDAUTYPE =  2
   angular momentum for each species LDAUL =    -1    2   -1
   U (eV)           for each species LDAUU =   0.0  5.1  0.0
   J (eV)           for each species LDAUJ =   0.0  0.0  0.0
 Exchange correlation treatment:
   GGA     =    --    GGA type
   LEXCH   =     8    internal setting for exchange type
   VOSKOWN=      0    Vosko Wilk Nusair interpolation
   LHFCALC =     F    Hartree Fock is set to
   LHFONE  =     F    Hartree Fock one center treatment
   AEXX    =    0.0000 exact exchange contribution

 Linear response parameters
   LEPSILON=     F    determine dielectric tensor
   LRPA    =     F    only Hartree local field effects (RPA)
   LNABLA  =     F    use nabla operator in PAW spheres
   LVEL    =     F    velocity operator in full k-point grid
   LINTERFAST=   F  fast interpolation
   KINTER  =     0    interpolate to denser k-point grid
   CSHIFT  =0.1000    complex shift for real part using Kramers Kronig
   OMEGAMAX=  -1.0    maximum frequency
   DEG_THRESHOLD= 0.2000000E-02 threshold for treating states as degnerate
   RTIME   =   -0.100 relaxation time in fs
  (WPLASMAI=    0.000 imaginary part of plasma frequency in eV, 0.658/RTIME)
   DFIELD  = 0.0000000 0.0000000 0.0000000 field for delta impulse in time
 
 Orbital magnetization related:
   ORBITALMAG=     F  switch on orbital magnetization
   LCHIMAG   =     F  perturbation theory with respect to B field
   DQ        =  0.001000  dq finite difference perturbation B field
   LLRAUG    =     F  two centre corrections for induced B field



--------------------------------------------------------------------------------------------------------


 Static calculation
 charge density and potential will be updated during run
 spin polarized calculation
 Conjugate gradient for all bands (Freysoldt, et al. PRB 79, 241103 (2009))
 preconditioned conjugated gradient                                        
 perform sub-space diagonalisation
    before iterative eigenvector-optimisation
 modified Broyden-mixing scheme, WC =      100.0
 initial mixing is a Kerker type mixing with AMIX =  0.4000 and BMIX =      1.0000
 Hartree-type preconditioning will be used
 using additional bands           31
 real space projection scheme for non local part
 use partial core corrections
 no Harris-corrections to forces 
 use gradient corrections 
 use of overlap-Matrix (Vanderbilt PP)
 Gauss-broadening in eV      SIGMA  =   0.05


--------------------------------------------------------------------------------------------------------


  energy-cutoff  :      600.00
  volume of cell :      395.04
      direct lattice vectors                 reciprocal lattice vectors
     5.675580978  0.000000000  0.000000000     0.176193416  0.104301661  0.001858420
    -2.857129097  4.826455593  0.000000000     0.000000000  0.207191381 -0.023660960
    -1.127006054  1.646864176 14.421057701     0.000000000  0.000000000  0.069343041

  length of vectors
     5.675580978  5.608730718 14.558475520     0.204759395  0.208538029  0.069343041


 
 k-points in units of 2pi/SCALE and weight: read from INCAR                         
   0.01468278  0.02595775  0.01551888       0.028
   0.04404835  0.04334136  0.01582862       0.028
   0.07341392  0.06072497  0.01613836       0.028
  -0.07341392 -0.02619308  0.01458967       0.028
  -0.04404835 -0.00880947  0.01489941       0.028
  -0.01468278  0.00857414  0.01520915       0.028
   0.01468278  0.06048965  0.01157539       0.028
   0.04404835  0.07787326  0.01188513       0.028
   0.07341392  0.09525687  0.01219486       0.028
  -0.07341392  0.00833882  0.01064618       0.028
  -0.04404835  0.02572243  0.01095592       0.028
  -0.01468278  0.04310604  0.01126565       0.028
   0.01468278  0.09502155  0.00763190       0.028
   0.04404835  0.11240516  0.00794163       0.028
   0.07341392  0.12978877  0.00825137       0.028
  -0.07341392  0.04287072  0.00670269       0.028
  -0.04404835  0.06025433  0.00701242       0.028
  -0.01468278  0.07763794  0.00732216       0.028
   0.01468278 -0.07763794  0.02734936       0.028
   0.04404835 -0.06025433  0.02765910       0.028
   0.07341392 -0.04287072  0.02796884       0.028
  -0.07341392 -0.12978877  0.02642015       0.028
  -0.04404835 -0.11240516  0.02672989       0.028
  -0.01468278 -0.09502155  0.02703963       0.028
   0.01468278 -0.04310604  0.02340587       0.028
   0.04404835 -0.02572243  0.02371561       0.028
   0.07341392 -0.00833882  0.02402534       0.028
  -0.07341392 -0.09525687  0.02247666       0.028
  -0.04404835 -0.07787326  0.02278640       0.028
  -0.01468278 -0.06048965  0.02309613       0.028
   0.01468278 -0.00857414  0.01946238       0.028
   0.04404835  0.00880947  0.01977211       0.028
   0.07341392  0.02619308  0.02008185       0.028
  -0.07341392 -0.06072497  0.01853317       0.028
  -0.04404835 -0.04334136  0.01884290       0.028
  -0.01468278 -0.02595775  0.01915264       0.028
 
 k-points in reciprocal lattice and weights: read from INCAR                         
   0.08333333  0.08333333  0.25000000       0.028
   0.25000000  0.08333333  0.25000000       0.028
   0.41666667  0.08333333  0.25000000       0.028
  -0.41666667  0.08333333  0.25000000       0.028
  -0.25000000  0.08333333  0.25000000       0.028
  -0.08333333  0.08333333  0.25000000       0.028
   0.08333333  0.25000000  0.25000000       0.028
   0.25000000  0.25000000  0.25000000       0.028
   0.41666667  0.25000000  0.25000000       0.028
  -0.41666667  0.25000000  0.25000000       0.028
  -0.25000000  0.25000000  0.25000000       0.028
  -0.08333333  0.25000000  0.25000000       0.028
   0.08333333  0.41666667  0.25000000       0.028
   0.25000000  0.41666667  0.25000000       0.028
   0.41666667  0.41666667  0.25000000       0.028
  -0.41666667  0.41666667  0.25000000       0.028
  -0.25000000  0.41666667  0.25000000       0.028
  -0.08333333  0.41666667  0.25000000       0.028
   0.08333333 -0.41666667  0.25000000       0.028
   0.25000000 -0.41666667  0.25000000       0.028
   0.41666667 -0.41666667  0.25000000       0.028
  -0.41666667 -0.41666667  0.25000000       0.028
  -0.25000000 -0.41666667  0.25000000       0.028
  -0.08333333 -0.41666667  0.25000000       0.028
   0.08333333 -0.25000000  0.25000000       0.028
   0.25000000 -0.25000000  0.25000000       0.028
   0.41666667 -0.25000000  0.25000000       0.028
  -0.41666667 -0.25000000  0.25000000       0.028
  -0.25000000 -0.25000000  0.25000000       0.028
  -0.08333333 -0.25000000  0.25000000       0.028
   0.08333333 -0.08333333  0.25000000       0.028
   0.25000000 -0.08333333  0.25000000       0.028
   0.41666667 -0.08333333  0.25000000       0.028
  -0.41666667 -0.08333333  0.25000000       0.028
  -0.25000000 -0.08333333  0.25000000       0.028
  -0.08333333 -0.08333333  0.25000000       0.028
 
 position of ions in fractional coordinates (direct lattice) 
   0.98575199  0.91561196  0.99303254
   0.46442238  0.89485092  0.98469062
   0.49963640  0.43192957  0.99533475
   0.56057546  0.69293998  0.32667298
   0.67962488  0.38078372  0.67642749
   0.72992417  0.91062407  0.67651207
   0.16140891  0.22351700  0.16733931
   0.17816140  0.72484171  0.16750851
   0.67799279  0.25464646  0.16353516
   0.67773494  0.74694871  0.16314962
   0.97165536  0.08642350  0.51249569
   0.97176681  0.60758012  0.50287781
   0.45954781  0.09070292  0.49604962
   0.48157106  0.58636747  0.50953406
   0.36251374  0.17188206  0.82326695
   0.36145876  0.67183863  0.83211511
   0.86644223  0.17504136  0.82977130
   0.85786044  0.67168269  0.82988227
   0.99924234  0.86019829  0.23425189
   0.01155129  0.38388058  0.23641747
   0.50295274  0.89904261  0.22870167
   0.50009472  0.39318731  0.23365554
   0.32127880  0.10500230  0.09100996
   0.32854097  0.57395627  0.09737636
   0.83312261  0.08864591  0.09470388
   0.84226523  0.60157358  0.08683275
   0.33124401  0.24720386  0.57445021
   0.30458437  0.74957211  0.56776004
   0.80811313  0.24716235  0.56554869
   0.80072054  0.73719147  0.57834035
   0.14774839  0.42566728  0.44991914
   0.12974291  0.96512372  0.43319499
   0.61055342  0.44766261  0.42861835
   0.63671826  0.93195781  0.44361100
   0.20868392  0.30311691  0.89765120
   0.17925098  0.81583062  0.90995958
   0.69479945  0.30023000  0.89366399
   0.69132740  0.79794109  0.90636068
   0.03439905  0.03382684  0.76284144
   0.02447140  0.50939712  0.75957537
   0.53190600  0.03322133  0.75972794
   0.54492177  0.55046500  0.75912463
 
 position of ions in cartesian coordinates  (Angst):
   1.85953999  6.05455017 14.32057953
  -1.03059006  5.94060993 14.20028019
   0.47990000  3.72387004 14.35377979
   0.83361000  3.88243008  4.71096992
   2.00697994  2.95181990  9.75479984
   0.77854002  5.50921011  9.75601959
   0.08888000  1.35438001  2.41320992
  -1.24857998  3.77428007  2.41564989
   2.93614006  1.49836004  2.35835004
   1.52854002  3.87380004  2.35279012
   4.69019985  1.26112998  7.39072990
   3.21266007  3.76062989  7.25202990
   1.78999996  1.25469995  7.15356016
   0.48361999  3.66920996  7.34802008
   0.63856000  2.18539000 11.87238026
  -0.80584002  4.61297989 11.99997997
   3.48229003  2.21134996 11.96617985
   2.01448989  4.60855007 11.96778011
   2.94957995  4.53748989  3.37816000
  -1.29768002  2.24213004  3.40938997
   0.02812000  4.71582985  3.29812002
   1.45160997  2.28250003  3.36956000
   1.42086995  0.65666997  1.31245995
   0.11505000  2.93054008  1.40427005
   4.36845016  0.58380997  1.36573005
   2.96371007  3.04646993  1.25222003
   0.52630001  2.13915992  8.28417969
  -1.05280006  4.55280018  8.18770027
   3.24295998  2.12430000  8.15581036
   1.78650999  4.51046991  8.34027958
  -0.88468999  2.79541993  6.48830986
  -2.50933003  5.37154007  6.24712992
   1.70316005  2.86649990  6.18112993
   0.45107001  5.22862005  6.39733982
  -0.69330001  2.94128990 12.94507980
  -2.33910990  5.43615007 13.12257957
   2.07842994  2.92078996 12.88757992
   0.62238997  5.34388018 13.07067966
  -0.76113999  1.41955996 11.00098038
  -2.17256999  3.70950007 10.95388031
   2.06773996  1.41150999 10.95608044
   0.66446000  3.90697002 10.94738007
 


--------------------------------------------------------------------------------------------------------


 k-point  1 :   0.0833 0.0833 0.2500  plane waves:   13178
 k-point  2 :   0.2500 0.0833 0.2500  plane waves:   13171
 k-point  3 :   0.4167 0.0833 0.2500  plane waves:   13195
 k-point  4 :  -0.4167 0.0833 0.2500  plane waves:   13161
 k-point  5 :  -0.2500 0.0833 0.2500  plane waves:   13181
 k-point  6 :  -0.0833 0.0833 0.2500  plane waves:   13198
 k-point  7 :   0.0833 0.2500 0.2500  plane waves:   13188
 k-point  8 :   0.2500 0.2500 0.2500  plane waves:   13193
 k-point  9 :   0.4167 0.2500 0.2500  plane waves:   13190
 k-point 10 :  -0.4167 0.2500 0.2500  plane waves:   13158
 k-point 11 :  -0.2500 0.2500 0.2500  plane waves:   13172
 k-point 12 :  -0.0833 0.2500 0.2500  plane waves:   13177
 k-point 13 :   0.0833 0.4167 0.2500  plane waves:   13197
 k-point 14 :   0.2500 0.4167 0.2500  plane waves:   13203
 k-point 15 :   0.4167 0.4167 0.2500  plane waves:   13184
 k-point 16 :  -0.4167 0.4167 0.2500  plane waves:   13168
 k-point 17 :  -0.2500 0.4167 0.2500  plane waves:   13184
 k-point 18 :  -0.0833 0.4167 0.2500  plane waves:   13213
 k-point 19 :   0.0833-0.4167 0.2500  plane waves:   13195
 k-point 20 :   0.2500-0.4167 0.2500  plane waves:   13181
 k-point 21 :   0.4167-0.4167 0.2500  plane waves:   13179
 k-point 22 :  -0.4167-0.4167 0.2500  plane waves:   13195
 k-point 23 :  -0.2500-0.4167 0.2500  plane waves:   13204
 k-point 24 :  -0.0833-0.4167 0.2500  plane waves:   13195
 k-point 25 :   0.0833-0.2500 0.2500  plane waves:   13184
 k-point 26 :   0.2500-0.2500 0.2500  plane waves:   13162
 k-point 27 :   0.4167-0.2500 0.2500  plane waves:   13174
 k-point 28 :  -0.4167-0.2500 0.2500  plane waves:   13185
 k-point 29 :  -0.2500-0.2500 0.2500  plane waves:   13193
 k-point 30 :  -0.0833-0.2500 0.2500  plane waves:   13203
 k-point 31 :   0.0833-0.0833 0.2500  plane waves:   13192
 k-point 32 :   0.2500-0.0833 0.2500  plane waves:   13163
 k-point 33 :   0.4167-0.0833 0.2500  plane waves:   13183
 k-point 34 :  -0.4167-0.0833 0.2500  plane waves:   13181
 k-point 35 :  -0.2500-0.0833 0.2500  plane waves:   13204
 k-point 36 :  -0.0833-0.0833 0.2500  plane waves:   13170

 maximum and minimum number of plane-waves per node :      3320     3277

 maximum number of plane-waves:     13213
 maximum index in each direction: 
   IXMAX=   11   IYMAX=   11   IZMAX=   28
   IXMIN=  -11   IYMIN=  -11   IZMIN=  -29


 real space projection operators:
  total allocation   :       7499.11 KBytes
  max/ min on nodes  :       1875.98       1873.91


 parallel 3D FFT for wavefunctions:
    minimum data exchange during FFTs selected (reduces bandwidth)
 parallel 3D FFT for charge:
    minimum data exchange during FFTs selected (reduces bandwidth)


 total amount of memory used by VASP MPI-rank0   159852. kBytes
=======================================================================

   base      :      30000. kBytes
   nonlr-proj:       4294. kBytes
   fftplans  :       1688. kBytes
   grid      :       4644. kBytes
   one-center:        342. kBytes
   wavefun   :     118884. kBytes
 
     INWAV:  cpu time    0.0000: real time    0.0003
 Broyden mixing: mesh for mixing (old mesh)
   NGX = 23   NGY = 23   NGZ = 59
  (NGX  = 72   NGY  = 72   NGZ  =180)
  gives a total of  31211 points

 initial charge density was supplied:
 charge density of overlapping atoms calculated
 number of electron     258.0000000 magnetization       6.0000000
 keeping initial charge density in first step


--------------------------------------------------------------------------------------------------------


 Maximum index for non-local projection operator          686
 Maximum index for augmentation-charges         1013 (set IRDMAX)


--------------------------------------------------------------------------------------------------------


 First call to EWALD:  gamma=   0.242
 Maximum number of real-space cells 4x 4x 2
 Maximum number of reciprocal cells 2x 2x 5

    FEWALD:  cpu time    0.0040: real time    0.0040


--------------------------------------- Iteration      1(   1)  ---------------------------------------


    POTLOK:  cpu time    0.0595: real time    0.0724
    SETDIJ:  cpu time    0.0171: real time    0.0176
    TRIAL :  cpu time   24.8715: real time   24.9857
    CORREC:  cpu time    0.0038: real time    0.0038
    --------------------------------------------
      LOOP:  cpu time   25.1469: real time   25.2755

 eigenvalue-minimisations  : 23040
 total energy-change (2. order) : 0.3479619E+04  (-0.1394874E+05)
 number of electron     258.0000000 magnetization       6.0000000
 augmentation part      258.0000000 magnetization       6.0000000

 Free energy of the ion-electron system (eV)
  ---------------------------------------------------
  alpha Z        PSCENC =       742.12823337
  Ewald energy   TEWEN  =    -13778.61270230
  -Hartree energ DENC   =     -7218.68427673
  -exchange      EXHF   =         0.00000000
  -V(xc)+E(xc)   XCENC  =       842.60959415
  PAW double counting   =     17015.18481625   -17491.61297812
  entropy T*S    EENTRO =        -0.00664175
  eigenvalues    EBANDS =      3199.74171014
  atomic energy  EATOM  =     20168.87094289
  ---------------------------------------------------
  free energy    TOTEN  =      3479.61869789 eV

  energy without entropy =     3479.62533964  energy(sigma->0) =     3479.62201877


--------------------------------------------------------------------------------------------------------




--------------------------------------- Iteration      1(   2)  ---------------------------------------


    TRIAL :  cpu time   25.8321: real time   25.8558
    CORREC:  cpu time    0.0042: real time    0.0042
    --------------------------------------------
      LOOP:  cpu time   25.8403: real time   25.8639

 eigenvalue-minimisations  : 24768
 total energy-change (2. order) :-0.3069041E+04  (-0.2832084E+04)
 number of electron     258.0000000 magnetization       6.0000000
 augmentation part      258.0000000 magnetization       6.0000000

 Free energy of the ion-electron system (eV)
  ---------------------------------------------------
  alpha Z        PSCENC =       742.12823337
  Ewald energy   TEWEN  =    -13778.61270230
  -Hartree energ DENC   =     -7218.68427673
  -exchange      EXHF   =         0.00000000
  -V(xc)+E(xc)   XCENC  =       842.60959415
  PAW double counting   =     17015.18481625   -17491.61297812
  entropy T*S    EENTRO =        -0.02361500
  eigenvalues    EBANDS =       130.71793052
  atomic energy  EATOM  =     20168.87094289
  ---------------------------------------------------
  free energy    TOTEN  =       410.57794501 eV

  energy without entropy =      410.60156002  energy(sigma->0) =      410.58975252


--------------------------------------------------------------------------------------------------------




--------------------------------------- Iteration      1(   3)  ---------------------------------------


    TRIAL :  cpu time   26.8278: real time   26.8581
    CORREC:  cpu time    0.0042: real time    0.0042
    --------------------------------------------
      LOOP:  cpu time   26.8363: real time   26.8667

 eigenvalue-minimisations  : 25712
 total energy-change (2. order) :-0.6304866E+03  (-0.5735773E+03)
 number of electron     258.0000000 magnetization       6.0000000
 augmentation part      258.0000000 magnetization       6.0000000

 Free energy of the ion-electron system (eV)
  ---------------------------------------------------
  alpha Z        PSCENC =       742.12823337
  Ewald energy   TEWEN  =    -13778.61270230
  -Hartree energ DENC   =     -7218.68427673
  -exchange      EXHF   =         0.00000000
  -V(xc)+E(xc)   XCENC  =       842.60959415
  PAW double counting   =     17015.18481625   -17491.61297812
  entropy T*S    EENTRO =        -0.03838962
  eigenvalues    EBANDS =      -499.75387635
  atomic energy  EATOM  =     20168.87094289
  ---------------------------------------------------
  free energy    TOTEN  =      -219.90863647 eV

  energy without entropy =     -219.87024684  energy(sigma->0) =     -219.88944166


--------------------------------------------------------------------------------------------------------




--------------------------------------- Iteration      1(   4)  ---------------------------------------


    TRIAL :  cpu time   26.5986: real time   26.6707
    CORREC:  cpu time    0.0041: real time    0.0041
    --------------------------------------------
      LOOP:  cpu time   26.6067: real time   26.6788

 eigenvalue-minimisations  : 25344
 total energy-change (2. order) :-0.5101640E+02  (-0.4999452E+02)
 number of electron     258.0000000 magnetization       6.0000000
 augmentation part      258.0000000 magnetization       6.0000000

 Free energy of the ion-electron system (eV)
  ---------------------------------------------------
  alpha Z        PSCENC =       742.12823337
  Ewald energy   TEWEN  =    -13778.61270230
  -Hartree energ DENC   =     -7218.68427673
  -exchange      EXHF   =         0.00000000
  -V(xc)+E(xc)   XCENC  =       842.60959415
  PAW double counting   =     17015.18481625   -17491.61297812
  entropy T*S    EENTRO =        -0.04313233
  eigenvalues    EBANDS =      -550.76553009
  atomic energy  EATOM  =     20168.87094289
  ---------------------------------------------------
  free energy    TOTEN  =      -270.92503291 eV

  energy without entropy =     -270.88190059  energy(sigma->0) =     -270.90346675


--------------------------------------------------------------------------------------------------------




--------------------------------------- Iteration      1(   5)  ---------------------------------------


    TRIAL :  cpu time   28.9231: real time   28.9849
    CORREC:  cpu time    0.0050: real time    0.0050
    CHARGE:  cpu time    0.4978: real time    0.5171
    --------------------------------------------
      LOOP:  cpu time   29.4299: real time   29.5111

 eigenvalue-minimisations  : 28432
 total energy-change (2. order) :-0.1759905E+01  (-0.1756823E+01)
 number of electron     257.9999997 magnetization       5.9999999
 augmentation part       68.0299800 magnetization       4.3073228

 Free energy of the ion-electron system (eV)
  ---------------------------------------------------
  alpha Z        PSCENC =       742.12823337
  Ewald energy   TEWEN  =    -13778.61270230
  -Hartree energ DENC   =     -7218.68427673
  -exchange      EXHF   =         0.00000000
  -V(xc)+E(xc)   XCENC  =       842.60959415
  PAW double counting   =     17015.18481625   -17491.61297812
  entropy T*S    EENTRO =        -0.04341829
  eigenvalues    EBANDS =      -552.52514930
  atomic energy  EATOM  =     20168.87094289
  ---------------------------------------------------
  free energy    TOTEN  =      -272.68493809 eV

  energy without entropy =     -272.64151979  energy(sigma->0) =     -272.66322894


--------------------------------------------------------------------------------------------------------




--------------------------------------- Iteration      1(   6)  ---------------------------------------


    POTLOK:  cpu time    0.0470: real time    0.0470
    SETDIJ:  cpu time    0.0126: real time    0.0126
    TRIAL :  cpu time   14.1914: real time   14.2053
    CORREC:  cpu time    4.4370: real time    4.5963
    CHARGE:  cpu time    0.5053: real time    0.5055
    --------------------------------------------
      LOOP:  cpu time   19.1978: real time   19.3711

 eigenvalue-minimisations  :     0
 total energy-change (2. order) : 0.3653034E+03  (-0.1197454E+03)
 number of electron     257.9999996 magnetization       6.0000001
 augmentation part       70.0971979 magnetization       4.4147083

 Free energy of the ion-electron system (eV)
  ---------------------------------------------------
  alpha Z        PSCENC =       742.12823337
  Ewald energy   TEWEN  =    -13778.61270230
  -Hartree energ DENC   =     -6916.38993896
  -exchange      EXHF   =         0.00000000
  -V(xc)+E(xc)   XCENC  =       876.70942171
  PAW double counting   =     23642.77172427   -23850.84623721
  entropy T*S    EENTRO =        -0.05068053
  eigenvalues    EBANDS =      -791.96953037
  atomic energy  EATOM  =     20168.87094289
  ---------------------------------------------------
  free energy    TOTEN  =        92.61849510 eV

  energy without entropy =       92.66917563  energy(sigma->0) =       92.64383536


--------------------------------------------------------------------------------------------------------




--------------------------------------- Iteration      1(   7)  ---------------------------------------


    POTLOK:  cpu time    0.0464: real time    0.0464
    SETDIJ:  cpu time    0.0125: real time    0.0125
    TRIAL :  cpu time   14.1364: real time   14.1477
    CORREC:  cpu time    4.6834: real time    4.6921
    CHARGE:  cpu time    0.5066: real time    0.5068
    --------------------------------------------
      LOOP:  cpu time   19.3897: real time   19.4098

 eigenvalue-minimisations  :     0
 total energy-change (2. order) :-0.1045263E+03  (-0.1415712E+03)
 number of electron     258.0000002 magnetization       6.0000000
 augmentation part       71.4881845 magnetization       3.8100921

 Free energy of the ion-electron system (eV)
  ---------------------------------------------------
  alpha Z        PSCENC =       742.12823337
  Ewald energy   TEWEN  =    -13778.61270230
  -Hartree energ DENC   =     -6864.75719149
  -exchange      EXHF   =         0.00000000
  -V(xc)+E(xc)   XCENC  =       867.93222054
  PAW double counting   =     23566.35576238   -23854.81718699
  entropy T*S    EENTRO =        -0.03911109
  eigenvalues    EBANDS =      -858.95719890
  atomic energy  EATOM  =     20168.87094289
  ---------------------------------------------------
  free energy    TOTEN  =       -11.90780103 eV

  energy without entropy =      -11.86868994  energy(sigma->0) =      -11.88824549


--------------------------------------------------------------------------------------------------------




--------------------------------------- Iteration      1(   8)  ---------------------------------------


    POTLOK:  cpu time    0.0463: real time    0.0463
    SETDIJ:  cpu time    0.0126: real time    0.0126
    TRIAL :  cpu time   13.8730: real time   14.2550
    CORREC:  cpu time    4.3906: real time    4.5568
    CHARGE:  cpu time    0.4822: real time    0.5025
    --------------------------------------------
      LOOP:  cpu time   18.8089: real time   19.3775

 eigenvalue-minimisations  :     0
 total energy-change (2. order) :-0.9351008E+02  (-0.5958583E+02)
 number of electron     258.0000003 magnetization       6.0000000
 augmentation part       72.8535349 magnetization       3.7121383

 Free energy of the ion-electron system (eV)
  ---------------------------------------------------
  alpha Z        PSCENC =       742.12823337
  Ewald energy   TEWEN  =    -13778.61270230
  -Hartree energ DENC   =     -6767.82760178
  -exchange      EXHF   =         0.00000000
  -V(xc)+E(xc)   XCENC  =       851.36497071
  PAW double counting   =     23113.87118613   -23461.22235717
  entropy T*S    EENTRO =        -0.02101852
  eigenvalues    EBANDS =      -973.95144170
  atomic energy  EATOM  =     20168.87094289
  ---------------------------------------------------
  free energy    TOTEN  =      -105.41788095 eV

  energy without entropy =     -105.39686243  energy(sigma->0) =     -105.40737169


--------------------------------------------------------------------------------------------------------




--------------------------------------- Iteration      1(   9)  ---------------------------------------


    POTLOK:  cpu time    0.0457: real time    0.0463
    SETDIJ:  cpu time    0.0126: real time    0.0127
    TRIAL :  cpu time   13.9990: real time   14.2093
    CORREC:  cpu time    4.5511: real time    4.5560
    CHARGE:  cpu time    0.5089: real time    0.5093
    --------------------------------------------
      LOOP:  cpu time   19.1178: real time   19.3381

 eigenvalue-minimisations  :     0
 total energy-change (2. order) :-0.3925037E+02  (-0.5239084E+02)
 number of electron     258.0000003 magnetization       6.0000000
 augmentation part       75.6421570 magnetization       3.6631121

 Free energy of the ion-electron system (eV)
  ---------------------------------------------------
  alpha Z        PSCENC =       742.12823337
  Ewald energy   TEWEN  =    -13778.61270230
  -Hartree energ DENC   =     -6916.90652515
  -exchange      EXHF   =         0.00000000
  -V(xc)+E(xc)   XCENC  =       851.16006291
  PAW double counting   =     23138.81449908   -23532.36771055
  entropy T*S    EENTRO =        -0.03359355
  eigenvalues    EBANDS =      -817.73403325
  atomic energy  EATOM  =     20168.87094289
  ---------------------------------------------------
  free energy    TOTEN  =      -144.66825153 eV

  energy without entropy =     -144.63465798  energy(sigma->0) =     -144.65145475


--------------------------------------------------------------------------------------------------------




--------------------------------------- Iteration      1(  10)  ---------------------------------------


    POTLOK:  cpu time    0.0462: real time    0.0462
    SETDIJ:  cpu time    0.0127: real time    0.0127
    TRIAL :  cpu time   14.1554: real time   14.1683
    CORREC:  cpu time    4.5112: real time    4.5164
    CHARGE:  cpu time    0.5018: real time    0.5020
    --------------------------------------------
      LOOP:  cpu time   19.2316: real time   19.2499

 eigenvalue-minimisations  :     0
 total energy-change (2. order) :-0.3536724E+02  (-0.2021135E+02)
 number of electron     258.0000004 magnetization       6.0000000
 augmentation part       75.7156964 magnetization       3.6357677

 Free energy of the ion-electron system (eV)
  ---------------------------------------------------
  alpha Z        PSCENC =       742.12823337
  Ewald energy   TEWEN  =    -13778.61270230
  -Hartree energ DENC   =     -7061.39643398
  -exchange      EXHF   =         0.00000000
  -V(xc)+E(xc)   XCENC  =       851.27127065
  PAW double counting   =     23445.31109673   -23941.64850901
  entropy T*S    EENTRO =        -0.02617619
  eigenvalues    EBANDS =      -605.92579406
  atomic energy  EATOM  =     20168.87094289
  ---------------------------------------------------
  free energy    TOTEN  =      -180.03548926 eV

  energy without entropy =     -180.00931308  energy(sigma->0) =     -180.02240117


--------------------------------------------------------------------------------------------------------




--------------------------------------- Iteration      1(  11)  ---------------------------------------


    POTLOK:  cpu time    0.0460: real time    0.0460
    SETDIJ:  cpu time    0.0126: real time    0.0127
    TRIAL :  cpu time   14.1690: real time   14.1816
    CORREC:  cpu time    4.6713: real time    4.6764
    CHARGE:  cpu time    0.4976: real time    0.4979
    --------------------------------------------
      LOOP:  cpu time   19.4005: real time   19.4187

 eigenvalue-minimisations  :     0
 total energy-change (2. order) :-0.1947978E+02  (-0.6920964E+01)
 number of electron     258.0000004 magnetization       6.0000000
 augmentation part       75.8241932 magnetization       3.7050957

 Free energy of the ion-electron system (eV)
  ---------------------------------------------------
  alpha Z        PSCENC =       742.12823337
  Ewald energy   TEWEN  =    -13778.61270230
  -Hartree energ DENC   =     -7095.57827163
  -exchange      EXHF   =         0.00000000
  -V(xc)+E(xc)   XCENC  =       851.09845317
  PAW double counting   =     23432.13771639   -23928.78826023
  entropy T*S    EENTRO =        -0.02530604
  eigenvalues    EBANDS =      -590.74520654
  atomic energy  EATOM  =     20168.87094289
  ---------------------------------------------------
  free energy    TOTEN  =      -199.51527106 eV

  energy without entropy =     -199.48996502  energy(sigma->0) =     -199.50261804


--------------------------------------------------------------------------------------------------------




--------------------------------------- Iteration      1(  12)  ---------------------------------------


    POTLOK:  cpu time    0.0459: real time    0.0459
    SETDIJ:  cpu time    0.0125: real time    0.0125
    TRIAL :  cpu time   14.1853: real time   14.2059
    CORREC:  cpu time    4.5267: real time    4.5304
    CHARGE:  cpu time    0.4973: real time    0.4975
    --------------------------------------------
      LOOP:  cpu time   19.2721: real time   19.2970

 eigenvalue-minimisations  :     0
 total energy-change (2. order) :-0.6736387E+01  (-0.6167954E+01)
 number of electron     258.0000004 magnetization       5.9999999
 augmentation part       75.9473969 magnetization       3.7537914

 Free energy of the ion-electron system (eV)
  ---------------------------------------------------
  alpha Z        PSCENC =       742.12823337
  Ewald energy   TEWEN  =    -13778.61270230
  -Hartree energ DENC   =     -7123.68632816
  -exchange      EXHF   =         0.00000000
  -V(xc)+E(xc)   XCENC  =       851.02876836
  PAW double counting   =     23436.42363334   -23933.34765219
  entropy T*S    EENTRO =        -0.02203066
  eigenvalues    EBANDS =      -569.03124752
  atomic energy  EATOM  =     20168.87094289
  ---------------------------------------------------
  free energy    TOTEN  =      -206.25165826 eV

  energy without entropy =     -206.22962760  energy(sigma->0) =     -206.24064293


--------------------------------------------------------------------------------------------------------




--------------------------------------- Iteration      1(  13)  ---------------------------------------


    POTLOK:  cpu time    0.0464: real time    0.0464
    SETDIJ:  cpu time    0.0126: real time    0.0125
    TRIAL :  cpu time   14.2439: real time   14.2631
    CORREC:  cpu time    4.5394: real time    4.5450
    CHARGE:  cpu time    0.4997: real time    0.4999
    --------------------------------------------
      LOOP:  cpu time   19.3461: real time   19.3717

 eigenvalue-minimisations  :     0
 total energy-change (2. order) :-0.4676478E+01  (-0.7479452E+01)
 number of electron     258.0000003 magnetization       6.0000000
 augmentation part       75.9823829 magnetization       3.7735253

 Free energy of the ion-electron system (eV)
  ---------------------------------------------------
  alpha Z        PSCENC =       742.12823337
  Ewald energy   TEWEN  =    -13778.61270230
  -Hartree energ DENC   =     -7146.07874443
  -exchange      EXHF   =         0.00000000
  -V(xc)+E(xc)   XCENC  =       850.79460953
  PAW double counting   =     23549.12488274   -24045.06593126
  entropy T*S    EENTRO =        -0.02102747
  eigenvalues    EBANDS =      -552.06739613
  atomic energy  EATOM  =     20168.87094289
  ---------------------------------------------------
  free energy    TOTEN  =      -210.92813625 eV

  energy without entropy =     -210.90710878  energy(sigma->0) =     -210.91762251


--------------------------------------------------------------------------------------------------------




--------------------------------------- Iteration      1(  14)  ---------------------------------------


    POTLOK:  cpu time    0.0464: real time    0.0464
    SETDIJ:  cpu time    0.0126: real time    0.0126
    TRIAL :  cpu time   14.1086: real time   14.1286
    CORREC:  cpu time    4.6811: real time    4.6876
    CHARGE:  cpu time    0.5022: real time    0.5030
    --------------------------------------------
      LOOP:  cpu time   19.3552: real time   19.3824

 eigenvalue-minimisations  :     0
 total energy-change (2. order) :-0.6766784E+01  (-0.9793688E+00)
 number of electron     258.0000003 magnetization       6.0000000
 augmentation part       75.8492661 magnetization       3.7805322

 Free energy of the ion-electron system (eV)
  ---------------------------------------------------
  alpha Z        PSCENC =       742.12823337
  Ewald energy   TEWEN  =    -13778.61270230
  -Hartree energ DENC   =     -7197.82432508
  -exchange      EXHF   =         0.00000000
  -V(xc)+E(xc)   XCENC  =       849.85849713
  PAW double counting   =     23867.89239393   -24353.91295777
  entropy T*S    EENTRO =        -0.02147195
  eigenvalues    EBANDS =      -516.07397500
  atomic energy  EATOM  =     20168.87094289
  ---------------------------------------------------
  free energy    TOTEN  =      -217.69492030 eV

  energy without entropy =     -217.67344835  energy(sigma->0) =     -217.68418432


--------------------------------------------------------------------------------------------------------




--------------------------------------- Iteration      1(  15)  ---------------------------------------


    POTLOK:  cpu time    0.0458: real time    0.0459
    SETDIJ:  cpu time    0.0126: real time    0.0126
    TRIAL :  cpu time   14.1970: real time   14.2120
    CORREC:  cpu time    4.5243: real time    4.5311
    CHARGE:  cpu time    0.5014: real time    0.5018
    --------------------------------------------
      LOOP:  cpu time   19.2854: real time   19.3081

 eigenvalue-minimisations  :     0
 total energy-change (2. order) :-0.9352441E+00  (-0.9055817E+00)
 number of electron     258.0000003 magnetization       6.0000000
 augmentation part       75.5985580 magnetization       3.7890644

 Free energy of the ion-electron system (eV)
  ---------------------------------------------------
  alpha Z        PSCENC =       742.12823337
  Ewald energy   TEWEN  =    -13778.61270230
  -Hartree energ DENC   =     -7197.50553405
  -exchange      EXHF   =         0.00000000
  -V(xc)+E(xc)   XCENC  =       849.87024725
  PAW double counting   =     23877.75393592   -24355.57646981
  entropy T*S    EENTRO =        -0.02024037
  eigenvalues    EBANDS =      -525.53734567
  atomic energy  EATOM  =     20168.87094289
  ---------------------------------------------------
  free energy    TOTEN  =      -218.63016436 eV

  energy without entropy =     -218.60992399  energy(sigma->0) =     -218.62004417


--------------------------------------------------------------------------------------------------------




--------------------------------------- Iteration      1(  16)  ---------------------------------------


    POTLOK:  cpu time    0.0458: real time    0.0458
    SETDIJ:  cpu time    0.0126: real time    0.0126
    TRIAL :  cpu time   14.1558: real time   14.1752
    CORREC:  cpu time    4.5697: real time    4.5762
    CHARGE:  cpu time    0.5004: real time    0.5056
    --------------------------------------------
      LOOP:  cpu time   19.2884: real time   19.3196

 eigenvalue-minimisations  :     0
 total energy-change (2. order) :-0.8541533E+00  (-0.5902907E+00)
 number of electron     258.0000003 magnetization       6.0000000
 augmentation part       75.5316070 magnetization       3.7836278

 Free energy of the ion-electron system (eV)
  ---------------------------------------------------
  alpha Z        PSCENC =       742.12823337
  Ewald energy   TEWEN  =    -13778.61270230
  -Hartree energ DENC   =     -7176.40824633
  -exchange      EXHF   =         0.00000000
  -V(xc)+E(xc)   XCENC  =       850.17902496
  PAW double counting   =     23826.04792206   -24289.09264335
  entropy T*S    EENTRO =        -0.01998367
  eigenvalues    EBANDS =      -562.57660854
  atomic energy  EATOM  =     20168.87094289
  ---------------------------------------------------
  free energy    TOTEN  =      -219.48431762 eV

  energy without entropy =     -219.46433395  energy(sigma->0) =     -219.47432578


--------------------------------------------------------------------------------------------------------




--------------------------------------- Iteration      1(  17)  ---------------------------------------


    POTLOK:  cpu time    0.0466: real time    0.0466
    SETDIJ:  cpu time    0.0126: real time    0.0126
    TRIAL :  cpu time   14.1146: real time   14.1464
    CORREC:  cpu time    4.5575: real time    4.5626
    CHARGE:  cpu time    0.5036: real time    0.5040
    --------------------------------------------
      LOOP:  cpu time   19.2393: real time   19.2781

 eigenvalue-minimisations  :     0
 total energy-change (2. order) :-0.5864572E+00  (-0.3157379E+00)
 number of electron     258.0000003 magnetization       6.0000000
 augmentation part       75.6446612 magnetization       3.7730271

 Free energy of the ion-electron system (eV)
  ---------------------------------------------------
  alpha Z        PSCENC =       742.12823337
  Ewald energy   TEWEN  =    -13778.61270230
  -Hartree energ DENC   =     -7164.28309104
  -exchange      EXHF   =         0.00000000
  -V(xc)+E(xc)   XCENC  =       850.79191089
  PAW double counting   =     23752.08933390   -24206.59815096
  entropy T*S    EENTRO =        -0.01995746
  eigenvalues    EBANDS =      -584.43726791
  atomic energy  EATOM  =     20168.87094289
  ---------------------------------------------------
  free energy    TOTEN  =      -220.07077483 eV

  energy without entropy =     -220.05081737  energy(sigma->0) =     -220.06079610


--------------------------------------------------------------------------------------------------------




--------------------------------------- Iteration      1(  18)  ---------------------------------------


    POTLOK:  cpu time    0.0458: real time    0.0459
    SETDIJ:  cpu time    0.0126: real time    0.0126
    TRIAL :  cpu time   14.1236: real time   14.1532
    CORREC:  cpu time    4.7508: real time    4.7628
    CHARGE:  cpu time    0.5006: real time    0.5010
    --------------------------------------------
      LOOP:  cpu time   19.4382: real time   19.4802

 eigenvalue-minimisations  :     0
 total energy-change (2. order) :-0.3036134E+00  (-0.4346404E+00)
 number of electron     258.0000003 magnetization       6.0000000
 augmentation part       76.0199921 magnetization       3.7369422

 Free energy of the ion-electron system (eV)
  ---------------------------------------------------
  alpha Z        PSCENC =       742.12823337
  Ewald energy   TEWEN  =    -13778.61270230
  -Hartree energ DENC   =     -7166.82501991
  -exchange      EXHF   =         0.00000000
  -V(xc)+E(xc)   XCENC  =       851.25187458
  PAW double counting   =     23717.51370244   -24172.64177583
  entropy T*S    EENTRO =        -0.01830345
  eigenvalues    EBANDS =      -582.03968599
  atomic energy  EATOM  =     20168.87094289
  ---------------------------------------------------
  free energy    TOTEN  =      -220.37438822 eV

  energy without entropy =     -220.35608477  energy(sigma->0) =     -220.36523649


--------------------------------------------------------------------------------------------------------




--------------------------------------- Iteration      1(  19)  ---------------------------------------


    POTLOK:  cpu time    0.0461: real time    0.0461
    SETDIJ:  cpu time    0.0126: real time    0.0126
    TRIAL :  cpu time   14.1068: real time   14.1278
    CORREC:  cpu time    4.5711: real time    4.5846
    CHARGE:  cpu time    0.4972: real time    0.4978
    --------------------------------------------
      LOOP:  cpu time   19.2382: real time   19.2733

 eigenvalue-minimisations  :     0
 total energy-change (2. order) :-0.4253939E+00  (-0.1870984E+00)
 number of electron     258.0000003 magnetization       6.0000000
 augmentation part       76.1863744 magnetization       3.7135414

 Free energy of the ion-electron system (eV)
  ---------------------------------------------------
  alpha Z        PSCENC =       742.12823337
  Ewald energy   TEWEN  =    -13778.61270230
  -Hartree energ DENC   =     -7178.94426664
  -exchange      EXHF   =         0.00000000
  -V(xc)+E(xc)   XCENC  =       852.01055937
  PAW double counting   =     23683.71942137   -24147.43813384
  entropy T*S    EENTRO =        -0.01761889
  eigenvalues    EBANDS =      -562.51553288
  atomic energy  EATOM  =     20168.87094289
  ---------------------------------------------------
  free energy    TOTEN  =      -220.79978211 eV

  energy without entropy =     -220.78216322  energy(sigma->0) =     -220.79097266


--------------------------------------------------------------------------------------------------------




--------------------------------------- Iteration      1(  20)  ---------------------------------------


    POTLOK:  cpu time    0.0459: real time    0.0460
    SETDIJ:  cpu time    0.0125: real time    0.0125
    TRIAL :  cpu time   14.0779: real time   14.1042
    CORREC:  cpu time    4.5285: real time    4.5372
    CHARGE:  cpu time    0.4972: real time    0.4978
    --------------------------------------------
      LOOP:  cpu time   19.1666: real time   19.2024

 eigenvalue-minimisations  :     0
 total energy-change (2. order) :-0.1812999E+00  (-0.9320384E-01)
 number of electron     258.0000003 magnetization       6.0000000
 augmentation part       76.1921900 magnetization       3.7064499

 Free energy of the ion-electron system (eV)
  ---------------------------------------------------
  alpha Z        PSCENC =       742.12823337
  Ewald energy   TEWEN  =    -13778.61270230
  -Hartree energ DENC   =     -7189.30260040
  -exchange      EXHF   =         0.00000000
  -V(xc)+E(xc)   XCENC  =       852.19917840
  PAW double counting   =     23675.66828238   -24143.85498734
  entropy T*S    EENTRO =        -0.01709257
  eigenvalues    EBANDS =      -548.05981007
  atomic energy  EATOM  =     20168.87094289
  ---------------------------------------------------
  free energy    TOTEN  =      -220.98108197 eV

  energy without entropy =     -220.96398940  energy(sigma->0) =     -220.97253568


--------------------------------------------------------------------------------------------------------




--------------------------------------- Iteration      1(  21)  ---------------------------------------


    POTLOK:  cpu time    0.0459: real time    0.0459
    SETDIJ:  cpu time    0.0125: real time    0.0125
    TRIAL :  cpu time   14.2190: real time   14.2391
    CORREC:  cpu time    4.7013: real time    4.7075
    CHARGE:  cpu time    0.4969: real time    0.4976
    --------------------------------------------
      LOOP:  cpu time   19.4806: real time   19.5077

 eigenvalue-minimisations  :     0
 total energy-change (2. order) :-0.8914277E-01  (-0.1399827E+00)
 number of electron     258.0000003 magnetization       6.0000000
 augmentation part       76.0788612 magnetization       3.7058099

 Free energy of the ion-electron system (eV)
  ---------------------------------------------------
  alpha Z        PSCENC =       742.12823337
  Ewald energy   TEWEN  =    -13778.61270230
  -Hartree energ DENC   =     -7191.09759500
  -exchange      EXHF   =         0.00000000
  -V(xc)+E(xc)   XCENC  =       852.11271826
  PAW double counting   =     23667.23790281   -24135.47044570
  entropy T*S    EENTRO =        -0.01569463
  eigenvalues    EBANDS =      -546.22218651
  atomic energy  EATOM  =     20168.87094289
  ---------------------------------------------------
  free energy    TOTEN  =      -221.07022474 eV

  energy without entropy =     -221.05453011  energy(sigma->0) =     -221.06237742


--------------------------------------------------------------------------------------------------------




--------------------------------------- Iteration      1(  22)  ---------------------------------------


    POTLOK:  cpu time    0.0460: real time    0.0460
    SETDIJ:  cpu time    0.0126: real time    0.0126
    TRIAL :  cpu time   14.0686: real time   14.0879
    CORREC:  cpu time    4.5625: real time    4.5696
    CHARGE:  cpu time    0.5064: real time    0.5069
    --------------------------------------------
      LOOP:  cpu time   19.2008: real time   19.2282

 eigenvalue-minimisations  :     0
 total energy-change (2. order) :-0.1385393E+00  (-0.1919905E+00)
 number of electron     258.0000003 magnetization       5.9999999
 augmentation part       75.8767137 magnetization       3.7229100

 Free energy of the ion-electron system (eV)
  ---------------------------------------------------
  alpha Z        PSCENC =       742.12823337
  Ewald energy   TEWEN  =    -13778.61270230
  -Hartree energ DENC   =     -7184.37876259
  -exchange      EXHF   =         0.00000000
  -V(xc)+E(xc)   XCENC  =       851.76652835
  PAW double counting   =     23646.67836046   -24111.34891402
  entropy T*S    EENTRO =        -0.01324188
  eigenvalues    EBANDS =      -556.29675555
  atomic energy  EATOM  =     20168.87094289
  ---------------------------------------------------
  free energy    TOTEN  =      -221.20876403 eV

  energy without entropy =     -221.19552215  energy(sigma->0) =     -221.20214309


--------------------------------------------------------------------------------------------------------




--------------------------------------- Iteration      1(  23)  ---------------------------------------


    POTLOK:  cpu time    0.0464: real time    0.0464
    SETDIJ:  cpu time    0.0126: real time    0.0125
    TRIAL :  cpu time   14.1723: real time   14.2086
    CORREC:  cpu time    4.5346: real time    4.5430
    CHARGE:  cpu time    0.5000: real time    0.5007
    --------------------------------------------
      LOOP:  cpu time   19.2703: real time   19.3158

 eigenvalue-minimisations  :     0
 total energy-change (2. order) :-0.1913840E+00  (-0.1425066E+00)
 number of electron     258.0000003 magnetization       5.9999999
 augmentation part       75.8448049 magnetization       3.7681338

 Free energy of the ion-electron system (eV)
  ---------------------------------------------------
  alpha Z        PSCENC =       742.12823337
  Ewald energy   TEWEN  =    -13778.61270230
  -Hartree energ DENC   =     -7177.37703928
  -exchange      EXHF   =         0.00000000
  -V(xc)+E(xc)   XCENC  =       851.25988070
  PAW double counting   =     23621.67298391   -24080.42485072
  entropy T*S    EENTRO =        -0.01145701
  eigenvalues    EBANDS =      -568.90435473
  atomic energy  EATOM  =     20168.87094289
  ---------------------------------------------------
  free energy    TOTEN  =      -221.40014803 eV

  energy without entropy =     -221.38869102  energy(sigma->0) =     -221.39441953


--------------------------------------------------------------------------------------------------------




--------------------------------------- Iteration      1(  24)  ---------------------------------------


    POTLOK:  cpu time    0.0458: real time    0.0459
    SETDIJ:  cpu time    0.0126: real time    0.0126
    TRIAL :  cpu time   14.1160: real time   14.1487
    CORREC:  cpu time    4.5221: real time    4.5313
    CHARGE:  cpu time    0.4946: real time    0.4953
    --------------------------------------------
      LOOP:  cpu time   19.1960: real time   19.2386

 eigenvalue-minimisations  :     0
 total energy-change (2. order) :-0.1453911E+00  (-0.1515097E+00)
 number of electron     258.0000003 magnetization       5.9999999
 augmentation part       75.8894359 magnetization       3.8414022

 Free energy of the ion-electron system (eV)
  ---------------------------------------------------
  alpha Z        PSCENC =       742.12823337
  Ewald energy   TEWEN  =    -13778.61270230
  -Hartree energ DENC   =     -7178.00104685
  -exchange      EXHF   =         0.00000000
  -V(xc)+E(xc)   XCENC  =       851.15359256
  PAW double counting   =     23624.70186533   -24083.98700572
  entropy T*S    EENTRO =        -0.01195623
  eigenvalues    EBANDS =      -567.78796141
  atomic energy  EATOM  =     20168.87094289
  ---------------------------------------------------
  free energy    TOTEN  =      -221.54553916 eV

  energy without entropy =     -221.53358293  energy(sigma->0) =     -221.53956104


--------------------------------------------------------------------------------------------------------




--------------------------------------- Iteration      1(  25)  ---------------------------------------


    POTLOK:  cpu time    0.0464: real time    0.0464
    SETDIJ:  cpu time    0.0126: real time    0.0126
    TRIAL :  cpu time   14.1340: real time   14.1714
    CORREC:  cpu time    4.5392: real time    4.5499
    CHARGE:  cpu time    0.4870: real time    0.4877
    --------------------------------------------
      LOOP:  cpu time   19.2237: real time   19.2730

 eigenvalue-minimisations  :     0
 total energy-change (2. order) :-0.1517707E+00  (-0.1791808E+00)
 number of electron     258.0000003 magnetization       5.9999999
[...]
   20        1.579   3.362   0.000   4.941
   21        1.566   3.451   0.000   5.017
   22        1.575   3.373   0.000   4.948
   23        1.561   3.431   0.000   4.992
   24        1.568   3.424   0.000   4.991
   25        1.571   3.410   0.000   4.981
   26        1.565   3.417   0.000   4.981
   27        1.581   3.384   0.000   4.965
   28        1.581   3.368   0.000   4.949
   29        1.568   3.434   0.000   5.001
   30        1.567   3.467   0.000   5.034
   31        1.582   3.386   0.000   4.969
   32        1.587   3.352   0.000   4.939
   33        1.577   3.383   0.000   4.959
   34        1.577   3.399   0.000   4.976
   35        1.563   3.442   0.000   5.005
   36        1.559   3.440   0.000   4.999
   37        1.565   3.441   0.000   5.006
   38        1.555   3.473   0.000   5.027
   39        1.566   3.449   0.000   5.015
   40        1.571   3.394   0.000   4.965
   41        1.561   3.454   0.000   5.015
   42        1.558   3.463   0.000   5.021
--------------------------------------------------
tot         43.585  91.557  87.510 222.652
 


 magnetization (x)
 
# of ion       s       p       d       tot
------------------------------------------
    1        0.001   0.000   0.000   0.001
    2        0.000  -0.000   0.000   0.000
    3        0.000  -0.001   0.000  -0.001
    4        0.001  -0.000   0.000   0.001
    5        0.001  -0.000   0.000   0.001
    6        0.000  -0.000   0.000   0.000
    7        0.013   0.016   1.342   1.370
    8        0.003   0.004  -0.024  -0.017
    9        0.003   0.004  -0.007  -0.000
   10        0.013   0.015   1.399   1.427
   11        0.012   0.016   1.314   1.343
   12        0.006   0.008   0.030   0.044
   13        0.013   0.016   1.391   1.420
   14        0.011   0.017   1.226   1.255
   15        0.001   0.002  -0.019  -0.016
   16        0.001   0.001  -0.003  -0.000
   17        0.010   0.009   1.295   1.314
   18        0.003   0.003  -0.008  -0.002
   19        0.000  -0.122   0.000  -0.122
   20       -0.000  -0.079   0.000  -0.079
   21       -0.000  -0.083   0.000  -0.083
   22        0.000  -0.123   0.000  -0.123
   23        0.001  -0.034   0.000  -0.033
   24        0.000  -0.094   0.000  -0.094
   25        0.001  -0.062   0.000  -0.062
   26       -0.000  -0.101   0.000  -0.101
   27        0.001  -0.155   0.000  -0.154
   28        0.001  -0.132   0.000  -0.131
   29        0.001  -0.083   0.000  -0.082
   30        0.001  -0.034   0.000  -0.033
   31        0.001  -0.103   0.000  -0.102
   32        0.001  -0.136   0.000  -0.135
   33        0.001  -0.073   0.000  -0.072
   34        0.001  -0.152   0.000  -0.151
   35        0.000  -0.051   0.000  -0.050
   36       -0.001  -0.013   0.000  -0.013
   37        0.001  -0.035   0.000  -0.035
   38        0.000  -0.021   0.000  -0.021
   39        0.000  -0.048   0.000  -0.048
   40        0.000  -0.067   0.000  -0.067
   41       -0.000  -0.072   0.000  -0.072
   42       -0.000  -0.007   0.000  -0.008
--------------------------------------------------
tot          0.101  -1.769   7.936   6.268
 
    FORLOC:  cpu time    0.0083: real time    0.0083
    FORNL :  cpu time    4.7807: real time    4.7880
    STRESS:  cpu time   14.1457: real time   14.2302
    FORCOR:  cpu time    0.0492: real time    0.0494
    OFIELD:  cpu time    0.0005: real time    0.0005

  DFT-D2 method for vdW energy calculation
  -------------------------------------------------------------------

  Parameters of vdW forcefield:
         C6(Jnm^6/mol)     R0(A)
   -----------------------------
   Li       1.610          0.825
   Co      10.800          1.562
   O        0.700          1.342

  IVDW =   1
  VDW_RADIUS =    50.000 A
  VDW_S6 =     0.750
  VDW_SR =     1.000
  VDW_D =    20.000
  LVDW_EWALD = F

  Number of pair interactions contributing to vdW energy: 1197517
  Edisp (eV):   -9.40971
    FORVDW:  cpu time    0.1730: real time    0.1737

  FORCE on cell =-STRESS in cart. coord.  units (eV):
  Direction    XX          YY          ZZ          XY          YZ          ZX
  --------------------------------------------------------------------------------------
  Alpha Z   742.12823   742.12823   742.12823
  Ewald   -1605.66617 -1411.38917-10761.62525    51.93550  -132.33140    48.74293
  Hartree  4666.79907  4747.62285 -2242.51578    30.33663   -45.72246    16.71880
  E(xc)   -1284.84535 -1284.73593 -1286.04761    -0.16738    -0.08864    -0.19043
  Local   -8015.87650 -8277.06870  8020.03967   -86.94780   168.74831   -68.39757
  n-local  -597.19134  -589.90381  -600.24578     0.51955    -4.39776     1.91116
  augment  2025.37575  2017.69247  2001.45997     3.60799     3.70571     2.23842
  Kinetic  4068.70520  4067.01806  4134.17782     3.08146     5.84364     1.78650
  Fock        0.00000     0.00000     0.00000     0.00000     0.00000     0.00000
  vdW        -6.25202    -6.01923   -12.54789    -0.10752    -0.20396    -0.03756
  -------------------------------------------------------------------------------------
  Total      -6.82313     5.34478    -5.17661     2.25842    -4.44655     2.77224
  in kB     -27.67314    21.67727   -20.99520     9.15966   -18.03426    11.24361
  external pressure =       -9.00 kB  Pullay stress =        0.00 kB


 VOLUME and BASIS-vectors are now :
 -----------------------------------------------------------------------------
  energy-cutoff  :      600.00
  volume of cell :      395.04
      direct lattice vectors                 reciprocal lattice vectors
     5.675580978  0.000000000  0.000000000     0.176193416  0.104301661  0.001858420
    -2.857129097  4.826455593  0.000000000     0.000000000  0.207191381 -0.023660960
    -1.127006054  1.646864176 14.421057701     0.000000000  0.000000000  0.069343041

  length of vectors
     5.675580978  5.608730718 14.558475520     0.204759395  0.208538029  0.069343041


 FORCES acting on ions:
    Electron-Ion                     Ewald-Force                    Non-Local-Force
 -----------------------------------------------------------------------------------------------
   0.318E+00 -.716E+01 -.114E+02   0.250E-01 0.658E+01 0.112E+02   0.126E+00 0.116E+01 0.365E+00
   -.462E+01 -.558E+01 -.229E+02   0.382E+01 0.515E+01 0.222E+02   0.133E+01 0.103E+01 0.162E+01
   -.163E+01 0.104E+00 -.738E+01   0.151E+01 -.428E+00 0.750E+01   0.314E+00 0.254E+00 -.294E-01
   0.830E+00 -.158E+01 -.794E+01   -.105E+01 0.173E+01 0.750E+01   0.392E+00 -.440E+00 0.106E+01
   -.211E+01 0.753E+00 0.149E+02   0.209E+01 -.782E+00 -.143E+02   0.119E-01 0.162E+00 -.839E+00
   0.555E+01 -.273E+01 0.145E+02   -.529E+01 0.246E+01 -.137E+02   -.744E+00 0.167E+00 -.778E+00
   0.446E+01 0.139E+02 -.117E+03   -.399E+01 -.132E+02 0.117E+03   -.559E+00 0.206E+00 0.489E-01
   0.161E+02 -.246E+02 -.586E+02   -.176E+02 0.252E+02 0.589E+02   -.818E+00 0.644E+00 -.214E+01
   0.999E+01 0.381E+01 -.604E+02   -.101E+02 -.413E+01 0.612E+02   -.316E+00 -.408E+00 -.994E+00
   0.761E+01 0.870E+01 -.634E+02   -.719E+01 -.983E+01 0.628E+02   -.471E+00 -.256E+00 0.139E+00
   0.757E+01 -.185E+01 0.341E+02   -.749E+01 0.285E+01 -.359E+02   0.648E+00 -.378E+00 0.771E+00
   -.586E+01 0.289E+02 0.157E+03   0.764E+01 -.302E+02 -.158E+03   -.111E+01 -.154E+00 -.431E+00
   -.425E+02 0.116E+00 0.166E+03   0.433E+02 0.538E+00 -.166E+03   0.267E-01 0.359E+00 0.757E+00
   0.285E+02 -.254E+02 0.607E+02   -.304E+02 0.255E+02 -.608E+02   -.146E+00 0.136E+00 0.105E+00
   -.146E+02 0.140E+02 0.177E+02   0.139E+02 -.141E+02 -.167E+02   0.897E+00 0.394E+00 0.742E+00
   0.484E+02 -.165E+02 -.482E+02   -.486E+02 0.152E+02 0.470E+02   -.135E+00 0.670E+00 0.669E+00
   -.110E+02 0.241E+02 -.589E+02   0.118E+02 -.237E+02 0.594E+02   0.488E-01 -.148E+01 0.330E-01
   -.490E+02 0.567E+00 -.295E+02   0.504E+02 -.494E+00 0.307E+02   0.327E+00 -.169E+00 -.196E+00
   -.964E+01 0.162E+01 -.371E+03   0.129E+02 -.294E+01 0.395E+03   -.367E+01 0.200E+01 -.239E+02
   0.134E+02 0.226E+02 -.383E+03   -.147E+02 -.249E+02 0.408E+03   0.145E+01 0.124E+01 -.260E+02
   -.723E+01 -.177E+02 -.360E+03   0.593E+01 0.219E+02 0.378E+03   0.261E+01 -.470E+01 -.176E+02
   -.134E+02 0.160E+02 -.358E+03   0.154E+02 -.193E+02 0.380E+03   -.149E+01 0.326E+01 -.221E+02
   -.302E+02 0.142E+02 0.260E+03   0.321E+02 -.170E+02 -.274E+03   -.756E+00 0.226E+01 0.146E+02
   0.234E+01 -.101E+02 0.281E+03   -.427E+01 0.885E+01 -.300E+03   0.232E+01 0.233E+01 0.181E+02
   0.224E+02 -.237E+02 0.285E+03   -.240E+02 0.293E+02 -.306E+03   0.137E+01 -.534E+01 0.208E+02
   -.102E+02 0.214E+01 0.263E+03   0.139E+02 -.175E+01 -.279E+03   -.424E+01 -.353E+00 0.174E+02
   0.166E+01 0.309E+02 -.289E+03   -.193E+01 -.353E+02 0.313E+03   0.760E-01 0.308E+01 -.232E+02
   -.306E+00 0.100E+02 -.268E+03   0.273E+00 -.113E+02 0.292E+03   0.516E+00 0.129E+01 -.240E+02
   0.155E+02 -.439E+01 -.242E+03   -.183E+02 0.572E+01 0.258E+03   0.188E+01 -.202E+01 -.156E+02
   -.268E+02 0.419E+01 -.277E+03   0.307E+02 -.595E+01 0.297E+03   -.339E+01 0.148E+01 -.199E+02
   0.485E+02 -.287E+02 0.392E+03   -.512E+02 0.304E+02 -.416E+03   0.171E+01 -.242E+00 0.231E+02
   0.732E+01 0.206E+02 0.414E+03   -.106E+02 -.200E+02 -.441E+03   0.334E+01 -.125E+01 0.278E+02
   -.478E+02 -.790E+01 0.399E+03   0.514E+02 0.745E+01 -.421E+03   -.253E+01 0.123E+01 0.222E+02
   0.696E+01 -.268E+02 0.403E+03   -.565E+01 0.302E+02 -.424E+03   -.134E+01 -.289E+01 0.209E+02
   0.175E+02 -.136E+02 -.345E+03   -.183E+02 0.128E+02 0.362E+03   -.139E+00 0.135E+01 -.171E+02
   -.243E+02 0.169E+02 -.321E+03   0.224E+02 -.190E+02 0.335E+03   0.280E+01 0.185E+01 -.156E+02
   0.452E+00 -.427E+01 -.356E+03   -.145E+01 0.642E+01 0.376E+03   0.296E+00 -.173E+01 -.187E+02
   0.148E+02 -.113E+02 -.334E+03   -.140E+02 0.117E+02 0.346E+03   -.159E+01 0.291E+00 -.133E+02
   0.483E+00 0.848E+01 0.312E+03   0.168E+01 -.766E+01 -.332E+03   -.350E+01 -.139E+01 0.189E+02
   -.899E+01 -.430E+02 0.307E+03   0.120E+02 0.485E+02 -.328E+03   -.349E+01 -.441E+01 0.215E+02
   0.248E+01 0.284E+02 0.304E+03   -.431E+01 -.325E+02 -.321E+03   0.265E+01 0.360E+01 0.168E+02
   0.280E+02 0.269E+01 0.304E+03   -.329E+02 -.392E+01 -.321E+03   0.431E+01 0.550E+00 0.164E+02
 -----------------------------------------------------------------------------------------------
   0.953E+00 -.334E+01 -.243E+01   0.114E-12 -.715E-13 0.796E-12   -.991E+00 0.338E+01 0.245E+01
 
 
 POSITION                                       TOTAL-FORCE (eV/Angst)
 -----------------------------------------------------------------------------------
      1.85954      6.05455     14.32058         0.340968      0.430068      0.147345
     -1.03059      5.94061     14.20028         0.292087      0.592039      0.642850
      0.47990      3.72387     14.35378         0.171965     -0.076775      0.050398
      0.83361      3.88243      4.71097         0.051027     -0.203032      0.547956
      2.00698      2.95182      9.75480        -0.017989      0.068685     -0.073126
      0.77854      5.50921      9.75602        -0.411915     -0.118815      0.189571
      0.08888      1.35438      2.41321        -0.012943      0.812703      0.475013
     -1.24858      3.77428      2.41565        -2.030727      1.035934     -1.683532
      2.93614      1.49836      2.35835        -0.382146     -0.681007     -0.271553
      1.52854      3.87380      2.35279         0.025069     -1.243771     -0.689859
      4.69020      1.26113      7.39073         0.604632      0.656263     -0.919835
      3.21266      3.76063      7.25203         0.687126     -1.228528     -0.820660
      1.79000      1.25470      7.15356         0.738904      0.885824      0.470926
      0.48362      3.66921      7.34802        -1.842562      0.117398     -0.072232
      0.63856      2.18539     11.87238         0.178308      0.357522      1.756071
     -0.80584      4.61298     11.99998        -0.130203     -0.654098     -0.402863
      3.48229      2.21135     11.96618         0.681882     -0.925744      0.336808
      2.01449      4.60855     11.96778         1.424216     -0.085968      0.952144
      2.94958      4.53749      3.37816        -0.479868      0.683001     -0.398064
     -1.29768      2.24213      3.40939         0.152821     -1.013184     -0.651950
      0.02812      4.71583      3.29812         1.290587     -0.462720      0.598839
      1.45161      2.28250      3.36956         0.561818     -0.165227     -0.590494
      1.42087      0.65667      1.31246         1.213336     -0.581718      0.486170
      0.11505      2.93054      1.40427         0.387153      1.062256     -0.198040
      4.36845      0.58381      1.36573        -0.202578      0.217453     -0.056988
      2.96371      3.04647      1.25222        -0.472978      0.019125      1.508488
      0.52630      2.13916      8.28418        -0.235030     -1.427037      0.334731
     -1.05280      4.55280      8.18770         0.525921     -0.046866      0.399455
      3.24296      2.12430      8.15581        -0.832507     -0.668232      1.040824
      1.78651      4.51047      8.34028         0.644091     -0.240360     -0.015848
     -0.88469      2.79542      6.48831        -1.035233      1.496125     -1.489377
     -2.50933      5.37154      6.24713         0.033689     -0.687248      0.859334
      1.70316      2.86650      6.18113         1.192576      0.724738      1.171197
      0.45107      5.22862      6.39734        -0.055102      0.553507     -1.008100
     -0.69330      2.94129     12.94508        -0.921009      0.626513     -0.095525
     -2.33911      5.43615     13.12258         0.902419     -0.315669     -2.204820
      2.07843      2.92079     12.88758        -0.704965      0.441427      0.706540
      0.62239      5.34388     13.07068        -0.683208      0.710087     -0.685587
     -0.76114      1.41956     11.00098        -1.260252     -0.546559     -0.452249
     -2.17257      3.70950     10.95388        -0.447334      1.101997      0.521252
      2.06774      1.41151     10.95608         0.731583     -0.495146     -0.099460
      0.66446      3.90697     10.94738        -0.673625     -0.724962     -0.315750
 -----------------------------------------------------------------------------------
    total drift:                               -0.038551      0.034853      0.018459


--------------------------------------------------------------------------------------------------------



  FREE ENERGIE OF THE ION-ELECTRON SYSTEM (eV)
  ---------------------------------------------------
  free  energy   TOTEN  =      -233.55153233 eV

  energy  without entropy=     -233.54974892  energy(sigma->0) =     -233.55064063
 


--------------------------------------------------------------------------------------------------------


    POTLOK:  cpu time    0.0668: real time    0.0676


--------------------------------------------------------------------------------------------------------


     LOOP+:  cpu time 2982.8611: real time 2997.0572
    4ORBIT:  cpu time    0.0000: real time    0.0000
 


 total charge     
 
# of ion       s       p       d       tot
------------------------------------------
    1        0.101   0.216   0.000   0.318
    2        0.098   0.210   0.000   0.308
    3        0.089   0.181   0.000   0.270
    4        0.091   0.187   0.000   0.278
    5        0.090   0.188   0.000   0.277
    6        0.095   0.201   0.000   0.296
    7        0.454   0.726   7.197   8.377
    8        0.437   0.672   7.374   8.483
    9        0.409   0.620   7.309   8.338
   10        0.459   0.720   7.228   8.407
   11        0.477   0.780   7.258   8.515
   12        0.411   0.624   7.330   8.365
   13        0.461   0.736   7.214   8.411
   14        0.500   0.837   7.307   8.644
   15        0.442   0.701   7.392   8.535
   16        0.400   0.600   7.296   8.296
   17        0.466   0.736   7.237   8.438
   18        0.427   0.666   7.368   8.461
   19        1.578   3.362   0.000   4.940
   20        1.579   3.362   0.000   4.941
   21        1.566   3.451   0.000   5.017
   22        1.575   3.373   0.000   4.948
   23        1.561   3.431   0.000   4.992
   24        1.568   3.424   0.000   4.991
   25        1.571   3.410   0.000   4.981
   26        1.565   3.417   0.000   4.981
   27        1.581   3.384   0.000   4.965
   28        1.581   3.368   0.000   4.949
   29        1.568   3.434   0.000   5.001
   30        1.567   3.467   0.000   5.034
   31        1.582   3.386   0.000   4.969
   32        1.587   3.352   0.000   4.939
   33        1.577   3.383   0.000   4.959
   34        1.577   3.399   0.000   4.976
   35        1.563   3.442   0.000   5.005
   36        1.559   3.440   0.000   4.999
   37        1.565   3.441   0.000   5.006
   38        1.555   3.473   0.000   5.027
   39        1.566   3.449   0.000   5.015
   40        1.571   3.394   0.000   4.965
   41        1.561   3.454   0.000   5.015
   42        1.558   3.463   0.000   5.021
--------------------------------------------------
tot         43.585  91.557  87.510 222.652
 


 magnetization (x)
 
# of ion       s       p       d       tot
------------------------------------------
    1        0.001   0.000   0.000   0.001
    2        0.000  -0.000   0.000   0.000
    3        0.000  -0.001   0.000  -0.001
    4        0.001  -0.000   0.000   0.001
    5        0.001  -0.000   0.000   0.001
    6        0.000  -0.000   0.000   0.000
    7        0.013   0.016   1.342   1.370
    8        0.003   0.004  -0.024  -0.017
    9        0.003   0.004  -0.007  -0.000
   10        0.013   0.015   1.399   1.427
   11        0.012   0.016   1.314   1.343
   12        0.006   0.008   0.030   0.044
   13        0.013   0.016   1.391   1.420
   14        0.011   0.017   1.226   1.255
   15        0.001   0.002  -0.019  -0.016
   16        0.001   0.001  -0.003  -0.000
   17        0.010   0.009   1.295   1.314
   18        0.003   0.003  -0.008  -0.002
   19        0.000  -0.122   0.000  -0.122
   20       -0.000  -0.079   0.000  -0.079
   21       -0.000  -0.083   0.000  -0.083
   22        0.000  -0.123   0.000  -0.123
   23        0.001  -0.034   0.000  -0.033
   24        0.000  -0.094   0.000  -0.094
   25        0.001  -0.062   0.000  -0.062
   26       -0.000  -0.101   0.000  -0.101
   27        0.001  -0.155   0.000  -0.154
   28        0.001  -0.132   0.000  -0.131
   29        0.001  -0.083   0.000  -0.082
   30        0.001  -0.034   0.000  -0.033
   31        0.001  -0.103   0.000  -0.102
   32        0.001  -0.136   0.000  -0.135
   33        0.001  -0.073   0.000  -0.072
   34        0.001  -0.152   0.000  -0.151
   35        0.000  -0.051   0.000  -0.050
   36       -0.001  -0.013   0.000  -0.013
   37        0.001  -0.035   0.000  -0.035
   38        0.000  -0.021   0.000  -0.021
   39        0.000  -0.048   0.000  -0.048
   40        0.000  -0.067   0.000  -0.067
   41       -0.000  -0.072   0.000  -0.072
   42       -0.000  -0.007   0.000  -0.008
--------------------------------------------------
tot          0.101  -1.769   7.936   6.268
 

 total amount of memory used by VASP MPI-rank0   159852. kBytes
=======================================================================

   base      :      30000. kBytes
   nonlr-proj:       4294. kBytes
   fftplans  :       1688. kBytes
   grid      :       4644. kBytes
   one-center:        342. kBytes
   wavefun   :     118884. kBytes
 
  
  
 General timing and accounting informations for this job:
 ========================================================
  
                  Total CPU time used (sec):     3008.423
                            User time (sec):     2839.522
                          System time (sec):      168.901
                         Elapsed time (sec):     3023.097
  
                   Maximum memory used (kb):      759480.
                   Average memory used (kb):           0.
  
                          Minor page faults:        71089
                          Major page faults:           71
                 Voluntary context switches:          640
