 vasp.5.4.4.18Apr17-6-g9f103f2a35 (build Nov 22 2021 14:44:17) complex          
  
 executed on             LinuxIFC date 2022.08.08  10:58:24
 running on   64 total cores
 distrk:  each k-point on   64 cores,    1 groups
 distr:  one band on NCORES_PER_BAND=   4 cores,   16 groups


--------------------------------------------------------------------------------------------------------


 INCAR:
 POTCAR:    PAW_PBE Li 17Jan2003                  
 POTCAR:    PAW_PBE Co 02Aug2007                  
 POTCAR:    PAW_PBE O 08Apr2002                   
 POTCAR:    PAW_PBE Li 17Jan2003                  
   VRHFIN =Li: s1p0                                                             
   LEXCH  = PE                                                                  
   EATOM  =     5.3001 eV,    0.3895 Ry                                         
                                                                                
   TITEL  = PAW_PBE Li 17Jan2003                                                
   LULTRA =        F    use ultrasoft PP ?                                      
   IUNSCR =        1    unscreen: 0-lin 1-nonlin 2-no                           
   RPACOR =    1.500    partial core radius                                     
   POMASS =    7.010; ZVAL   =    1.000    mass and valenz                      
   RCORE  =    2.050    outmost cutoff radius                                   
   RWIGS  =    2.600; RWIGS  =    1.376    wigner-seitz radius (au A)           
   ENMAX  =  140.000; ENMIN  =  100.000 eV                                      
   ICORE  =        2    local potential                                         
   LCOR   =        T    correct aug charges                                     
   LPAW   =        T    paw PP                                                  
   EAUG   =  331.638                                                            
   DEXC   =    0.000                                                            
   RMAX   =    2.098    core radius for proj-oper                               
   RAUG   =    1.300    factor for augmentation sphere                          
   RDEP   =    2.094    radius for radial grids                                 
   RDEPT  =    1.810    core radius for aug-charge                              
                                                                                
   Atomic configuration                                                         
    4 entries                                                                   
     n  l   j            E        occ.                                          
     1  0  0.50       -51.8549   2.0000                                         
     2  0  0.50        -2.8742   1.0000                                         
     2  1  0.50        -1.3606   0.0000                                         
     3  2  1.50        -1.3606   0.0000                                         
   Description                                                                  
     l       E           TYP  RCUT    TYP  RCUT                                 
     0     -2.8742052     23  2.050                                             
     0     27.2116520     23  2.050                                             
     1     -1.3605826     23  2.050                                             
     2     -1.3605826     23  2.050                                             
  local pseudopotential read in
  partial core-charges read in
  partial kinetic energy density read in
  atomic valenz-charges read in
  non local Contribution for L=           0  read in
    real space projection operators read in
  non local Contribution for L=           0  read in
    real space projection operators read in
  non local Contribution for L=           1  read in
    real space projection operators read in
    PAW grid and wavefunctions read in
 
   number of l-projection  operators is LMAX  =           3
   number of lm-projection operators is LMMAX =           5
 
 POTCAR:    PAW_PBE Co 02Aug2007                  
   VRHFIN =Co: d8 s1                                                            
   LEXCH  = PE                                                                  
   EATOM  =   813.3670 eV,   59.7808 Ry                                         
                                                                                
   TITEL  = PAW_PBE Co 02Aug2007                                                
   LULTRA =        F    use ultrasoft PP ?                                      
   IUNSCR =        1    unscreen: 0-lin 1-nonlin 2-no                           
   RPACOR =    2.000    partial core radius                                     
   POMASS =   58.933; ZVAL   =    9.000    mass and valenz                      
   RCORE  =    2.300    outmost cutoff radius                                   
   RWIGS  =    2.460; RWIGS  =    1.302    wigner-seitz radius (au A)           
   ENMAX  =  267.968; ENMIN  =  200.976 eV                                      
   RCLOC  =    1.203    cutoff for local pot                                    
   LCOR   =        T    correct aug charges                                     
   LPAW   =        T    paw PP                                                  
   EAUG   =  477.818                                                            
   DEXC   =    0.000                                                            
   RMAX   =    2.360    core radius for proj-oper                               
   RAUG   =    1.300    factor for augmentation sphere                          
   RDEP   =    2.393    radius for radial grids                                 
   RDEPT  =    1.864    core radius for aug-charge                              
                                                                                
   Atomic configuration                                                         
    9 entries                                                                   
     n  l   j            E        occ.                                          
     1  0  0.50     -7587.6674   2.0000                                         
     2  0  0.50      -893.6084   2.0000                                         
     2  1  1.50      -764.5805   6.0000                                         
     3  0  0.50       -97.5973   2.0000                                         
     3  1  1.50       -60.9648   6.0000                                         
     3  2  2.50        -4.2382   8.0000                                         
     4  0  0.50        -4.3746   1.0000                                         
     4  1  1.50        -4.0817   0.0000                                         
     4  3  2.50        -1.3606   0.0000                                         
   Description                                                                  
     l       E           TYP  RCUT    TYP  RCUT                                 
     2     -4.2382362     23  2.300                                             
     2     -5.5988188     23  2.300                                             
     0     -4.3745797     23  2.300                                             
     0      5.7660125     23  2.300                                             
     1     -2.7211652     23  2.300                                             
     1     16.9860234     23  2.300                                             
  local pseudopotential read in
  partial core-charges read in
  partial kinetic energy density read in
  atomic valenz-charges read in
  non local Contribution for L=           2  read in
    real space projection operators read in
  non local Contribution for L=           2  read in
    real space projection operators read in
  non local Contribution for L=           0  read in
    real space projection operators read in
  non local Contribution for L=           0  read in
    real space projection operators read in
  non local Contribution for L=           1  read in
    real space projection operators read in
  non local Contribution for L=           1  read in
    real space projection operators read in
    PAW grid and wavefunctions read in
 
   number of l-projection  operators is LMAX  =           6
   number of lm-projection operators is LMMAX =          18
 
 POTCAR:    PAW_PBE O 08Apr2002                   
   VRHFIN =O: s2p4                                                              
   LEXCH  = PE                                                                  
   EATOM  =   432.3788 eV,   31.7789 Ry                                         
                                                                                
   TITEL  = PAW_PBE O 08Apr2002                                                 
   LULTRA =        F    use ultrasoft PP ?                                      
   IUNSCR =        1    unscreen: 0-lin 1-nonlin 2-no                           
   RPACOR =    1.200    partial core radius                                     
   POMASS =   16.000; ZVAL   =    6.000    mass and valenz                      
   RCORE  =    1.520    outmost cutoff radius                                   
   RWIGS  =    1.550; RWIGS  =    0.820    wigner-seitz radius (au A)           
   ENMAX  =  400.000; ENMIN  =  300.000 eV                                      
   ICORE  =        2    local potential                                         
   LCOR   =        T    correct aug charges                                     
   LPAW   =        T    paw PP                                                  
   EAUG   =  605.392                                                            
   DEXC   =    0.000                                                            
   RMAX   =    1.553    core radius for proj-oper                               
   RAUG   =    1.300    factor for augmentation sphere                          
   RDEP   =    1.550    radius for radial grids                                 
   RDEPT  =    1.329    core radius for aug-charge                              
                                                                                
   Atomic configuration                                                         
    4 entries                                                                   
     n  l   j            E        occ.                                          
     1  0  0.50      -514.6923   2.0000                                         
     2  0  0.50       -23.9615   2.0000                                         
     2  1  0.50        -9.0305   4.0000                                         
     3  2  1.50        -9.5241   0.0000                                         
   Description                                                                  
     l       E           TYP  RCUT    TYP  RCUT                                 
     0    -23.9615318     23  1.200                                             
     0     -9.5240782     23  1.200                                             
     1     -9.0304911     23  1.520                                             
     1      8.1634956     23  1.520                                             
     2     -9.5240782      7  1.500                                             
  local pseudopotential read in
  partial core-charges read in
  partial kinetic energy density read in
  kinetic energy density of atom read in
  atomic valenz-charges read in
  non local Contribution for L=           0  read in
    real space projection operators read in
  non local Contribution for L=           0  read in
    real space projection operators read in
  non local Contribution for L=           1  read in
    real space projection operators read in
  non local Contribution for L=           1  read in
    real space projection operators read in
    PAW grid and wavefunctions read in
 
   number of l-projection  operators is LMAX  =           4
   number of lm-projection operators is LMMAX =           8
 
 Optimization of the real space projectors (new method)

 maximal supplied QI-value         = 18.33
 optimisation between [QCUT,QGAM] = [ 12.46, 24.93] = [ 43.51,174.03] Ry 
 Optimized for a Real-space Cutoff    1.13 Angstroem

   l    n(q)    QCUT    max X(q) W(low)/X(q) W(high)/X(q)  e(spline) 
   0      8    12.465    33.825    0.12E-03    0.29E-03    0.99E-07
   0      8    12.465     8.944    0.86E-04    0.22E-03    0.72E-07
   1      8    12.465     4.214    0.27E-03    0.11E-03    0.82E-07
 Optimization of the real space projectors (new method)

 maximal supplied QI-value         = 16.25
 optimisation between [QCUT,QGAM] = [ 12.51, 25.03] = [ 43.85,175.40] Ry 
 Optimized for a Real-space Cutoff    1.31 Angstroem

   l    n(q)    QCUT    max X(q) W(low)/X(q) W(high)/X(q)  e(spline) 
   2      9    12.514    65.824    0.30E-03    0.46E-03    0.43E-06
   2      9    12.514    61.429    0.31E-03    0.46E-03    0.44E-06
   0     10    12.514    56.174    0.90E-04    0.33E-03    0.30E-06
   0     10    12.514    31.263    0.81E-04    0.30E-03    0.28E-06
   1      9    12.514    19.828    0.38E-03    0.65E-04    0.24E-06
   1      9    12.514    15.139    0.32E-03    0.60E-04    0.20E-06
 Optimization of the real space projectors (new method)

 maximal supplied QI-value         = 24.76
 optimisation between [QCUT,QGAM] = [ 12.38, 25.00] = [ 42.90,175.06] Ry 
 Optimized for a Real-space Cutoff    1.13 Angstroem

   l    n(q)    QCUT    max X(q) W(low)/X(q) W(high)/X(q)  e(spline) 
   0      8    12.378    20.381    0.16E-03    0.54E-05    0.27E-06
   0      8    12.378    15.268    0.17E-03    0.61E-05    0.29E-06
   1      8    12.378     5.964    0.38E-03    0.23E-03    0.28E-06
   1      8    12.378     5.382    0.33E-03    0.20E-03    0.25E-06
  PAW_PBE Li 17Jan2003                  :
 energy of atom  1       EATOM=   -5.3001
 kinetic energy error for atom=    0.0000 (will be added to EATOM!!)
  PAW_PBE Co 02Aug2007                  :
 energy of atom  2       EATOM= -813.3670
 kinetic energy error for atom=    0.0018 (will be added to EATOM!!)
  PAW_PBE O 08Apr2002                   :
 energy of atom  3       EATOM= -432.3788
 kinetic energy error for atom=    0.0168 (will be added to EATOM!!)
 
 
 POSCAR: Li6 Co12 O24                            
  positions in cartesian coordinates
  No initial velocities read in
 exchange correlation table for  LEXCH =        8
   RHO(1)=    0.500       N(1)  =     2000
   RHO(2)=  100.500       N(2)  =     4000
 


--------------------------------------------------------------------------------------------------------


 ion  position               nearest neighbor table
   1  0.284  0.054  0.991-  37 1.99  24 2.12  26 2.26  25 2.37  38 2.41  18 2.74   8 3.05   7 3.05
                            15 3.08   9 3.19
   2  0.794  0.528  0.370-  31 1.81  32 1.91  33 2.20  21 2.24  11 2.61  14 2.74  13 2.86
   3  0.743  0.759  0.671-  39 1.93  29 1.96  27 2.08  28 2.12  42 2.29  40 2.32   5 2.50   4 2.70
                             6 2.71  15 2.83  11 2.89  17 2.90   4 2.96  16 2.97  12 2.98   6 3.01
   4  0.743  0.282  0.663-  30 1.95  27 2.02  41 2.11  40 2.17  28 2.20  39 2.26   3 2.70   6 2.72
                             5 2.73  13 2.78  11 2.79  16 2.84  12 2.94   3 2.96   6 2.99   5 2.99
   5  0.306  0.770  0.670-  29 1.88  41 1.90  40 1.95  30 2.13  27 2.29   6 2.40   3 2.50  42 2.55
                            17 2.70   4 2.73  13 2.86  12 2.89   4 2.99  15 3.05  18 3.09  14 3.12
   6  0.242  0.319  0.682-  41 1.74  39 1.97  42 1.98  29 2.12  28 2.23   5 2.40  30 2.52  16 2.68
                             3 2.71   4 2.72  17 2.74  18 2.81  13 2.86   4 2.99   3 3.01  11 3.13
   7  0.486  0.914  0.159-  24 1.76  19 1.88  20 1.89  22 1.90  25 1.91  23 2.01   8 2.76   9 2.80
                            10 2.84  10 2.84   9 2.87   8 2.90   1 3.05
   8  0.489  0.403  0.162-  23 1.81  24 1.85  20 1.88  19 1.90  26 1.95  21 2.08   7 2.76   9 2.79
                            10 2.83  10 2.84   9 2.89   7 2.90   1 3.05
   9  0.974  0.900  0.164-  23 1.84  22 1.85  25 1.85  21 1.86  20 1.88  26 1.90   8 2.79   7 2.80
                            10 2.83  10 2.84   7 2.87   8 2.89   1 3.19
  10  0.994  0.411  0.166-  22 1.73  21 1.83  19 1.94  25 1.95  26 1.99  24 2.15   9 2.83   8 2.83
                             7 2.84   8 2.84   9 2.84   7 2.84
  11  0.540  0.407  0.512-  34 1.84  31 1.89  29 1.98  30 1.99  32 1.99  27 2.01   2 2.61  12 2.79
                             4 2.79  14 2.81  13 2.83  13 2.84  14 2.87  12 2.87   3 2.89   6 3.13
  12  0.548  0.904  0.507-  33 1.89  31 1.95  32 1.96  28 1.96  29 1.97  30 1.97  11 2.79  13 2.81
                            14 2.82  14 2.84  11 2.87  13 2.87   5 2.89   4 2.94   3 2.98
  13  0.040  0.407  0.518-  32 1.84  34 1.92  27 1.93  33 1.97  28 1.98  29 2.05   4 2.78  12 2.81
                            14 2.82  11 2.83  11 2.84  14 2.85   6 2.86   5 2.86   2 2.86  12 2.87
  14  0.049  0.908  0.508-  31 1.89  33 1.91  34 1.93  28 1.95  27 2.00  30 2.03   2 2.74  11 2.81
                            13 2.82  12 2.82  12 2.84  13 2.85  11 2.87   3 3.04   5 3.12
  15  0.975  0.675  0.826-  35 1.79  37 1.83  36 1.84  42 2.02  41 2.08  39 2.09  16 2.77  17 2.79
                            18 2.81   3 2.83  18 2.87  17 2.88  16 2.89   5 3.05   4 3.06   1 3.08
  16  0.950  0.173  0.820-  40 1.87  42 1.89  36 1.91  35 1.91  41 1.99  38 1.99   6 2.68  15 2.77
                            17 2.81  18 2.81   4 2.84  18 2.86  17 2.87  15 2.89   3 2.97
  17  0.465  0.672  0.828-  38 1.76  35 1.89  37 1.90  40 1.92  39 1.93  41 2.06   5 2.70   6 2.74
                            18 2.76  15 2.79  16 2.81  16 2.87  15 2.88  18 2.90   3 2.90
  18  0.460  0.182  0.828-  36 1.82  42 1.84  38 1.86  37 1.91  39 1.94  40 1.95   1 2.74  17 2.76
                            16 2.81   6 2.81  15 2.81  16 2.86  15 2.87  17 2.90   4 3.02   5 3.09
  19  0.361  0.604  0.224-   7 1.88   8 1.90  10 1.94
  20  0.327  0.081  0.222-   9 1.88   8 1.88   7 1.89
  21  0.875  0.601  0.231-  10 1.83   9 1.86   8 2.08   2 2.24
  22  0.847  0.106  0.216-  10 1.73   9 1.85   7 1.90
  23  0.638  0.704  0.101-   8 1.81   9 1.84   7 2.01
  24  0.593  0.199  0.096-   7 1.76   8 1.85   1 2.12  10 2.15
  25  0.127  0.736  0.100-   9 1.85   7 1.91  10 1.95   1 2.37
  26  0.130  0.210  0.097-   9 1.90   8 1.95  10 1.99   1 2.26
  27  0.901  0.596  0.585-  13 1.93  14 2.00  11 2.01   4 2.02   3 2.08   5 2.29
  28  0.893  0.070  0.582-  14 1.95  12 1.96  13 1.98   3 2.12   4 2.20   6 2.23
  29  0.418  0.607  0.587-   5 1.88   3 1.96  12 1.97  11 1.98  13 2.05   6 2.12
  30  0.412  0.086  0.583-   4 1.95  12 1.97  11 1.99  14 2.03   5 2.13   6 2.52
  31  0.701  0.714  0.444-   2 1.81  11 1.89  14 1.89  12 1.95
  32  0.719  0.241  0.446-  13 1.84   2 1.91  12 1.96  11 1.99
  33  0.196  0.722  0.446-  12 1.89  14 1.91  13 1.97   2 2.20
  34  0.200  0.244  0.450-  11 1.84  13 1.92  14 1.93
  35  0.829  0.847  0.881-  15 1.79  17 1.89  16 1.91
  36  0.805  0.360  0.883-  18 1.82  15 1.84  16 1.91
  37  0.312  0.853  0.888-  15 1.83  17 1.90  18 1.91   1 1.99
  38  0.320  0.373  0.885-  17 1.76  18 1.86  16 1.99   1 2.41
  39  0.593  0.486  0.755-  17 1.93   3 1.93  18 1.94   6 1.97  15 2.09   4 2.26
  40  0.599  0.987  0.761-  16 1.87  17 1.92   5 1.95  18 1.95   4 2.17   3 2.32
  41  0.113  0.483  0.744-   6 1.74   5 1.90  16 1.99  17 2.06  15 2.08   4 2.11
  42  0.130  0.021  0.762-  18 1.84  16 1.89   6 1.98  15 2.02   3 2.29   5 2.55
 

IMPORTANT INFORMATION: All symmetrisations will be switched off!
NOSYMM: (Re-)initialisation of all symmetry stuff for point group C_1.

 
 

Automatic generation of k-mesh.
 generate k-points for:    6    6    2
Space group operators:
 irot       det(A)        alpha          n_x          n_y          n_z        tau_x        tau_y        tau_z
    1     1.000000     0.000000     1.000000     0.000000     0.000000     0.000000     0.000000     0.000000
 
 Subroutine IBZKPT returns following result:
 ===========================================
 
 Found     36 irreducible k-points:
 
 Following reciprocal coordinates:
            Coordinates               Weight
  0.083333  0.083333  0.250000      2.000000
  0.250000  0.083333  0.250000      2.000000
  0.416667  0.083333  0.250000      2.000000
 -0.416667  0.083333  0.250000      2.000000
 -0.250000  0.083333  0.250000      2.000000
 -0.083333  0.083333  0.250000      2.000000
  0.083333  0.250000  0.250000      2.000000
  0.250000  0.250000  0.250000      2.000000
  0.416667  0.250000  0.250000      2.000000
 -0.416667  0.250000  0.250000      2.000000
 -0.250000  0.250000  0.250000      2.000000
 -0.083333  0.250000  0.250000      2.000000
  0.083333  0.416667  0.250000      2.000000
  0.250000  0.416667  0.250000      2.000000
  0.416667  0.416667  0.250000      2.000000
 -0.416667  0.416667  0.250000      2.000000
 -0.250000  0.416667  0.250000      2.000000
 -0.083333  0.416667  0.250000      2.000000
  0.083333 -0.416667  0.250000      2.000000
  0.250000 -0.416667  0.250000      2.000000
  0.416667 -0.416667  0.250000      2.000000
 -0.416667 -0.416667  0.250000      2.000000
 -0.250000 -0.416667  0.250000      2.000000
 -0.083333 -0.416667  0.250000      2.000000
  0.083333 -0.250000  0.250000      2.000000
  0.250000 -0.250000  0.250000      2.000000
  0.416667 -0.250000  0.250000      2.000000
 -0.416667 -0.250000  0.250000      2.000000
 -0.250000 -0.250000  0.250000      2.000000
 -0.083333 -0.250000  0.250000      2.000000
  0.083333 -0.083333  0.250000      2.000000
  0.250000 -0.083333  0.250000      2.000000
  0.416667 -0.083333  0.250000      2.000000
 -0.416667 -0.083333  0.250000      2.000000
 -0.250000 -0.083333  0.250000      2.000000
 -0.083333 -0.083333  0.250000      2.000000
 
 Following cartesian coordinates:
            Coordinates               Weight
  0.014703  0.025419  0.019065      2.000000
  0.044109  0.042304  0.022260      2.000000
  0.073516  0.059190  0.025455      2.000000
 -0.073516 -0.025238  0.009481      2.000000
 -0.044109 -0.008353  0.012676      2.000000
 -0.014703  0.008533  0.015871      2.000000
  0.014703  0.059370  0.021435      2.000000
  0.044109  0.076256  0.024629      2.000000
  0.073516  0.093141  0.027824      2.000000
 -0.073516  0.008713  0.011851      2.000000
 -0.044109  0.025599  0.015045      2.000000
 -0.014703  0.042484  0.018240      2.000000
  0.014703  0.093321  0.023804      2.000000
  0.044109  0.110207  0.026999      2.000000
  0.073516  0.127093  0.030193      2.000000
 -0.073516  0.042665  0.014220      2.000000
 -0.044109  0.059550  0.017415      2.000000
 -0.014703  0.076436  0.020609      2.000000
  0.014703 -0.076436  0.011958      2.000000
  0.044109 -0.059550  0.015153      2.000000
  0.073516 -0.042665  0.018347      2.000000
 -0.073516 -0.127093  0.002374      2.000000
 -0.044109 -0.110207  0.005568      2.000000
 -0.014703 -0.093321  0.008763      2.000000
  0.014703 -0.042484  0.014327      2.000000
  0.044109 -0.025599  0.017522      2.000000
  0.073516 -0.008713  0.020716      2.000000
 -0.073516 -0.093141  0.004743      2.000000
 -0.044109 -0.076256  0.007938      2.000000
 -0.014703 -0.059370  0.011132      2.000000
  0.014703 -0.008533  0.016696      2.000000
  0.044109  0.008353  0.019891      2.000000
  0.073516  0.025238  0.023086      2.000000
 -0.073516 -0.059190  0.007112      2.000000
 -0.044109 -0.042304  0.010307      2.000000
 -0.014703 -0.025419  0.013502      2.000000
 


--------------------------------------------------------------------------------------------------------




 Dimension of arrays:
   k-points           NKPTS =     36   k-points in BZ     NKDIM =     36   number of bands    NBANDS=    160
   number of dos      NEDOS =    301   number of ions     NIONS =     42
   non local maximal  LDIM  =      6   non local SUM 2l+1 LMDIM =     18
   total plane-waves  NPLWV = 124416
   max r-space proj   IRMAX =   2772   max aug-charges    IRDMAX=  11685
   dimension x,y,z NGX =    36 NGY =   36 NGZ =   96
   dimension x,y,z NGXF=    72 NGYF=   72 NGZF=  192
   support grid    NGXF=    72 NGYF=   72 NGZF=  192
   ions per type =               6  12  24
   NGX,Y,Z   is equivalent  to a cutoff of  10.56, 10.57, 10.35 a.u.
   NGXF,Y,Z  is equivalent  to a cutoff of  21.12, 21.15, 20.69 a.u.

 SYSTEM =  LiCoO2                                  
 POSCAR =  Li6 Co12 O24                            

 Startparameter for this run:
   NWRITE =      2    write-flag & timer
   PREC   = normal    normal or accurate (medium, high low for compatibility)
   ISTART =      0    job   : 0-new  1-cont  2-samecut
   ICHARG =      2    charge: 1-file 2-atom 10-const
   ISPIN  =      2    spin polarized calculation?
   LNONCOLLINEAR =      F non collinear calculations
   LSORBIT =      F    spin-orbit coupling
   INIWAV =      1    electr: 0-lowe 1-rand  2-diag
   LASPH  =      F    aspherical Exc in radial PAW
   METAGGA=      F    non-selfconsistent MetaGGA calc.

 Electronic Relaxation 1
   ENCUT  =  600.0 eV  44.10 Ry    6.64 a.u.  11.32 11.31 30.81*2*pi/ulx,y,z
   ENINI  =  600.0     initial cutoff
   ENAUG  =  605.4 eV  augmentation charge cutoff
   NELM   =    600;   NELMIN=  2; NELMDL= -5     # of ELM steps 
   EDIFF  = 0.1E-05   stopping-criterion for ELM
   LREAL  =      T    real-space projection
   NLSPLINE    = F    spline interpolate recip. space projectors
   LCOMPAT=      F    compatible to vasp.4.4
   GGA_COMPAT  = T    GGA compatible to vasp.4.4-vasp.4.6
   LMAXPAW     = -100 max onsite density
   LMAXMIX     =    2 max onsite mixed and CHGCAR
   VOSKOWN=      0    Vosko Wilk Nusair interpolation
   ROPT   =   -0.00050  -0.00050  -0.00050
 Ionic relaxation
   EDIFFG = 0.1E-04   stopping-criterion for IOM
   NSW    =      0    number of steps for IOM
   NBLOCK =      1;   KBLOCK =      1    inner block; outer block 
   IBRION =     -1    ionic relax: 0-MD 1-quasi-New 2-CG
   NFREE  =      0    steps in history (QN), initial steepest desc. (CG)
   ISIF   =      2    stress and relaxation
   IWAVPR =     10    prediction:  0-non 1-charg 2-wave 3-comb
   ISYM   =      0    0-nonsym 1-usesym 2-fastsym
   LCORR  =      T    Harris-Foulkes like correction to forces

   POTIM  = 0.5000    time-step for ionic-motion
   TEIN   =    0.0    initial temperature
   TEBEG  =    0.0;   TEEND  =   0.0 temperature during run
   SMASS  =  -3.00    Nose mass-parameter (am)
   estimated Nose-frequenzy (Omega)   =  0.10E-29 period in steps =****** mass=  -0.734E-27a.u.
   SCALEE = 1.0000    scale energy and forces
   NPACO  =    256;   APACO  = 16.0  distance and # of slots for P.C.
   PSTRESS=    0.0 pullay stress

  Mass of Ions in am
   POMASS =   7.01 58.93 16.00
  Ionic Valenz
   ZVAL   =   1.00  9.00  6.00
  Atomic Wigner-Seitz radii
   RWIGS  =  -1.00 -1.00 -1.00
  virtual crystal weights 
   VCA    =   1.00  1.00  1.00
   NELECT =     258.0000    total number of electrons
   NUPDOWN=       6.0000    fix difference up-down

 DOS related values:
   EMIN   =  10.00;   EMAX   =-10.00  energy-range for DOS
   EFERMI =   0.00
   ISMEAR =     0;   SIGMA  =   0.05  broadening in eV -4-tet -1-fermi 0-gaus

 Electronic relaxation 2 (details)
   IALGO  =     58    algorithm
   LDIAG  =      T    sub-space diagonalisation (order eigenvalues)
   LSUBROT=      F    optimize rotation matrix (better conditioning)
   TURBO    =      0    0=normal 1=particle mesh
   IRESTART =      0    0=no restart 2=restart with 2 vectors
   NREBOOT  =      0    no. of reboots
   NMIN     =      0    reboot dimension
   EREF     =   0.00    reference energy to select bands
   IMIX   =      4    mixing-type and parameters
     AMIX     =   0.40;   BMIX     =  1.00
     AMIX_MAG =   1.60;   BMIX_MAG =  1.00
     AMIN     =   0.10
     WC   =   100.;   INIMIX=   1;  MIXPRE=   1;  MAXMIX= -45

 Intra band minimization:
   WEIMIN = 0.0000     energy-eigenvalue tresh-hold
   EBREAK =  0.16E-08  absolut break condition
   DEPER  =   0.30     relativ break condition  

   TIME   =   0.40     timestep for ELM

  volume/ion in A,a.u.               =      10.17        68.63
  Fermi-wavevector in a.u.,A,eV,Ry     =   1.383835  2.615069 26.055144  1.914999
  Thomas-Fermi vector in A             =   2.508396
 
 Write flags
   LWAVE        =      F    write WAVECAR
   LDOWNSAMPLE  =      F    k-point downsampling of WAVECAR
   LCHARG       =      F    write CHGCAR
   LVTOT        =      F    write LOCPOT, total local potential
   LVHAR        =      F    write LOCPOT, Hartree potential only
   LELF         =      F    write electronic localiz. function (ELF)
   LORBIT       =     11    0 simple, 1 ext, 2 COOP (PROOUT), +10 PAW based schemes


 Dipole corrections
   LMONO  =      F    monopole corrections only (constant potential shift)
   LDIPOL =      F    correct potential (dipole corrections)
   IDIPOL =      0    1-x, 2-y, 3-z, 4-all directions 
   EPSILON=  1.0000000 bulk dielectric constant

 LDA+U is selected, type is set to LDAUTYPE =  2
   angular momentum for each species LDAUL =    -1    2   -1
   U (eV)           for each species LDAUU =   0.0  5.1  0.0
   J (eV)           for each species LDAUJ =   0.0  0.0  0.0
 Exchange correlation treatment:
   GGA     =    --    GGA type
   LEXCH   =     8    internal setting for exchange type
   VOSKOWN=      0    Vosko Wilk Nusair interpolation
   LHFCALC =     F    Hartree Fock is set to
   LHFONE  =     F    Hartree Fock one center treatment
   AEXX    =    0.0000 exact exchange contribution

 Linear response parameters
   LEPSILON=     F    determine dielectric tensor
   LRPA    =     F    only Hartree local field effects (RPA)
   LNABLA  =     F    use nabla operator in PAW spheres
   LVEL    =     F    velocity operator in full k-point grid
   LINTERFAST=   F  fast interpolation
   KINTER  =     0    interpolate to denser k-point grid
   CSHIFT  =0.1000    complex shift for real part using Kramers Kronig
   OMEGAMAX=  -1.0    maximum frequency
   DEG_THRESHOLD= 0.2000000E-02 threshold for treating states as degnerate
   RTIME   =   -0.100 relaxation time in fs
  (WPLASMAI=    0.000 imaginary part of plasma frequency in eV, 0.658/RTIME)
   DFIELD  = 0.0000000 0.0000000 0.0000000 field for delta impulse in time
 
 Orbital magnetization related:
   ORBITALMAG=     F  switch on orbital magnetization
   LCHIMAG   =     F  perturbation theory with respect to B field
   DQ        =  0.001000  dq finite difference perturbation B field
   LLRAUG    =     F  two centre corrections for induced B field



--------------------------------------------------------------------------------------------------------


 Static calculation
 charge density and potential will be updated during run
 spin polarized calculation
 Conjugate gradient for all bands (Freysoldt, et al. PRB 79, 241103 (2009))
 preconditioned conjugated gradient                                        
 perform sub-space diagonalisation
    before iterative eigenvector-optimisation
 modified Broyden-mixing scheme, WC =      100.0
 initial mixing is a Kerker type mixing with AMIX =  0.4000 and BMIX =      1.0000
 Hartree-type preconditioning will be used
 using additional bands           31
 real space projection scheme for non local part
 use partial core corrections
 no Harris-corrections to forces 
 use gradient corrections 
 use of overlap-Matrix (Vanderbilt PP)
 Gauss-broadening in eV      SIGMA  =   0.05


--------------------------------------------------------------------------------------------------------


  energy-cutoff  :      600.00
  volume of cell :      427.16
      direct lattice vectors                 reciprocal lattice vectors
     5.667734146  0.000000000  0.000000000     0.176437351  0.101313467  0.019168203
    -2.818815947  4.908966541  0.000000000     0.000000000  0.203708865  0.014215336
    -1.052749634 -1.071368814 15.352949142     0.000000000  0.000000000  0.065134066

  length of vectors
     5.667734146  5.660713369 15.426249068     0.204357475  0.204204254  0.065134066


 
 k-points in units of 2pi/SCALE and weight: read from INCAR                         
   0.01470311  0.02541853  0.01906548       0.028
   0.04410934  0.04230411  0.02226018       0.028
   0.07351556  0.05918968  0.02545488       0.028
  -0.07351556 -0.02523821  0.00948138       0.028
  -0.04410934 -0.00835263  0.01267608       0.028
  -0.01470311  0.00853295  0.01587078       0.028
   0.01470311  0.05937001  0.02143470       0.028
   0.04410934  0.07625558  0.02462940       0.028
   0.07351556  0.09314116  0.02782410       0.028
  -0.07351556  0.00871327  0.01185060       0.028
  -0.04410934  0.02559885  0.01504530       0.028
  -0.01470311  0.04248443  0.01824000       0.028
   0.01470311  0.09332148  0.02380392       0.028
   0.04410934  0.11020706  0.02699862       0.028
   0.07351556  0.12709264  0.03019332       0.028
  -0.07351556  0.04266475  0.01421982       0.028
  -0.04410934  0.05955033  0.01741452       0.028
  -0.01470311  0.07643590  0.02060922       0.028
   0.01470311 -0.07643590  0.01195781       0.028
   0.04410934 -0.05955033  0.01515251       0.028
   0.07351556 -0.04266475  0.01834721       0.028
  -0.07351556 -0.12709264  0.00237371       0.028
  -0.04410934 -0.11020706  0.00556841       0.028
  -0.01470311 -0.09332148  0.00876311       0.028
   0.01470311 -0.04248443  0.01432703       0.028
   0.04410934 -0.02559885  0.01752173       0.028
   0.07351556 -0.00871327  0.02071643       0.028
  -0.07351556 -0.09314116  0.00474293       0.028
  -0.04410934 -0.07625558  0.00793763       0.028
  -0.01470311 -0.05937001  0.01113233       0.028
   0.01470311 -0.00853295  0.01669626       0.028
   0.04410934  0.00835263  0.01989096       0.028
   0.07351556  0.02523821  0.02308566       0.028
  -0.07351556 -0.05918968  0.00711215       0.028
  -0.04410934 -0.04230411  0.01030685       0.028
  -0.01470311 -0.02541853  0.01350155       0.028
 
 k-points in reciprocal lattice and weights: read from INCAR                         
   0.08333333  0.08333333  0.25000000       0.028
   0.25000000  0.08333333  0.25000000       0.028
   0.41666667  0.08333333  0.25000000       0.028
  -0.41666667  0.08333333  0.25000000       0.028
  -0.25000000  0.08333333  0.25000000       0.028
  -0.08333333  0.08333333  0.25000000       0.028
   0.08333333  0.25000000  0.25000000       0.028
   0.25000000  0.25000000  0.25000000       0.028
   0.41666667  0.25000000  0.25000000       0.028
  -0.41666667  0.25000000  0.25000000       0.028
  -0.25000000  0.25000000  0.25000000       0.028
  -0.08333333  0.25000000  0.25000000       0.028
   0.08333333  0.41666667  0.25000000       0.028
   0.25000000  0.41666667  0.25000000       0.028
   0.41666667  0.41666667  0.25000000       0.028
  -0.41666667  0.41666667  0.25000000       0.028
  -0.25000000  0.41666667  0.25000000       0.028
  -0.08333333  0.41666667  0.25000000       0.028
   0.08333333 -0.41666667  0.25000000       0.028
   0.25000000 -0.41666667  0.25000000       0.028
   0.41666667 -0.41666667  0.25000000       0.028
  -0.41666667 -0.41666667  0.25000000       0.028
  -0.25000000 -0.41666667  0.25000000       0.028
  -0.08333333 -0.41666667  0.25000000       0.028
   0.08333333 -0.25000000  0.25000000       0.028
   0.25000000 -0.25000000  0.25000000       0.028
   0.41666667 -0.25000000  0.25000000       0.028
  -0.41666667 -0.25000000  0.25000000       0.028
  -0.25000000 -0.25000000  0.25000000       0.028
  -0.08333333 -0.25000000  0.25000000       0.028
   0.08333333 -0.08333333  0.25000000       0.028
   0.25000000 -0.08333333  0.25000000       0.028
   0.41666667 -0.08333333  0.25000000       0.028
  -0.41666667 -0.08333333  0.25000000       0.028
  -0.25000000 -0.08333333  0.25000000       0.028
  -0.08333333 -0.08333333  0.25000000       0.028
 
 position of ions in fractional coordinates (direct lattice) 
   0.28387128  0.05368387  0.99093078
   0.79391575  0.52783049  0.37036012
   0.74278998  0.75929071  0.67066789
   0.74349821  0.28246996  0.66309152
   0.30614107  0.76965900  0.67033898
   0.24151759  0.31927568  0.68185076
   0.48603210  0.91377434  0.15944819
   0.48893429  0.40268276  0.16248018
   0.97397139  0.89971028  0.16351776
   0.99396743  0.41084270  0.16594010
   0.53983379  0.40699308  0.51181764
   0.54807493  0.90352691  0.50681274
   0.04006484  0.40677034  0.51805878
   0.04872352  0.90757023  0.50825804
   0.97469145  0.67518982  0.82646076
   0.94979206  0.17284797  0.82027301
   0.46548975  0.67209565  0.82801095
   0.46030223  0.18172400  0.82833010
   0.36067485  0.60421347  0.22402536
   0.32693242  0.08119881  0.22239050
   0.87514389  0.60087705  0.23063517
   0.84656770  0.10599939  0.21588035
   0.63804594  0.70430467  0.10089723
   0.59317674  0.19856448  0.09641535
   0.12717497  0.73630445  0.10024914
   0.13005202  0.20978242  0.09681528
   0.90095591  0.59605047  0.58486090
   0.89343860  0.07024910  0.58151821
   0.41824853  0.60679404  0.58707287
   0.41182294  0.08557710  0.58317461
   0.70132646  0.71385257  0.44445793
   0.71896411  0.24147359  0.44620092
   0.19605761  0.72197153  0.44612471
   0.19967153  0.24356526  0.45029656
   0.82894207  0.84730606  0.88101052
   0.80534407  0.35951224  0.88330325
   0.31229232  0.85303446  0.88805803
   0.32002706  0.37288908  0.88497071
   0.59289954  0.48601618  0.75461139
   0.59904079  0.98713670  0.76124203
   0.11327005  0.48272395  0.74392285
   0.12995085  0.02066882  0.76197153
 
 position of ions in cartesian coordinates  (Angst):
   0.41438001 -0.79812002 15.21370983
   2.62194991  2.19430995  5.68612003
   1.36359000  3.00880003 10.29673004
   2.71965003  0.67622000 10.18041039
  -1.14010000  3.06005001 10.29168034
  -0.24894001  0.83679998 10.46842003
   0.01108000  4.31485987  2.44799995
   1.46501005  1.80268002  2.49454999
   2.81194997  4.24145985  2.51047993
   4.30075979  1.83903003  2.54766989
   1.37357998  1.44956994  7.85791016
   0.02592000  3.89240003  7.78107023
  -1.46492004  1.44178998  7.95373011
  -2.81718993  3.91070008  7.80325985
   2.75099993  2.42903996 12.68861008
   4.03240013 -0.03031000 12.59360981
  -0.12793000  2.41218996 12.71240997
   1.22459996  0.00463000 12.71730995
   0.10520000  2.72604990  3.43945003
   1.38996005  0.16034000  3.41435003
   3.02351999  2.70258999  3.54093003
   4.27205992  0.28906000  3.31439996
   1.52474999  3.34930992  1.54907000
   2.70075011  0.87145001  1.48026001
  -1.46025002  3.50709009  1.53911996
   0.04384000  0.92609000  1.48640001
   2.81050992  2.29939008  8.97933960
   4.25356007 -0.27816999  8.92801952
   0.04204000  2.34976006  9.01329994
   1.47894001 -0.20469999  8.95345020
   1.49480999  3.02810001  6.82374001
   2.92448997  0.70734000  6.85050011
  -1.39356005  3.06616998  6.84932995
  -0.02893000  0.71322000  6.91338015
   1.38233995  3.21550989 13.52610970
   2.62118006  0.81849003 13.56130981
  -1.56946003  3.23607993 13.63430977
  -0.16892999  0.88237000 13.58691025
   1.19598997  1.57737005 11.58551025
  -0.18875000  4.03025007 11.68731022
  -1.50188994  1.57265997 11.42140961
  -0.12390000 -0.71489000 11.69851017
 


--------------------------------------------------------------------------------------------------------


 k-point  1 :   0.0833 0.0833 0.2500  plane waves:   14296
 k-point  2 :   0.2500 0.0833 0.2500  plane waves:   14240
 k-point  3 :   0.4167 0.0833 0.2500  plane waves:   14250
 k-point  4 :  -0.4167 0.0833 0.2500  plane waves:   14235
 k-point  5 :  -0.2500 0.0833 0.2500  plane waves:   14283
 k-point  6 :  -0.0833 0.0833 0.2500  plane waves:   14294
 k-point  7 :   0.0833 0.2500 0.2500  plane waves:   14243
 k-point  8 :   0.2500 0.2500 0.2500  plane waves:   14236
 k-point  9 :   0.4167 0.2500 0.2500  plane waves:   14234
 k-point 10 :  -0.4167 0.2500 0.2500  plane waves:   14231
 k-point 11 :  -0.2500 0.2500 0.2500  plane waves:   14252
 k-point 12 :  -0.0833 0.2500 0.2500  plane waves:   14252
 k-point 13 :   0.0833 0.4167 0.2500  plane waves:   14248
 k-point 14 :   0.2500 0.4167 0.2500  plane waves:   14257
 k-point 15 :   0.4167 0.4167 0.2500  plane waves:   14262
 k-point 16 :  -0.4167 0.4167 0.2500  plane waves:   14259
 k-point 17 :  -0.2500 0.4167 0.2500  plane waves:   14236
 k-point 18 :  -0.0833 0.4167 0.2500  plane waves:   14240
 k-point 19 :   0.0833-0.4167 0.2500  plane waves:   14251
 k-point 20 :   0.2500-0.4167 0.2500  plane waves:   14258
 k-point 21 :   0.4167-0.4167 0.2500  plane waves:   14254
 k-point 22 :  -0.4167-0.4167 0.2500  plane waves:   14259
 k-point 23 :  -0.2500-0.4167 0.2500  plane waves:   14244
 k-point 24 :  -0.0833-0.4167 0.2500  plane waves:   14256
 k-point 25 :   0.0833-0.2500 0.2500  plane waves:   14283
 k-point 26 :   0.2500-0.2500 0.2500  plane waves:   14265
 k-point 27 :   0.4167-0.2500 0.2500  plane waves:   14247
 k-point 28 :  -0.4167-0.2500 0.2500  plane waves:   14259
 k-point 29 :  -0.2500-0.2500 0.2500  plane waves:   14258
 k-point 30 :  -0.0833-0.2500 0.2500  plane waves:   14238
 k-point 31 :   0.0833-0.0833 0.2500  plane waves:   14293
 k-point 32 :   0.2500-0.0833 0.2500  plane waves:   14263
 k-point 33 :   0.4167-0.0833 0.2500  plane waves:   14251
 k-point 34 :  -0.4167-0.0833 0.2500  plane waves:   14248
 k-point 35 :  -0.2500-0.0833 0.2500  plane waves:   14248
 k-point 36 :  -0.0833-0.0833 0.2500  plane waves:   14279

 maximum and minimum number of plane-waves per node :      3592     3532

 maximum number of plane-waves:     14296
 maximum index in each direction: 
   IXMAX=   11   IYMAX=   11   IZMAX=   30
   IXMIN=  -11   IYMIN=  -11   IZMIN=  -31


 real space projection operators:
  total allocation   :       7398.07 KBytes
  max/ min on nodes  :       1852.98       1846.79


 parallel 3D FFT for wavefunctions:
    minimum data exchange during FFTs selected (reduces bandwidth)
 parallel 3D FFT for charge:
    minimum data exchange during FFTs selected (reduces bandwidth)


 total amount of memory used by VASP MPI-rank0   169059. kBytes
=======================================================================

   base      :      30000. kBytes
   nonlr-proj:       4234. kBytes
   fftplans  :       1800. kBytes
   grid      :       4952. kBytes
   one-center:        342. kBytes
   wavefun   :     127731. kBytes
 
     INWAV:  cpu time    0.0000: real time    0.0002
 Broyden mixing: mesh for mixing (old mesh)
   NGX = 23   NGY = 23   NGZ = 61
  (NGX  = 72   NGY  = 72   NGZ  =192)
  gives a total of  32269 points

 initial charge density was supplied:
 charge density of overlapping atoms calculated
 number of electron     258.0000000 magnetization       6.0000000
 keeping initial charge density in first step


--------------------------------------------------------------------------------------------------------


 Maximum index for non-local projection operator          676
 Maximum index for augmentation-charges         1015 (set IRDMAX)


--------------------------------------------------------------------------------------------------------


 First call to EWALD:  gamma=   0.235
 Maximum number of real-space cells 4x 4x 2
 Maximum number of reciprocal cells 2x 2x 5

    FEWALD:  cpu time    0.0061: real time    0.0061


--------------------------------------- Iteration      1(   1)  ---------------------------------------


    POTLOK:  cpu time    0.0757: real time    0.0794
    SETDIJ:  cpu time    0.0189: real time    0.0189
    TRIAL :  cpu time   24.8407: real time   24.9031
    CORREC:  cpu time    0.0041: real time    0.0041
    --------------------------------------------
      LOOP:  cpu time   25.1564: real time   25.2229

 eigenvalue-minimisations  : 23040
 total energy-change (2. order) : 0.3463111E+04  (-0.1391270E+05)
 number of electron     258.0000000 magnetization       6.0000000
 augmentation part      258.0000000 magnetization       6.0000000

 Free energy of the ion-electron system (eV)
  ---------------------------------------------------
  alpha Z        PSCENC =       686.31478331
  Ewald energy   TEWEN  =    -12000.06605439
  -Hartree energ DENC   =     -8723.56665676
  -exchange      EXHF   =         0.00000000
  -V(xc)+E(xc)   XCENC  =       840.32711348
  PAW double counting   =     17015.18481625   -17491.61297812
  entropy T*S    EENTRO =        -0.00704455
  eigenvalues    EBANDS =      2967.66563879
  atomic energy  EATOM  =     20168.87094289
  ---------------------------------------------------
  free energy    TOTEN  =      3463.11056090 eV

  energy without entropy =     3463.11760545  energy(sigma->0) =     3463.11408317


--------------------------------------------------------------------------------------------------------




--------------------------------------- Iteration      1(   2)  ---------------------------------------


    TRIAL :  cpu time   26.1165: real time   26.1710
    CORREC:  cpu time    0.0047: real time    0.0047
    --------------------------------------------
      LOOP:  cpu time   26.1252: real time   26.1797

 eigenvalue-minimisations  : 25104
 total energy-change (2. order) :-0.3048703E+04  (-0.2806340E+04)
 number of electron     258.0000000 magnetization       6.0000000
 augmentation part      258.0000000 magnetization       6.0000000

 Free energy of the ion-electron system (eV)
  ---------------------------------------------------
  alpha Z        PSCENC =       686.31478331
  Ewald energy   TEWEN  =    -12000.06605439
  -Hartree energ DENC   =     -8723.56665676
  -exchange      EXHF   =         0.00000000
  -V(xc)+E(xc)   XCENC  =       840.32711348
  PAW double counting   =     17015.18481625   -17491.61297812
  entropy T*S    EENTRO =        -0.02301092
  eigenvalues    EBANDS =       -81.02130983
  atomic energy  EATOM  =     20168.87094289
  ---------------------------------------------------
  free energy    TOTEN  =       414.40764591 eV

  energy without entropy =      414.43065683  energy(sigma->0) =      414.41915137


--------------------------------------------------------------------------------------------------------




--------------------------------------- Iteration      1(   3)  ---------------------------------------


    TRIAL :  cpu time   27.5428: real time   27.5804
    CORREC:  cpu time    0.0046: real time    0.0046
    --------------------------------------------
      LOOP:  cpu time   27.5526: real time   27.5902

 eigenvalue-minimisations  : 26720
 total energy-change (2. order) :-0.6347223E+03  (-0.5859429E+03)
 number of electron     258.0000000 magnetization       6.0000000
 augmentation part      258.0000000 magnetization       6.0000000

 Free energy of the ion-electron system (eV)
  ---------------------------------------------------
  alpha Z        PSCENC =       686.31478331
  Ewald energy   TEWEN  =    -12000.06605439
  -Hartree energ DENC   =     -8723.56665676
  -exchange      EXHF   =         0.00000000
  -V(xc)+E(xc)   XCENC  =       840.32711348
  PAW double counting   =     17015.18481625   -17491.61297812
  entropy T*S    EENTRO =        -0.02338671
  eigenvalues    EBANDS =      -715.74321064
  atomic energy  EATOM  =     20168.87094289
  ---------------------------------------------------
  free energy    TOTEN  =      -220.31463069 eV

  energy without entropy =     -220.29124398  energy(sigma->0) =     -220.30293734


--------------------------------------------------------------------------------------------------------




--------------------------------------- Iteration      1(   4)  ---------------------------------------


    TRIAL :  cpu time   26.3306: real time   26.3808
    CORREC:  cpu time    0.0044: real time    0.0044
    --------------------------------------------
      LOOP:  cpu time   26.3397: real time   26.3898

 eigenvalue-minimisations  : 25328
 total energy-change (2. order) :-0.5078230E+02  (-0.4961025E+02)
 number of electron     258.0000000 magnetization       6.0000000
 augmentation part      258.0000000 magnetization       6.0000000

 Free energy of the ion-electron system (eV)
  ---------------------------------------------------
  alpha Z        PSCENC =       686.31478331
  Ewald energy   TEWEN  =    -12000.06605439
  -Hartree energ DENC   =     -8723.56665676
  -exchange      EXHF   =         0.00000000
  -V(xc)+E(xc)   XCENC  =       840.32711348
  PAW double counting   =     17015.18481625   -17491.61297812
  entropy T*S    EENTRO =        -0.01695837
  eigenvalues    EBANDS =      -766.53193405
  atomic energy  EATOM  =     20168.87094289
  ---------------------------------------------------
  free energy    TOTEN  =      -271.09692576 eV

  energy without entropy =     -271.07996740  energy(sigma->0) =     -271.08844658


--------------------------------------------------------------------------------------------------------




--------------------------------------- Iteration      1(   5)  ---------------------------------------


    TRIAL :  cpu time   29.7603: real time   29.9792
    CORREC:  cpu time    0.0045: real time    0.0045
    CHARGE:  cpu time    0.5415: real time    0.5424
    --------------------------------------------
      LOOP:  cpu time   30.3114: real time   30.5312

 eigenvalue-minimisations  : 29376
 total energy-change (2. order) :-0.1856324E+01  (-0.1852503E+01)
 number of electron     257.9999969 magnetization       6.0000001
 augmentation part       67.9921168 magnetization       4.2776688

 Free energy of the ion-electron system (eV)
  ---------------------------------------------------
  alpha Z        PSCENC =       686.31478331
  Ewald energy   TEWEN  =    -12000.06605439
  -Hartree energ DENC   =     -8723.56665676
  -exchange      EXHF   =         0.00000000
  -V(xc)+E(xc)   XCENC  =       840.32711348
  PAW double counting   =     17015.18481625   -17491.61297812
  entropy T*S    EENTRO =        -0.01688036
  eigenvalues    EBANDS =      -768.38833627
  atomic energy  EATOM  =     20168.87094289
  ---------------------------------------------------
  free energy    TOTEN  =      -272.95324998 eV

  energy without entropy =     -272.93636962  energy(sigma->0) =     -272.94480980


--------------------------------------------------------------------------------------------------------




--------------------------------------- Iteration      1(   6)  ---------------------------------------


    POTLOK:  cpu time    0.0509: real time    0.0509
    SETDIJ:  cpu time    0.0132: real time    0.0132
    TRIAL :  cpu time   14.1949: real time   14.2224
    CORREC:  cpu time    4.8503: real time    4.8562
    CHARGE:  cpu time    0.5747: real time    0.5770
    --------------------------------------------
      LOOP:  cpu time   19.6887: real time   19.7245

 eigenvalue-minimisations  :     0
 total energy-change (2. order) : 0.4207252E+03  (-0.6036874E+02)
 number of electron     257.9999975 magnetization       5.9999995
 augmentation part       68.9664577 magnetization       4.3648258

 Free energy of the ion-electron system (eV)
  ---------------------------------------------------
  alpha Z        PSCENC =       686.31478331
  Ewald energy   TEWEN  =    -12000.06605439
  -Hartree energ DENC   =     -8645.38595134
  -exchange      EXHF   =         0.00000000
  -V(xc)+E(xc)   XCENC  =       876.27964631
  PAW double counting   =     23378.54878157   -23585.90516526
  entropy T*S    EENTRO =        -0.04773640
  eigenvalues    EBANDS =      -730.86818152
  atomic energy  EATOM  =     20168.87094289
  ---------------------------------------------------
  free energy    TOTEN  =       147.77192121 eV

  energy without entropy =      147.81965761  energy(sigma->0) =      147.79578941


--------------------------------------------------------------------------------------------------------




--------------------------------------- Iteration      1(   7)  ---------------------------------------


    POTLOK:  cpu time    0.0507: real time    0.0508
    SETDIJ:  cpu time    0.0132: real time    0.0132
    TRIAL :  cpu time   14.1678: real time   14.1979
    CORREC:  cpu time    4.9315: real time    4.9438
    CHARGE:  cpu time    0.5323: real time    0.5325
    --------------------------------------------
      LOOP:  cpu time   19.7002: real time   19.7428

 eigenvalue-minimisations  :     0
 total energy-change (2. order) :-0.5916700E+02  (-0.3920696E+02)
 number of electron     257.9999971 magnetization       6.0000000
 augmentation part       69.4704778 magnetization       4.2369884

 Free energy of the ion-electron system (eV)
  ---------------------------------------------------
  alpha Z        PSCENC =       686.31478331
  Ewald energy   TEWEN  =    -12000.06605439
  -Hartree energ DENC   =     -8247.25189120
  -exchange      EXHF   =         0.00000000
  -V(xc)+E(xc)   XCENC  =       869.84321984
  PAW double counting   =     23250.99862924   -23498.63821275
  entropy T*S    EENTRO =        -0.05543863
  eigenvalues    EBANDS =     -1141.41875727
  atomic energy  EATOM  =     20168.87094289
  ---------------------------------------------------
  free energy    TOTEN  =        88.60492326 eV

  energy without entropy =       88.66036189  energy(sigma->0) =       88.63264258


--------------------------------------------------------------------------------------------------------




--------------------------------------- Iteration      1(   8)  ---------------------------------------


    POTLOK:  cpu time    0.0502: real time    0.0502
    SETDIJ:  cpu time    0.0129: real time    0.0130
    TRIAL :  cpu time   13.9966: real time   14.0189
    CORREC:  cpu time    4.8481: real time    4.8553
    CHARGE:  cpu time    0.5381: real time    0.5386
    --------------------------------------------
      LOOP:  cpu time   19.4501: real time   19.4802

 eigenvalue-minimisations  :     0
 total energy-change (2. order) :-0.1147209E+03  (-0.1382293E+03)
 number of electron     257.9999977 magnetization       5.9999993
 augmentation part       72.5938806 magnetization       4.4512105

 Free energy of the ion-electron system (eV)
  ---------------------------------------------------
  alpha Z        PSCENC =       686.31478331
  Ewald energy   TEWEN  =    -12000.06605439
  -Hartree energ DENC   =     -8396.14882664
  -exchange      EXHF   =         0.00000000
  -V(xc)+E(xc)   XCENC  =       866.39621020
  PAW double counting   =     23128.36184495   -23390.12595523
  entropy T*S    EENTRO =        -0.03403114
  eigenvalues    EBANDS =     -1089.66345297
  atomic energy  EATOM  =     20168.87094289
  ---------------------------------------------------
  free energy    TOTEN  =       -26.11594650 eV

  energy without entropy =      -26.08191536  energy(sigma->0) =      -26.09893093


--------------------------------------------------------------------------------------------------------




--------------------------------------- Iteration      1(   9)  ---------------------------------------


    POTLOK:  cpu time    0.0497: real time    0.0498
    SETDIJ:  cpu time    0.0131: real time    0.0131
    TRIAL :  cpu time   13.8713: real time   13.8977
    CORREC:  cpu time    4.6735: real time    4.6826
    CHARGE:  cpu time    0.5475: real time    0.5482
    --------------------------------------------
      LOOP:  cpu time   19.1592: real time   19.1960

 eigenvalue-minimisations  :     0
 total energy-change (2. order) : 0.1658438E+02  (-0.5559885E+03)
 number of electron     257.9999968 magnetization       6.0000002
 augmentation part       73.7313635 magnetization       4.3838771

 Free energy of the ion-electron system (eV)
  ---------------------------------------------------
  alpha Z        PSCENC =       686.31478331
  Ewald energy   TEWEN  =    -12000.06605439
  -Hartree energ DENC   =     -8430.44389858
  -exchange      EXHF   =         0.00000000
  -V(xc)+E(xc)   XCENC  =       859.17649437
  PAW double counting   =     23520.88889481   -23914.91499366
  entropy T*S    EENTRO =        -0.06982879
  eigenvalues    EBANDS =      -899.32370019
  atomic energy  EATOM  =     20168.87094289
  ---------------------------------------------------
  free energy    TOTEN  =        -9.53156258 eV

  energy without entropy =       -9.46173378  energy(sigma->0) =       -9.49664818


--------------------------------------------------------------------------------------------------------




--------------------------------------- Iteration      1(  10)  ---------------------------------------


    POTLOK:  cpu time    0.0506: real time    0.0506
    SETDIJ:  cpu time    0.0137: real time    0.0137
    TRIAL :  cpu time   13.1056: real time   13.2893
    CORREC:  cpu time    4.6101: real time    4.6180
    CHARGE:  cpu time    0.4992: real time    0.4993
    --------------------------------------------
      LOOP:  cpu time   18.2836: real time   18.4754

 eigenvalue-minimisations  :     0
 total energy-change (2. order) : 0.6461351E+03  (-0.1145189E+05)
 number of electron     257.9999995 magnetization       5.9999997
 augmentation part       73.6402108 magnetization       4.2722724

 Free energy of the ion-electron system (eV)
  ---------------------------------------------------
  alpha Z        PSCENC =       686.31478331
  Ewald energy   TEWEN  =    -12000.06605439
  -Hartree energ DENC   =     -9728.73213306
  -exchange      EXHF   =         0.00000000
  -V(xc)+E(xc)   XCENC  =       860.81271717
  PAW double counting   =     24190.42652527   -24670.19591628
  entropy T*S    EENTRO =        -0.03204517
  eigenvalues    EBANDS =      1129.24254957
  atomic energy  EATOM  =     20168.87094289
  ---------------------------------------------------
  free energy    TOTEN  =       636.60358568 eV

  energy without entropy =      636.63563085  energy(sigma->0) =      636.61960826


--------------------------------------------------------------------------------------------------------




--------------------------------------- Iteration      1(  11)  ---------------------------------------


    POTLOK:  cpu time    0.0505: real time    0.0505
    SETDIJ:  cpu time    0.0138: real time    0.0138
    TRIAL :  cpu time   13.3646: real time   13.3934
    CORREC:  cpu time    4.9502: real time    4.9896
    CHARGE:  cpu time    0.5204: real time    0.5206
    --------------------------------------------
      LOOP:  cpu time   18.9041: real time   18.9732

 eigenvalue-minimisations  :     0
 total energy-change (2. order) : 0.4438076E+04  (-0.3079742E+04)
 number of electron     257.9999968 magnetization       6.0000001
 augmentation part       75.5581797 magnetization       4.5011581

 Free energy of the ion-electron system (eV)
  ---------------------------------------------------
  alpha Z        PSCENC =       686.31478331
  Ewald energy   TEWEN  =    -12000.06605439
  -Hartree energ DENC   =    -12401.24182708
  -exchange      EXHF   =         0.00000000
  -V(xc)+E(xc)   XCENC  =       900.22818856
  PAW double counting   =     29099.20856884   -29824.77233361
  entropy T*S    EENTRO =        -0.03109549
  eigenvalues    EBANDS =      8446.16907605
  atomic energy  EATOM  =     20168.87094289
  ---------------------------------------------------
  free energy    TOTEN  =      5074.67929939 eV

  energy without entropy =     5074.71039488  energy(sigma->0) =     5074.69484714


--------------------------------------------------------------------------------------------------------




--------------------------------------- Iteration      1(  12)  ---------------------------------------


    POTLOK:  cpu time    0.0504: real time    0.0504
    SETDIJ:  cpu time    0.0140: real time    0.0140
    TRIAL :  cpu time   13.5106: real time   13.5370
    CORREC:  cpu time    4.6405: real time    4.6555
    CHARGE:  cpu time    0.5279: real time    0.5290
    --------------------------------------------
      LOOP:  cpu time   18.7475: real time   18.7901

 eigenvalue-minimisations  :     0
 total energy-change (2. order) :-0.1699073E+04  (-0.3107382E+03)
 number of electron     257.9999969 magnetization       5.9999998
 augmentation part       76.2864305 magnetization       4.3101482

 Free energy of the ion-electron system (eV)
  ---------------------------------------------------
  alpha Z        PSCENC =       686.31478331
  Ewald energy   TEWEN  =    -12000.06605439
  -Hartree energ DENC   =    -12801.37905502
  -exchange      EXHF   =         0.00000000
  -V(xc)+E(xc)   XCENC  =       877.06887478
  PAW double counting   =     27378.02073804   -28069.68050183
  entropy T*S    EENTRO =        -0.04100812
  eigenvalues    EBANDS =      7136.48773983
  atomic energy  EATOM  =     20168.87094289
  ---------------------------------------------------
  free energy    TOTEN  =      3375.60637210 eV

  energy without entropy =     3375.64738022  energy(sigma->0) =     3375.62687616


--------------------------------------------------------------------------------------------------------




--------------------------------------- Iteration      1(  13)  ---------------------------------------


    POTLOK:  cpu time    0.0502: real time    0.0502
    SETDIJ:  cpu time    0.0138: real time    0.0138
    TRIAL :  cpu time   13.1017: real time   13.1310
    CORREC:  cpu time    4.7123: real time    4.7226
    CHARGE:  cpu time    0.5270: real time    0.5279
    --------------------------------------------
      LOOP:  cpu time   18.4092: real time   18.4503

 eigenvalue-minimisations  :     0
 total energy-change (2. order) :-0.1435975E+03  (-0.7514644E+04)
 number of electron     257.9999991 magnetization       5.9999999
 augmentation part       77.3890937 magnetization       2.8073458

 Free energy of the ion-electron system (eV)
  ---------------------------------------------------
  alpha Z        PSCENC =       686.31478331
  Ewald energy   TEWEN  =    -12000.06605439
  -Hartree energ DENC   =    -11404.88637741
  -exchange      EXHF   =         0.00000000
  -V(xc)+E(xc)   XCENC  =       874.68873104
  PAW double counting   =     27260.96160473   -27973.60961454
  entropy T*S    EENTRO =        -0.02821622
  eigenvalues    EBANDS =      5619.77591317
  atomic energy  EATOM  =     20168.87094289
  ---------------------------------------------------
  free energy    TOTEN  =      3232.00892069 eV

  energy without entropy =     3232.03713691  energy(sigma->0) =     3232.02302880


--------------------------------------------------------------------------------------------------------




--------------------------------------- Iteration      1(  14)  ---------------------------------------


    POTLOK:  cpu time    0.0512: real time    0.0513
    SETDIJ:  cpu time    0.0139: real time    0.0139
    TRIAL :  cpu time   13.3358: real time   13.3627
    CORREC:  cpu time    4.7481: real time    4.7591
    CHARGE:  cpu time    0.5175: real time    0.5182
    --------------------------------------------
      LOOP:  cpu time   18.6708: real time   18.7101

 eigenvalue-minimisations  :     0
 total energy-change (2. order) : 0.2788402E+04  (-0.1770155E+05)
 number of electron     257.9999965 magnetization       6.0000001
 augmentation part       74.1490867 magnetization       4.1541544

 Free energy of the ion-electron system (eV)
  ---------------------------------------------------
  alpha Z        PSCENC =       686.31478331
  Ewald energy   TEWEN  =    -12000.06605439
  -Hartree energ DENC   =    -14526.46810960
  -exchange      EXHF   =         0.00000000
  -V(xc)+E(xc)   XCENC  =       895.15777397
  PAW double counting   =     30353.28978783   -31219.38704544
  entropy T*S    EENTRO =        -0.03065053
  eigenvalues    EBANDS =     11662.72701173
  atomic energy  EATOM  =     20168.87094289
  ---------------------------------------------------
  free energy    TOTEN  =      6020.41087408 eV

  energy without entropy =     6020.44152461  energy(sigma->0) =     6020.42619935


--------------------------------------------------------------------------------------------------------




--------------------------------------- Iteration      1(  15)  ---------------------------------------


    POTLOK:  cpu time    0.0502: real time    0.0502
    SETDIJ:  cpu time    0.0138: real time    0.0138
    TRIAL :  cpu time   13.1087: real time   13.3061
    CORREC:  cpu time    4.8095: real time    4.8130
    CHARGE:  cpu time    0.5316: real time    0.5319
    --------------------------------------------
      LOOP:  cpu time   18.5189: real time   18.7200

 eigenvalue-minimisations  :     0
 total energy-change (2. order) :-0.1668079E+04  (-0.2996023E+04)
 number of electron     257.9999967 magnetization       5.9999999
 augmentation part       80.6312370 magnetization       1.9791347

 Free energy of the ion-electron system (eV)
  ---------------------------------------------------
  alpha Z        PSCENC =       686.31478331
  Ewald energy   TEWEN  =    -12000.06605439
  -Hartree energ DENC   =    -13240.12312968
  -exchange      EXHF   =         0.00000000
  -V(xc)+E(xc)   XCENC  =       872.00815262
  PAW double counting   =     29514.16527822   -30256.99711900
  entropy T*S    EENTRO =        -0.02337587
  eigenvalues    EBANDS =      8608.18920623
  atomic energy  EATOM  =     20168.87094289
  ---------------------------------------------------
  free energy    TOTEN  =      4352.33140966 eV

  energy without entropy =     4352.35478553  energy(sigma->0) =     4352.34309759


--------------------------------------------------------------------------------------------------------




--------------------------------------- Iteration      1(  16)  ---------------------------------------


    POTLOK:  cpu time    0.0503: real time    0.0503
    SETDIJ:  cpu time    0.0138: real time    0.0138
    TRIAL :  cpu time   13.5100: real time   13.5205
    CORREC:  cpu time    4.6275: real time    4.6308
    CHARGE:  cpu time    0.5255: real time    0.5259
    --------------------------------------------
      LOOP:  cpu time   18.7314: real time   18.7456

 eigenvalue-minimisations  :     0
 total energy-change (2. order) : 0.4260360E+04  (-0.2469999E+05)
 number of electron     257.9999965 magnetization       5.9999998
 augmentation part       74.9905203 magnetization       3.2364239

 Free energy of the ion-electron system (eV)
  ---------------------------------------------------
  alpha Z        PSCENC =       686.31478331
  Ewald energy   TEWEN  =    -12000.06605439
  -Hartree energ DENC   =    -15067.49015356
  -exchange      EXHF   =         0.00000000
  -V(xc)+E(xc)   XCENC  =       904.47652120
  PAW double counting   =     32709.09639461   -33727.78271816
  entropy T*S    EENTRO =        -0.02358535
  eigenvalues    EBANDS =     14939.29459106
  atomic energy  EATOM  =     20168.87094289
  ---------------------------------------------------
  free energy    TOTEN  =      8612.69093109 eV

  energy without entropy =     8612.71451644  energy(sigma->0) =     8612.70272376


--------------------------------------------------------------------------------------------------------




--------------------------------------- Iteration      1(  17)  ---------------------------------------


    POTLOK:  cpu time    0.0516: real time    0.0516
    SETDIJ:  cpu time    0.0139: real time    0.0139
    TRIAL :  cpu time   13.2976: real time   13.3261
    CORREC:  cpu time    4.7303: real time    4.7336
    CHARGE:  cpu time    0.5235: real time    0.5238
    --------------------------------------------
      LOOP:  cpu time   18.6210: real time   18.6531

 eigenvalue-minimisations  :     0
 total energy-change (2. order) :-0.3704507E+04  (-0.4406937E+04)
 number of electron     257.9999994 magnetization       5.9999999
 augmentation part       78.4021059 magnetization       2.6706299

 Free energy of the ion-electron system (eV)
  ---------------------------------------------------
  alpha Z        PSCENC =       686.31478331
  Ewald energy   TEWEN  =    -12000.06605439
  -Hartree energ DENC   =    -14054.03152331
  -exchange      EXHF   =         0.00000000
  -V(xc)+E(xc)   XCENC  =       861.84924489
  PAW double counting   =     29794.43003128   -30567.00591930
  entropy T*S    EENTRO =        -0.02245336
  eigenvalues    EBANDS =     10017.84565634
  atomic energy  EATOM  =     20168.87094289
  ---------------------------------------------------
  free energy    TOTEN  =      4908.18357636 eV

  energy without entropy =     4908.20602972  energy(sigma->0) =     4908.19480304


--------------------------------------------------------------------------------------------------------




--------------------------------------- Iteration      1(  18)  ---------------------------------------


    POTLOK:  cpu time    0.0507: real time    0.0507
    SETDIJ:  cpu time    0.0135: real time    0.0136
    TRIAL :  cpu time   13.3576: real time   13.3671
    CORREC:  cpu time    4.6918: real time    4.6955
    CHARGE:  cpu time    0.4990: real time    0.4993
    --------------------------------------------
      LOOP:  cpu time   18.6168: real time   18.6303

 eigenvalue-minimisations  :     0
 total energy-change (2. order) : 0.2178585E+04  (-0.2012121E+05)
 number of electron     257.9999970 magnetization       5.9999999
 augmentation part       76.8912510 magnetization       2.6123098

 Free energy of the ion-electron system (eV)
  ---------------------------------------------------
  alpha Z        PSCENC =       686.31478331
  Ewald energy   TEWEN  =    -12000.06605439
  -Hartree energ DENC   =    -14547.65264702
  -exchange      EXHF   =         0.00000000
  -V(xc)+E(xc)   XCENC  =       889.46085459
  PAW double counting   =     31444.08280729   -32358.20666159
  entropy T*S    EENTRO =        -0.01787493
  eigenvalues    EBANDS =     12803.98743881
  atomic energy  EATOM  =     20168.87094289
  ---------------------------------------------------
  free energy    TOTEN  =      7086.76901052 eV

  energy without entropy =     7086.78688545  energy(sigma->0) =     7086.77794799


--------------------------------------------------------------------------------------------------------




--------------------------------------- Iteration      1(  19)  ---------------------------------------


    POTLOK:  cpu time    0.0494: real time    0.0494
    SETDIJ:  cpu time    0.0134: real time    0.0135
    TRIAL :  cpu time   13.3172: real time   13.3265
    CORREC:  cpu time    4.8195: real time    4.8229
    CHARGE:  cpu time    0.5272: real time    0.5275
    --------------------------------------------
      LOOP:  cpu time   18.7308: real time   18.7438

 eigenvalue-minimisations  :     0
 total energy-change (2. order) :-0.1230892E+04  (-0.8790906E+04)
 number of electron     257.9999970 magnetization       5.9999999
 augmentation part       76.7123398 magnetization       1.8637895

 Free energy of the ion-electron system (eV)
  ---------------------------------------------------
  alpha Z        PSCENC =       686.31478331
  Ewald energy   TEWEN  =    -12000.06605439
  -Hartree energ DENC   =    -14089.13576756
  -exchange      EXHF   =         0.00000000
  -V(xc)+E(xc)   XCENC  =       851.58310528
  PAW double counting   =     29694.29637637   -30549.48272487
  entropy T*S    EENTRO =        -0.01908772
  eigenvalues    EBANDS =     11093.51425594
  atomic energy  EATOM  =     20168.87094289
  ---------------------------------------------------
  free energy    TOTEN  =      5855.87704204 eV

  energy without entropy =     5855.89612976  energy(sigma->0) =     5855.88658590


--------------------------------------------------------------------------------------------------------




--------------------------------------- Iteration      1(  20)  ---------------------------------------


    POTLOK:  cpu time    0.0506: real time    0.0511
    SETDIJ:  cpu time    0.0138: real time    0.0138
    TRIAL :  cpu time   13.3118: real time   13.3229
    CORREC:  cpu time    4.6896: real time    4.6930
    CHARGE:  cpu time    0.5214: real time    0.5217
    --------------------------------------------
      LOOP:  cpu time   18.5915: real time   18.6067

 eigenvalue-minimisations  :     0
 total energy-change (2. order) : 0.5921170E+04  (-0.2573848E+05)
 number of electron     257.9999967 magnetization       6.0000001
 augmentation part       72.6517149 magnetization       1.7175892

 Free energy of the ion-electron system (eV)
  ---------------------------------------------------
  alpha Z        PSCENC =       686.31478331
  Ewald energy   TEWEN  =    -12000.06605439
  -Hartree energ DENC   =    -16174.19273739
  -exchange      EXHF   =         0.00000000
  -V(xc)+E(xc)   XCENC  =       879.46582775
  PAW double counting   =     32003.26898974   -32935.30223327
  entropy T*S    EENTRO =        -0.01136751
  eigenvalues    EBANDS =     19148.70703517
  atomic energy  EATOM  =     20168.87094289
  ---------------------------------------------------
  free energy    TOTEN  =     11777.04746609 eV

  energy without entropy =    11777.05883360  energy(sigma->0) =    11777.05314984


--------------------------------------------------------------------------------------------------------




--------------------------------------- Iteration      1(  21)  ---------------------------------------


    POTLOK:  cpu time    0.0527: real time    0.0527
    SETDIJ:  cpu time    0.0138: real time    0.0138
    TRIAL :  cpu time   13.4004: real time   13.4387
    CORREC:  cpu time    4.6618: real time    4.6730
    CHARGE:  cpu time    0.5231: real time    0.5235
    --------------------------------------------
      LOOP:  cpu time   18.6558: real time   18.7058

 eigenvalue-minimisations  :     0
 total energy-change (2. order) :-0.5251459E+04  (-0.1452696E+04)
 number of electron     257.9999971 magnetization       6.0000000
 augmentation part       75.0909942 magnetization       2.5915806

 Free energy of the ion-electron system (eV)
  ---------------------------------------------------
  alpha Z        PSCENC =       686.31478331
  Ewald energy   TEWEN  =    -12000.06605439
  -Hartree energ DENC   =    -13352.85525235
  -exchange      EXHF   =         0.00000000
  -V(xc)+E(xc)   XCENC  =       824.90056728
  PAW double counting   =     29079.99302700   -29875.56928597
  entropy T*S    EENTRO =        -0.01335716
  eigenvalues    EBANDS =     10994.01140229
  atomic energy  EATOM  =     20168.87094289
  ---------------------------------------------------
  free energy    TOTEN  =      6525.58876256 eV

  energy without entropy =     6525.60211971  energy(sigma->0) =     6525.59544113


--------------------------------------------------------------------------------------------------------




--------------------------------------- Iteration      1(  22)  ---------------------------------------


    POTLOK:  cpu time    0.0506: real time    0.0506
    SETDIJ:  cpu time    0.0141: real time    0.0141
    TRIAL :  cpu time   13.2235: real time   13.4021
    CORREC:  cpu time    4.6269: real time    4.6353
    CHARGE:  cpu time    0.5223: real time    0.5232
    --------------------------------------------
      LOOP:  cpu time   18.4418: real time   18.6297

 eigenvalue-minimisations  :     0
 total energy-change (2. order) :-0.3167619E+04  (-0.1474245E+04)
 number of electron     257.9999985 magnetization       5.9999998
 augmentation part       77.0426659 magnetization       3.3506316

 Free energy of the ion-electron system (eV)
  ---------------------------------------------------
  alpha Z        PSCENC =       686.31478331
  Ewald energy   TEWEN  =    -12000.06605439
  -Hartree energ DENC   =     -9974.93595092
  -exchange      EXHF   =         0.00000000
  -V(xc)+E(xc)   XCENC  =       808.51251761
  PAW double counting   =     27234.49754126   -27972.23155505
  entropy T*S    EENTRO =        -0.02396978
  eigenvalues    EBANDS =      4407.02045451
  atomic energy  EATOM  =     20168.87094289
  ---------------------------------------------------
  free energy    TOTEN  =      3357.96932205 eV

  energy without entropy =     3357.99329183  energy(sigma->0) =     3357.98130694


--------------------------------------------------------------------------------------------------------




--------------------------------------- Iteration      1(  23)  ---------------------------------------


    POTLOK:  cpu time    0.0497: real time    0.0497
    SETDIJ:  cpu time    0.0137: real time    0.0137
    TRIAL :  cpu time   13.4084: real time   13.4328
    CORREC:  cpu time    4.8735: real time    4.8871
    CHARGE:  cpu time    0.5250: real time    0.5257
    --------------------------------------------
      LOOP:  cpu time   18.8743: real time   18.9132

 eigenvalue-minimisations  :     0
 total energy-change (2. order) :-0.1332881E+04  (-0.3435777E+04)
 number of electron     257.9999974 magnetization       6.0000001
 augmentation part       78.0584399 magnetization       3.9871736

 Free energy of the ion-electron system (eV)
  ---------------------------------------------------
  alpha Z        PSCENC =       686.31478331
  Ewald energy   TEWEN  =    -12000.06605439
  -Hartree energ DENC   =     -7818.40535051
  -exchange      EXHF   =         0.00000000
  -V(xc)+E(xc)   XCENC  =       794.90327066
  PAW double counting   =     25432.42587008   -26113.90582892
  entropy T*S    EENTRO =        -0.01805756
  eigenvalues    EBANDS =       874.97464774
  atomic energy  EATOM  =     20168.87094289
  ---------------------------------------------------
  free energy    TOTEN  =      2025.08831107 eV

  energy without entropy =     2025.10636863  energy(sigma->0) =     2025.09733985


--------------------------------------------------------------------------------------------------------




--------------------------------------- Iteration      1(  24)  ---------------------------------------


    POTLOK:  cpu time    0.0513: real time    0.0514
    SETDIJ:  cpu time    0.0137: real time    0.0137
    TRIAL :  cpu time   13.1173: real time   13.3115
    CORREC:  cpu time    4.6864: real time    4.7000
    CHARGE:  cpu time    0.5166: real time    0.5168
    --------------------------------------------
      LOOP:  cpu time   18.3899: real time   18.5979

 eigenvalue-minimisations  :     0
 total energy-change (2. order) : 0.3223269E+03  (-0.1032318E+04)
 number of electron     257.9999978 magnetization       6.0000000
 augmentation part       77.8156720 magnetization       3.4756168

 Free energy of the ion-electron system (eV)
  ---------------------------------------------------
  alpha Z        PSCENC =       686.31478331
  Ewald energy   TEWEN  =    -12000.06605439
  -Hartree energ DENC   =     -9274.78074840
  -exchange      EXHF   =         0.00000000
  -V(xc)+E(xc)   XCENC  =       809.44293235
  PAW double counting   =     26447.43596082   -27173.31794786
  entropy T*S    EENTRO =        -0.02827419
  eigenvalues    EBANDS =      2683.53343986
  atomic energy  EATOM  =     20168.87094289
  ---------------------------------------------------
  free energy    TOTEN  =      2347.41525101 eV

  energy without entropy =     2347.44352520  energy(sigma->0) =     2347.42938810


--------------------------------------------------------------------------------------------------------




--------------------------------------- Iteration      1(  25)  ---------------------------------------


    POTLOK:  cpu time    0.0501: real time    0.0502
    SETDIJ:  cpu time    0.0138: real time    0.0138
    TRIAL :  cpu time   13.5764: real time   13.5864
    CORREC:  cpu time    4.6579: real time    4.6593
    CHARGE:  cpu time    0.5227: real time    0.5228
    --------------------------------------------
      LOOP:  cpu time   18.8252: real time   18.8373

 eigenvalue-minimisations  :     0
 total energy-change (2. order) :-0.6887780E+03  (-0.7059767E+03)
 number of electron     257.9999979 magnetization       5.9999998
 augmentation part       77.6659354 magnetization       3.5280383

[...]
   20        1.582   3.360   0.000   4.942
   21        1.572   3.387   0.000   4.959
   22        1.580   3.421   0.000   5.001
   23        1.581   3.372   0.000   4.953
   24        1.575   3.411   0.000   4.986
   25        1.578   3.376   0.000   4.954
   26        1.575   3.358   0.000   4.933
   27        1.558   3.438   0.000   4.996
   28        1.557   3.435   0.000   4.992
   29        1.551   3.469   0.000   5.020
   30        1.558   3.422   0.000   4.980
   31        1.568   3.417   0.000   4.985
   32        1.566   3.404   0.000   4.970
   33        1.573   3.367   0.000   4.940
   34        1.580   3.345   0.000   4.925
   35        1.575   3.394   0.000   4.968
   36        1.580   3.391   0.000   4.971
   37        1.569   3.424   0.000   4.993
   38        1.574   3.405   0.000   4.979
   39        1.563   3.444   0.000   5.007
   40        1.558   3.474   0.000   5.032
   41        1.557   3.468   0.000   5.025
   42        1.566   3.451   0.000   5.017
--------------------------------------------------
tot         43.508  91.113  87.299 221.920
 


 magnetization (x)
 
# of ion       s       p       d       tot
------------------------------------------
    1        0.001  -0.001   0.000   0.000
    2        0.000  -0.000   0.000  -0.000
    3        0.000  -0.001   0.000  -0.001
    4       -0.000  -0.002   0.000  -0.003
    5        0.000   0.000   0.000   0.000
    6        0.001  -0.002   0.000  -0.001
    7        0.015   0.014   1.409   1.438
    8        0.005   0.009  -0.115  -0.101
    9        0.012   0.017   1.253   1.282
   10        0.018   0.013   1.487   1.518
   11        0.002   0.002  -0.062  -0.058
   12        0.002   0.002  -0.026  -0.023
   13        0.002   0.002  -0.034  -0.029
   14        0.014   0.009   1.604   1.627
   15        0.014   0.010   1.709   1.732
   16        0.004   0.006  -0.009   0.002
   17        0.002   0.004  -0.025  -0.020
   18        0.011   0.013   1.320   1.345
   19        0.001  -0.199   0.000  -0.199
   20        0.001  -0.170   0.000  -0.170
   21        0.000  -0.097   0.000  -0.096
   22        0.001  -0.122   0.000  -0.121
   23        0.001  -0.145   0.000  -0.144
   24        0.001  -0.109   0.000  -0.108
   25        0.000  -0.171   0.000  -0.171
   26       -0.000  -0.133   0.000  -0.133
   27        0.001  -0.055   0.000  -0.054
   28        0.000  -0.046   0.000  -0.046
   29       -0.001  -0.018   0.000  -0.019
   30        0.000  -0.056   0.000  -0.055
   31       -0.000  -0.120   0.000  -0.120
   32       -0.001  -0.021   0.000  -0.022
   33       -0.000  -0.114   0.000  -0.114
   34       -0.001  -0.177   0.000  -0.178
   35        0.000  -0.111   0.000  -0.110
   36        0.002  -0.105   0.000  -0.102
   37        0.002  -0.111   0.000  -0.109
   38        0.000  -0.081   0.000  -0.081
   39        0.002  -0.088   0.000  -0.086
   40        0.001  -0.037   0.000  -0.036
   41        0.000  -0.030   0.000  -0.029
   42        0.002  -0.067   0.000  -0.065
--------------------------------------------------
tot          0.116  -2.289   8.511   6.338
 
    FORLOC:  cpu time    0.0079: real time    0.0079
    FORNL :  cpu time    4.5923: real time    4.5934
    STRESS:  cpu time   14.3258: real time   14.3296
    FORCOR:  cpu time    0.0543: real time    0.0543
    OFIELD:  cpu time    0.0004: real time    0.0004

  DFT-D2 method for vdW energy calculation
  -------------------------------------------------------------------

  Parameters of vdW forcefield:
         C6(Jnm^6/mol)     R0(A)
   -----------------------------
   Li       1.610          0.825
   Co      10.800          1.562
   O        0.700          1.342

  IVDW =   1
  VDW_RADIUS =    50.000 A
  VDW_S6 =     0.750
  VDW_SR =     1.000
  VDW_D =    20.000
  LVDW_EWALD = F

  Number of pair interactions contributing to vdW energy: 1107304
  Edisp (eV):   -8.83282
    FORVDW:  cpu time    0.1696: real time    0.1712

  FORCE on cell =-STRESS in cart. coord.  units (eV):
  Direction    XX          YY          ZZ          XY          YZ          ZX
  --------------------------------------------------------------------------------------
  Alpha Z   686.31478   686.31478   686.31478
  Ewald     117.95967   310.46919-12428.56585   -51.84415   -82.56042   -52.09514
  Hartree  6175.91293  6243.25455 -3720.17278   -21.89003   -38.35218   -19.54813
  E(xc)   -1283.43187 -1283.22689 -1284.84994     0.09766     0.00076     0.04936
  Local  -11188.36827-11434.33730 11216.33995    72.91017   120.65915    67.22255
  n-local  -598.28000  -591.95494  -603.89413    -1.05402    -2.21314    -2.10484
  augment  2025.16920  2019.08295  2004.85172    -0.95711    -0.01515     1.59021
  Kinetic  4065.27520  4054.02272  4128.74009     1.63117    -2.98086     3.21113
  Fock        0.00000     0.00000     0.00000     0.00000     0.00000     0.00000
  vdW        -6.17631    -5.70248   -11.61583     0.30505    -0.24116     0.17924
  -------------------------------------------------------------------------------------
  Total      -5.62466    -2.07743   -12.85199    -0.80126    -5.70299    -1.49562
  in kB     -21.09674    -7.79194   -48.20473    -3.00533   -21.39056    -5.60970
  external pressure =      -25.70 kB  Pullay stress =        0.00 kB


 VOLUME and BASIS-vectors are now :
 -----------------------------------------------------------------------------
  energy-cutoff  :      600.00
  volume of cell :      427.16
      direct lattice vectors                 reciprocal lattice vectors
     5.667734146  0.000000000  0.000000000     0.176437351  0.101313467  0.019168203
    -2.818815947  4.908966541  0.000000000     0.000000000  0.203708865  0.014215336
    -1.052749634 -1.071368814 15.352949142     0.000000000  0.000000000  0.065134066

  length of vectors
     5.667734146  5.660713369 15.426249068     0.204357475  0.204204254  0.065134066


 FORCES acting on ions:
    Electron-Ion                     Ewald-Force                    Non-Local-Force
 -----------------------------------------------------------------------------------------------
   0.407E+01 -.135E+01 -.153E+02   -.378E+01 0.118E+01 0.158E+02   -.608E+00 0.248E+00 0.147E+00
   -.188E+01 0.192E+01 0.574E+02   0.182E+01 -.194E+01 -.567E+02   0.808E+00 -.143E+00 -.215E+01
   -.427E+01 -.559E+01 0.185E+01   0.422E+01 0.519E+01 -.289E+01   0.503E+00 0.944E+00 0.455E+00
   0.492E+00 0.962E+00 -.157E+01   -.640E+00 -.915E+00 0.979E+00   0.229E+00 -.391E-01 0.648E+00
   0.754E+01 -.637E+01 0.629E+01   -.734E+01 0.619E+01 -.675E+01   -.122E+01 0.846E+00 -.126E+00
   -.563E+01 0.692E+01 0.243E+02   0.539E+01 -.674E+01 -.240E+02   0.128E+01 -.114E+01 -.195E+01
   -.400E+02 0.421E+02 -.564E+02   0.398E+02 -.437E+02 0.571E+02   0.236E+00 -.416E+00 -.341E-01
   -.316E+01 -.215E+02 -.111E+03   0.182E+01 0.211E+02 0.111E+03   0.599E+00 -.813E-02 0.906E+00
   0.287E+02 -.295E+01 -.919E+02   -.274E+02 0.348E+01 0.915E+02   0.430E+00 0.351E+00 0.319E-01
   -.643E+01 -.118E+02 -.261E+02   0.741E+01 0.136E+02 0.252E+02   -.260E+00 0.484E-01 -.183E+01
   -.558E+01 0.299E+02 0.256E+03   0.588E+01 -.302E+02 -.257E+03   0.107E+01 0.307E+00 0.129E+01
   0.919E+01 -.135E+02 0.331E+03   -.948E+01 0.140E+02 -.332E+03   0.576E+00 -.751E-01 0.154E+01
   -.260E+02 -.527E+01 0.196E+03   0.266E+02 0.540E+01 -.198E+03   0.105E+01 0.593E+00 0.166E+01
   -.231E+02 -.262E+02 0.287E+03   0.233E+02 0.265E+02 -.287E+03   0.328E+00 -.594E-01 0.487E+00
   -.196E+02 0.181E+02 -.156E+03   0.193E+02 -.183E+02 0.156E+03   -.314E+00 -.891E-01 -.289E+01
   0.117E+02 -.157E+02 -.209E+03   -.109E+02 0.157E+02 0.210E+03   0.734E+00 0.773E+00 -.363E+00
   0.188E+02 -.323E+02 -.239E+03   -.182E+02 0.332E+02 0.240E+03   -.737E+00 0.195E+00 -.258E+01
   -.245E+02 0.165E+02 -.246E+03   0.250E+02 -.162E+02 0.245E+03   -.112E+00 -.293E-01 -.336E+00
   -.749E+01 0.344E+01 -.402E+03   0.799E+01 -.318E+01 0.426E+03   -.950E+00 -.978E+00 -.240E+02
   -.318E+01 -.108E+02 -.428E+03   0.303E+01 0.102E+02 0.452E+03   0.387E+00 0.985E+00 -.233E+02
   0.282E+02 0.167E+02 -.411E+03   -.300E+02 -.164E+02 0.432E+03   0.126E+00 -.133E+01 -.208E+02
   0.111E+02 0.226E+02 -.403E+03   -.126E+02 -.269E+02 0.429E+03   0.971E+00 0.234E+01 -.238E+02
   0.240E+02 -.934E+01 0.329E+03   -.262E+02 0.996E+01 -.354E+03   0.153E+01 0.634E+00 0.240E+02
   -.507E+02 -.429E+02 0.334E+03   0.554E+02 0.492E+02 -.355E+03   -.345E+01 -.462E+01 0.203E+02
   -.140E+02 0.442E+02 0.329E+03   0.140E+02 -.471E+02 -.351E+03   0.729E+00 0.211E+01 0.212E+02
   0.297E+02 -.299E+02 0.325E+03   -.315E+02 0.319E+02 -.346E+03   0.136E+01 -.127E+01 0.206E+02
   0.630E+01 -.108E+02 -.177E+03   -.738E+01 0.133E+02 0.190E+03   0.985E+00 -.270E+01 -.135E+02
   -.699E+01 -.176E+01 -.172E+03   0.694E+01 -.214E+00 0.186E+03   -.522E-01 0.271E+01 -.138E+02
   0.566E+01 0.610E+01 -.161E+03   -.509E+01 -.589E+01 0.170E+03   -.944E+00 -.103E+01 -.101E+02
   0.125E+02 0.149E+01 -.164E+03   -.140E+02 -.257E+01 0.177E+03   0.923E+00 0.115E+01 -.143E+02
   0.147E+02 -.129E+02 0.525E+03   -.195E+02 0.151E+02 -.544E+03   0.408E+01 -.154E+01 0.199E+02
   0.168E+02 0.224E+02 0.522E+03   -.167E+02 -.259E+02 -.542E+03   -.145E+01 0.285E+01 0.205E+02
   -.959E+01 -.301E+01 0.517E+03   0.123E+02 0.980E+00 -.539E+03   -.351E+01 0.202E+01 0.225E+02
   0.455E+01 0.859E+01 0.523E+03   -.742E+01 -.765E+01 -.547E+03   0.279E+01 -.184E+01 0.249E+02
   0.174E+02 -.219E+02 -.492E+03   -.202E+02 0.241E+02 0.516E+03   0.181E+01 -.153E+01 -.231E+02
   -.262E+02 0.816E+01 -.502E+03   0.288E+02 -.858E+01 0.527E+03   -.212E+01 -.351E+00 -.247E+02
   -.171E+02 0.177E+01 -.496E+03   0.204E+02 -.383E+01 0.515E+03   -.286E+01 0.301E+01 -.186E+02
   0.345E+02 0.218E+02 -.512E+03   -.393E+02 -.236E+02 0.535E+03   0.467E+01 -.457E+00 -.222E+02
   -.368E+02 -.141E+02 0.235E+03   0.389E+02 0.141E+02 -.248E+03   -.143E+01 -.292E-01 0.136E+02
   0.931E+01 -.404E+00 0.226E+03   -.113E+02 -.214E+00 -.240E+03   0.203E+01 0.845E+00 0.133E+02
   0.252E+02 -.170E+02 0.215E+03   -.268E+02 0.186E+02 -.226E+03   -.857E-01 -.932E+00 0.132E+02
   0.304E+01 0.401E+02 0.237E+03   -.272E+01 -.432E+02 -.253E+03   -.520E+00 0.164E+01 0.159E+02
 -----------------------------------------------------------------------------------------------
   -.963E+01 -.402E+01 0.769E+01   0.764E-13 0.639E-13 0.114E-12   0.962E+01 0.400E+01 -.768E+01
 
 
 POSITION                                       TOTAL-FORCE (eV/Angst)
 -----------------------------------------------------------------------------------
      0.41438     -0.79812     15.21371        -0.332069      0.065742      0.513776
      2.62195      2.19431      5.68612         0.622588     -0.107074     -0.946482
      1.36359      3.00880     10.29673         0.248095      0.420400     -0.455700
      2.71965      0.67622     10.18041         0.034425      0.007919     -0.043996
     -1.14010      3.06005     10.29168        -0.786201      0.397411     -0.538831
     -0.24894      0.83680     10.46842         0.779004     -0.683146     -1.347990
      0.01108      4.31486      2.44800        -0.147122     -1.732828      0.596043
      1.46501      1.80268      2.49455        -0.759118     -0.432271      0.587307
      2.81195      4.24146      2.51048         1.697144      0.821771     -0.423006
      4.30076      1.83903      2.54767         0.706065      1.658628     -2.340572
      1.37358      1.44957      7.85791         1.274270      0.107191      0.999224
      0.02592      3.89240      7.78107         0.246710      0.396548      0.883152
     -1.46492      1.44179      7.95373         1.353039      0.644804     -0.461040
     -2.81719      3.91070      7.80326         0.485443      0.061508      0.892153
      2.75100      2.42904     12.68861        -0.671516     -0.157348     -2.108533
      4.03240     -0.03031     12.59361         1.439658      0.674393      0.644207
     -0.12793      2.41219     12.71241        -0.029301      0.944660     -1.932910
      1.22460      0.00463     12.71731         0.206849      0.252660     -0.997457
      0.10520      2.72605      3.43945        -0.434020     -0.725434     -0.177944
      1.38996      0.16034      3.41435         0.258151      0.399789      0.359352
      3.02352      2.70259      3.54093        -1.711772     -1.015628      0.105551
      4.27206      0.28906      3.31440        -0.514851     -1.915439      1.851749
      1.52475      3.34931      1.54907        -0.704947      1.248357     -0.345466
      2.70075      0.87145      1.48026         1.285951      1.706448     -0.666184
     -1.46025      3.50709      1.53912         0.744294     -0.803797     -0.099323
      0.04384      0.92609      1.48640        -0.405907      0.739418      0.355270
      2.81051      2.29939      8.97934         0.022179     -0.138494     -0.722963
      4.25356     -0.27817      8.92802        -0.068847      0.802056     -0.409484
      0.04204      2.34976      9.01330        -0.393849     -0.822196     -1.088458
      1.47894     -0.20470      8.95345        -0.681647      0.135149     -1.211884
      1.49481      3.02810      6.82374        -0.790973      0.734294      0.812037
      2.92449      0.70734      6.85050        -1.288147     -0.743634      0.801167
     -1.39356      3.06617      6.84933        -0.752174      0.036391      0.858123
     -0.02893      0.71322      6.91338        -0.058267     -0.917731      0.665454
      1.38234      3.21551     13.52611        -0.982987      0.738024      1.234383
      2.62118      0.81849     13.56131         0.536554     -0.789180      0.358137
     -1.56946      3.23608     13.63431         0.570003      0.902558      0.731975
     -0.16893      0.88237     13.58691        -0.105495     -2.241520      1.086816
      1.19599      1.57737     11.58551         0.811389      0.038731      0.692782
     -0.18875      4.03025     11.68731         0.084201      0.209004     -0.499209
     -1.50189      1.57266     11.42141        -1.615599      0.667256      2.513363
     -0.12390     -0.71489     11.69851        -0.171202     -1.585391     -0.724593
 -----------------------------------------------------------------------------------
    total drift:                               -0.009090     -0.026885      0.015400


--------------------------------------------------------------------------------------------------------



  FREE ENERGIE OF THE ION-ELECTRON SYSTEM (eV)
  ---------------------------------------------------
  free  energy   TOTEN  =      -232.01083019 eV

  energy  without entropy=     -231.99986413  energy(sigma->0) =     -232.00534716
 


--------------------------------------------------------------------------------------------------------


    POTLOK:  cpu time    0.1809: real time    0.1809


--------------------------------------------------------------------------------------------------------


     LOOP+:  cpu time 4165.4416: real time 4179.0469
    4ORBIT:  cpu time    0.0000: real time    0.0000
 


 total charge     
 
# of ion       s       p       d       tot
------------------------------------------
    1        0.062   0.115   0.000   0.177
    2        0.091   0.190   0.000   0.281
    3        0.097   0.202   0.000   0.299
    4        0.092   0.189   0.000   0.281
    5        0.111   0.240   0.000   0.351
    6        0.121   0.266   0.000   0.388
    7        0.467   0.746   7.231   8.444
    8        0.439   0.692   7.362   8.494
    9        0.482   0.797   7.244   8.523
   10        0.453   0.687   7.202   8.341
   11        0.412   0.618   7.317   8.347
   12        0.397   0.596   7.271   8.265
   13        0.413   0.620   7.330   8.363
   14        0.421   0.623   7.142   8.186
   15        0.447   0.663   7.236   8.346
   16        0.420   0.646   7.346   8.412
   17        0.440   0.693   7.381   8.513
   18        0.467   0.753   7.237   8.457
   19        1.582   3.345   0.000   4.927
   20        1.582   3.360   0.000   4.942
   21        1.572   3.387   0.000   4.959
   22        1.580   3.421   0.000   5.001
   23        1.581   3.372   0.000   4.953
   24        1.575   3.411   0.000   4.986
   25        1.578   3.376   0.000   4.954
   26        1.575   3.358   0.000   4.933
   27        1.558   3.438   0.000   4.996
   28        1.557   3.435   0.000   4.992
   29        1.551   3.469   0.000   5.020
   30        1.558   3.422   0.000   4.980
   31        1.568   3.417   0.000   4.985
   32        1.566   3.404   0.000   4.970
   33        1.573   3.367   0.000   4.940
   34        1.580   3.345   0.000   4.925
   35        1.575   3.394   0.000   4.968
   36        1.580   3.391   0.000   4.971
   37        1.569   3.424   0.000   4.993
   38        1.574   3.405   0.000   4.979
   39        1.563   3.444   0.000   5.007
   40        1.558   3.474   0.000   5.032
   41        1.557   3.468   0.000   5.025
   42        1.566   3.451   0.000   5.017
--------------------------------------------------
tot         43.508  91.113  87.299 221.920
 


 magnetization (x)
 
# of ion       s       p       d       tot
------------------------------------------
    1        0.001  -0.001   0.000   0.000
    2        0.000  -0.000   0.000  -0.000
    3        0.000  -0.001   0.000  -0.001
    4       -0.000  -0.002   0.000  -0.003
    5        0.000   0.000   0.000   0.000
    6        0.001  -0.002   0.000  -0.001
    7        0.015   0.014   1.409   1.438
    8        0.005   0.009  -0.115  -0.101
    9        0.012   0.017   1.253   1.282
   10        0.018   0.013   1.487   1.518
   11        0.002   0.002  -0.062  -0.058
   12        0.002   0.002  -0.026  -0.023
   13        0.002   0.002  -0.034  -0.029
   14        0.014   0.009   1.604   1.627
   15        0.014   0.010   1.709   1.732
   16        0.004   0.006  -0.009   0.002
   17        0.002   0.004  -0.025  -0.020
   18        0.011   0.013   1.320   1.345
   19        0.001  -0.199   0.000  -0.199
   20        0.001  -0.170   0.000  -0.170
   21        0.000  -0.097   0.000  -0.096
   22        0.001  -0.122   0.000  -0.121
   23        0.001  -0.145   0.000  -0.144
   24        0.001  -0.109   0.000  -0.108
   25        0.000  -0.171   0.000  -0.171
   26       -0.000  -0.133   0.000  -0.133
   27        0.001  -0.055   0.000  -0.054
   28        0.000  -0.046   0.000  -0.046
   29       -0.001  -0.018   0.000  -0.019
   30        0.000  -0.056   0.000  -0.055
   31       -0.000  -0.120   0.000  -0.120
   32       -0.001  -0.021   0.000  -0.022
   33       -0.000  -0.114   0.000  -0.114
   34       -0.001  -0.177   0.000  -0.178
   35        0.000  -0.111   0.000  -0.110
   36        0.002  -0.105   0.000  -0.102
   37        0.002  -0.111   0.000  -0.109
   38        0.000  -0.081   0.000  -0.081
   39        0.002  -0.088   0.000  -0.086
   40        0.001  -0.037   0.000  -0.036
   41        0.000  -0.030   0.000  -0.029
   42        0.002  -0.067   0.000  -0.065
--------------------------------------------------
tot          0.116  -2.289   8.511   6.338
 

 total amount of memory used by VASP MPI-rank0   169059. kBytes
=======================================================================

   base      :      30000. kBytes
   nonlr-proj:       4234. kBytes
   fftplans  :       1800. kBytes
   grid      :       4952. kBytes
   one-center:        342. kBytes
   wavefun   :     127731. kBytes
 
  
  
 General timing and accounting informations for this job:
 ========================================================
  
                  Total CPU time used (sec):     4191.991
                            User time (sec):     3711.343
                          System time (sec):      480.648
                         Elapsed time (sec):     4206.067
  
                   Maximum memory used (kb):      944156.
                   Average memory used (kb):           0.
  
                          Minor page faults:       421715
                          Major page faults:           59
                 Voluntary context switches:          651
