 running on   64 total cores
 distrk:  each k-point on   64 cores,    1 groups
 distr:  one band on    4 cores,   16 groups
 using from now: INCAR     
 vasp.5.4.4.18Apr17-6-g9f103f2a35 (build Nov 22 2021 14:44:17) complex          
  
 POSCAR found type information on POSCAR  Li Co O 
 POSCAR found :  3 types and      42 ions
 scaLAPACK will be used
 LDA part: xc-table for Pade appr. of Perdew
 generate k-points for:    6    6    2
 POSCAR, INCAR and KPOINTS ok, starting setup
 FFT: planning ...
 WAVECAR not read
 entering main loop
       N       E                     dE             d eps       ncg     rms          ort
DAV:   1     0.348715707057E+04    0.34872E+04   -0.13935E+05  5760   0.218E+03
DAV:   2     0.413368888715E+03   -0.30738E+04   -0.28360E+04  5760   0.534E+02
DAV:   3    -0.218307321464E+03   -0.63168E+03   -0.57690E+03  5760   0.254E+02
DAV:   4    -0.269893581794E+03   -0.51586E+02   -0.50400E+02  5760   0.746E+01
DAV:   5    -0.271695831796E+03   -0.18023E+01   -0.17986E+01  5760   0.139E+01
 gam= 0.000 g(H,U,f)=  0.179E+04 0.122E+04 0.346E+04 ort(H,U,f) = 0.000E+00 0.000E+00 0.000E+00
SDA:   6     0.119239963862E+03    0.39094E+03   -0.17986E+01  5760   0.647E+04 0.000E+00
 gam= 0.000 trial= 0.400  step= 0.082 mean= 0.400
 gam= 0.712 g(H,U,f)=  0.899E+03 0.114E+04 0.257E+04 ort(H,U,f) = 0.864E+03 0.924E+02-0.113E+04
CGA:   7     0.145664626840E+02   -0.10467E+03   -0.26529E+03  5760   0.461E+04-0.171E+03
 gam= 0.712 trial= 0.384  step= 0.083 mean= 0.384
 gam= 0.715 g(H,U,f)=  0.294E+03 0.101E+04 0.200E+04 ort(H,U,f) = 0.352E+03 0.283E+03-0.245E+03
CGA:   8    -0.102949570304E+03   -0.11752E+03   -0.18518E+03  5760   0.329E+04 0.390E+03
 gam= 0.715 trial= 0.369  step= 0.043 mean= 0.369
 gam= 0.000 g(H,U,f)=  0.140E+03 0.193E+04 0.197E+04 ort(H,U,f) =-0.111E+03-0.166E+04-0.211E+04
CGA:   9    -0.157160929533E+03   -0.54211E+02   -0.76707E+02  5760   0.405E+04-0.389E+04
 gam= 0.000 trial= 0.353  step= 0.055 mean= 0.353
 gam= 0.171 g(H,U,f)=  0.100E+03 0.475E+03 0.117E+03 ort(H,U,f) =-0.544E+02-0.504E+03-0.147E+03
CGA:  10    -0.178249450035E+03   -0.21089E+02   -0.11054E+03  5760   0.693E+03-0.705E+03
 gam= 0.171 trial= 0.338  step= 0.037 mean= 0.338
 gam= 0.156 g(H,U,f)=  0.237E+02 0.670E+02 0.175E+02 ort(H,U,f) = 0.406E+02 0.225E+03 0.758E+02
CGA:  11    -0.203020300801E+03   -0.24771E+02   -0.10578E+02  5760   0.108E+03 0.341E+03
 gam= 0.156 trial= 0.323  step= 0.059 mean= 0.323
 gam= 0.000 g(H,U,f)=  0.252E+02 0.225E+03 0.218E+03 ort(H,U,f) = 0.118E+02-0.109E+03-0.119E+03
CGA:  12    -0.201271932259E+03    0.17484E+01   -0.47819E+01  5760   0.468E+03-0.216E+03
 gam= 0.000 trial= 0.310  step= 0.108 mean= 0.310
 gam= 1.265 g(H,U,f)=  0.726E+02 0.400E+03 0.119E+03 ort(H,U,f) =-0.118E+02-0.165E+03-0.515E+02
CGA:  13    -0.186923280419E+03    0.14349E+02   -0.25361E+02  5760   0.592E+03-0.229E+03
 gam= 1.265 trial= 0.300  step= 0.096 mean= 0.300
 gam= 0.059 g(H,U,f)=  0.808E+01 0.212E+02 0.556E+01 ort(H,U,f) = 0.204E+02 0.220E+02 0.186E+01
CGA:  14    -0.213297692371E+03   -0.26374E+02   -0.14530E+02  5760   0.348E+02 0.443E+02
 gam= 0.059 trial= 0.289  step= 0.069 mean= 0.289
 gam= 0.809 g(H,U,f)=  0.619E+01 0.149E+02 0.709E+01 ort(H,U,f) = 0.649E+01-0.583E+01-0.635E+01
CGA:  15    -0.214236444085E+03   -0.93875E+00   -0.12918E+01  5760   0.282E+02-0.569E+01
 gam= 0.809 trial= 0.278  step= 0.252 mean= 0.278
 gam= 1.887 g(H,U,f)=  0.433E+01 0.381E+02 0.108E+02 ort(H,U,f) = 0.437E+01-0.129E+01-0.129E+01
CGA:  16    -0.217158542032E+03   -0.29221E+01   -0.29780E+01  5760   0.532E+02 0.179E+01
 gam= 1.887 trial= 0.277  step= 0.100 mean= 0.277
 gam= 0.543 g(H,U,f)=  0.341E+01 0.194E+02 0.605E+01 ort(H,U,f) =-0.249E+01-0.720E+01-0.451E+01
CGA:  17    -0.218674780118E+03   -0.15162E+01   -0.28350E+01  5760   0.289E+02-0.142E+02
 gam= 0.543 trial= 0.268  step= 0.092 mean= 0.268
 gam= 0.091 g(H,U,f)=  0.173E+01 0.829E+00 0.728E-01 ort(H,U,f) =-0.166E+01-0.291E+00-0.169E+00
CGA:  18    -0.219551453973E+03   -0.87667E+00   -0.97799E+00  5760   0.263E+01-0.212E+01
 gam= 0.091 trial= 0.259  step= 0.507 mean= 0.259
 gam= 1.479 g(H,U,f)=  0.823E+00 0.245E+01 0.614E+00 ort(H,U,f) = 0.151E+00 0.108E+00-0.629E-02
CGA:  19    -0.220203191038E+03   -0.65174E+00   -0.61768E+00  5760   0.389E+01 0.253E+00
 gam= 1.479 trial= 0.272  step= 0.126 mean= 0.272
 gam= 0.557 g(H,U,f)=  0.435E+00 0.135E+01 0.378E+00 ort(H,U,f) =-0.182E+00 0.337E+00-0.321E+00
CGA:  20    -0.220455609167E+03   -0.25242E+00   -0.26770E+00  5760   0.216E+01-0.166E+00
 gam= 0.557 trial= 0.264  step= 0.192 mean= 0.264
 gam= 0.522 g(H,U,f)=  0.445E+00 0.572E+00 0.114E+00 ort(H,U,f) =-0.415E+00 0.433E+00-0.710E-02
CGA:  21    -0.220651634555E+03   -0.19603E+00   -0.19907E+00  5760   0.113E+01 0.108E-01
 gam= 0.522 trial= 0.261  step= 0.499 mean= 0.261
 gam= 1.632 g(H,U,f)=  0.463E+00 0.105E+01 0.327E+00 ort(H,U,f) =-0.165E+00 0.380E+00-0.784E-01
CGA:  22    -0.220952623576E+03   -0.30099E+00   -0.28363E+00  5760   0.185E+01 0.137E+00
 gam= 1.632 trial= 0.273  step= 0.194 mean= 0.273
 gam= 0.843 g(H,U,f)=  0.474E+00 0.805E+00 0.278E+00 ort(H,U,f) =-0.272E+00 0.428E+00-0.121E+00
CGA:  23    -0.221144337500E+03   -0.19171E+00   -0.20046E+00  5760   0.156E+01 0.354E-01
 gam= 0.843 trial= 0.269  step= 0.323 mean= 0.269
 gam= 1.152 g(H,U,f)=  0.413E+00 0.111E+01 0.274E+00 ort(H,U,f) =-0.191E+00 0.362E+00-0.798E-01
CGA:  24    -0.221404220516E+03   -0.25988E+00   -0.25614E+00  5760   0.179E+01 0.904E-01
 gam= 1.152 trial= 0.272  step= 0.103 mean= 0.272
 gam= 0.412 g(H,U,f)=  0.324E+00 0.360E+00 0.535E-01 ort(H,U,f) =-0.975E-01 0.346E+00-0.917E-01
CGA:  25    -0.221513535145E+03   -0.10931E+00   -0.98077E-01  5760   0.738E+00 0.157E+00
 gam= 0.412 trial= 0.263  step= 0.499 mean= 0.263
 gam= 1.079 g(H,U,f)=  0.287E+00 0.448E+00 0.605E-01 ort(H,U,f) =-0.674E-01 0.132E+00-0.858E-02
CGA:  26    -0.221720921834E+03   -0.20739E+00   -0.20022E+00  5760   0.796E+00 0.564E-01
 gam= 1.079 trial= 0.275  step= 0.177 mean= 0.275
 gam= 0.938 g(H,U,f)=  0.176E+00 0.458E+00 0.113E+00 ort(H,U,f) =-0.113E-01 0.496E-01-0.385E-01
CGA:  27    -0.221797069864E+03   -0.76148E-01   -0.75774E-01  5760   0.747E+00-0.293E-03
 gam= 0.938 trial= 0.270  step= 0.135 mean= 0.270
 gam= 0.512 g(H,U,f)=  0.113E+00 0.225E+00 0.445E-01 ort(H,U,f) =-0.381E-01 0.740E-01-0.470E-01
CGA:  28    -0.221846037214E+03   -0.48967E-01   -0.50257E-01  5760   0.383E+00-0.111E-01
 gam= 0.512 trial= 0.263  step= 0.262 mean= 0.263
 gam= 1.038 g(H,U,f)=  0.103E+00 0.240E+00 0.535E-01 ort(H,U,f) =-0.372E-01 0.533E-01-0.212E-01
CGA:  29    -0.221895457836E+03   -0.49421E-01   -0.49416E-01  5760   0.397E+00-0.509E-02
 gam= 1.038 trial= 0.263  step= 0.184 mean= 0.263
 gam= 1.209 g(H,U,f)=  0.107E+00 0.313E+00 0.601E-01 ort(H,U,f) =-0.292E-01 0.647E-01-0.348E-01
CGA:  30    -0.221931038476E+03   -0.35581E-01   -0.36125E-01  5760   0.480E+00 0.695E-03
 gam= 1.209 trial= 0.259  step= 0.162 mean= 0.259
 gam= 0.410 g(H,U,f)=  0.726E-01 0.102E+00 0.223E-01 ort(H,U,f) =-0.715E-01 0.834E-01-0.101E-01
CGA:  31    -0.221970679171E+03   -0.39641E-01   -0.38920E-01  5760   0.197E+00 0.170E-02
 gam= 0.410 trial= 0.254  step= 0.233 mean= 0.254
 gam= 1.848 g(H,U,f)=  0.747E-01 0.207E+00 0.824E-01 ort(H,U,f) = 0.961E-02 0.325E-01-0.386E-01
CGA:  32    -0.221993633284E+03   -0.22954E-01   -0.23041E-01  5760   0.364E+00 0.344E-02
 gam= 1.848 trial= 0.253  step= 0.178 mean= 0.253
 gam= 0.639 g(H,U,f)=  0.595E-01 0.144E+00 0.288E-01 ort(H,U,f) =-0.545E-01 0.616E-01-0.943E-02
CGA:  33    -0.222027490262E+03   -0.33857E-01   -0.32897E-01  5760   0.233E+00-0.235E-02
 gam= 0.639 trial= 0.250  step= 0.238 mean= 0.250
 gam= 1.482 g(H,U,f)=  0.710E-01 0.179E+00 0.944E-01 ort(H,U,f) =-0.232E-01 0.742E-01-0.468E-01
CGA:  34    -0.222054966003E+03   -0.27476E-01   -0.27527E-01  5760   0.345E+00 0.407E-02
 gam= 1.482 trial= 0.249  step= 0.164 mean= 0.249
 gam= 0.990 g(H,U,f)=  0.866E-01 0.178E+00 0.762E-01 ort(H,U,f) =-0.594E-01 0.853E-01-0.268E-01
CGA:  35    -0.222084616509E+03   -0.29651E-01   -0.28703E-01  5760   0.341E+00-0.838E-03
 gam= 0.990 trial= 0.245  step= 0.318 mean= 0.245
 gam= 2.168 g(H,U,f)=  0.144E+00 0.333E+00 0.263E+00 ort(H,U,f) =-0.746E-01 0.171E+00-0.119E+00
CGA:  36    -0.222137666365E+03   -0.53050E-01   -0.54147E-01  5760   0.739E+00-0.223E-01
 gam= 2.168 trial= 0.248  step= 0.088 mean= 0.248
 gam= 0.400 g(H,U,f)=  0.136E+00 0.157E+00 0.206E-02 ort(H,U,f) =-0.223E+00 0.364E+00-0.109E-02
CGA:  37    -0.222175827959E+03   -0.38162E-01   -0.30447E-01  5760   0.296E+00 0.140E+00
 gam= 0.400 trial= 0.240  step= 0.346 mean= 0.240
 gam= 6.887 g(H,U,f)=  0.205E+00 0.827E+00 0.100E+01 ort(H,U,f) =-0.651E-01-0.145E-01 0.255E-01
CGA:  38    -0.222233366452E+03   -0.57538E-01   -0.60710E-01  5760   0.204E+01-0.541E-01
 gam= 6.887 trial= 0.246  step= 0.001 mean= 0.246
 gam= 0.000 g(H,U,f)=  0.207E+00 0.825E+00 0.100E+01 ort(H,U,f) =-0.248E+00 0.703E+00 0.118E+01
CGA:  39    -0.222234453607E+03   -0.10872E-02   -0.57543E-03  5760   0.204E+01 0.164E+01
 gam= 0.000 trial= 0.233  step= 0.074 mean= 0.233
 gam= 0.461 g(H,U,f)=  0.151E+00 0.376E+00 0.412E+00 ort(H,U,f) = 0.132E-01-0.173E+00-0.609E+00
CGA:  40    -0.222271273428E+03   -0.36820E-01   -0.75568E-01  5760   0.939E+00-0.769E+00
 gam= 0.461 trial= 0.225  step= 0.203 mean= 0.225
 gam= 0.510 g(H,U,f)=  0.746E-01 0.204E+00 0.200E+00 ort(H,U,f) = 0.295E-01 0.498E-01-0.982E-01
CGA:  41    -0.222331060089E+03   -0.59787E-01   -0.59274E-01  5760   0.479E+00-0.189E-01
 gam= 0.510 trial= 0.224  step= 0.139 mean= 0.224
 gam= 1.051 g(H,U,f)=  0.711E-01 0.222E+00 0.210E+00 ort(H,U,f) = 0.436E-01 0.953E-01-0.147E+00
CGA:  42    -0.222360840328E+03   -0.29780E-01   -0.32529E-01  5760   0.503E+00-0.765E-02
 gam= 1.051 trial= 0.220  step= 0.255 mean= 0.220
 gam= 1.430 g(H,U,f)=  0.689E-01 0.257E+00 0.394E+00 ort(H,U,f) =-0.575E-01 0.110E+00-0.883E-01
CGA:  43    -0.222423113178E+03   -0.62273E-01   -0.63190E-01  5760   0.720E+00-0.360E-01
 gam= 1.430 trial= 0.222  step= 0.162 mean= 0.222
 gam= 0.609 g(H,U,f)=  0.120E+00 0.196E+00 0.121E+00 ort(H,U,f) =-0.116E+00 0.269E+00-0.130E+00
CGA:  44    -0.222472425546E+03   -0.49312E-01   -0.54147E-01  5760   0.438E+00 0.234E-01
 gam= 0.609 trial= 0.219  step= 0.172 mean= 0.219
 gam= 1.123 g(H,U,f)=  0.694E-01 0.128E+00 0.294E+00 ort(H,U,f) =-0.457E-01 0.112E+00-0.783E-01
CGA:  45    -0.222512813762E+03   -0.40388E-01   -0.38971E-01  5760   0.492E+00-0.121E-01
 gam= 1.123 trial= 0.216  step= 0.266 mean= 0.216
 gam= 0.000 g(H,U,f)=  0.122E+00 0.130E+00 0.124E+00 ort(H,U,f) =-0.102E+00 0.132E+00 0.223E+00
CGA:  46    -0.222581743854E+03   -0.68930E-01   -0.63581E-01  5760   0.376E+00 0.252E+00
 gam= 0.000 trial= 0.219  step= 0.188 mean= 0.219
 gam= 0.792 g(H,U,f)=  0.516E-01 0.167E+00 0.786E-01 ort(H,U,f) = 0.223E-01 0.372E-01 0.180E-01
CGA:  47    -0.222615259570E+03   -0.33516E-01   -0.35261E-01  5760   0.298E+00 0.775E-01
 gam= 0.792 trial= 0.217  step= 0.172 mean= 0.217
 gam= 1.068 g(H,U,f)=  0.749E-01 0.110E+00 0.133E+00 ort(H,U,f) =-0.240E-01 0.144E-01 0.105E+00
CGA:  48    -0.222645838133E+03   -0.30579E-01   -0.30920E-01  5760   0.318E+00 0.959E-01
 gam= 1.068 trial= 0.215  step= 0.127 mean= 0.215
 gam= 1.323 g(H,U,f)=  0.114E+00 0.222E+00 0.844E-01 ort(H,U,f) = 0.192E-01 0.166E-01 0.908E-01
CGA:  49    -0.222668550351E+03   -0.22712E-01   -0.26646E-01  5760   0.420E+00 0.127E+00
 gam= 1.323 trial= 0.211  step= 0.132 mean= 0.211
 gam= 0.922 g(H,U,f)=  0.901E-01 0.289E+00 0.867E-02 ort(H,U,f) = 0.485E-01 0.790E-01-0.153E-01
CGA:  50    -0.222698458838E+03   -0.29908E-01   -0.38938E-01  5760   0.388E+00 0.112E+00
 gam= 0.922 trial= 0.207  step= 0.141 mean= 0.207
 gam= 0.358 g(H,U,f)=  0.616E-01 0.663E-01 0.108E-01 ort(H,U,f) =-0.118E+00 0.116E+00 0.810E-02
CGA:  51    -0.222732486384E+03   -0.34028E-01   -0.34587E-01  5760   0.139E+00 0.538E-02
 gam= 0.358 trial= 0.204  step= 0.301 mean= 0.204
 gam= 1.097 g(H,U,f)=  0.709E-01 0.729E-01 0.836E-02 ort(H,U,f) =-0.319E-01 0.626E-01-0.381E-03
CGA:  52    -0.222755879439E+03   -0.23393E-01   -0.21182E-01  5760   0.152E+00 0.303E-01
 gam= 1.097 trial= 0.208  step= 0.230 mean= 0.208
 gam= 1.100 g(H,U,f)=  0.545E-01 0.111E+00 0.240E-02 ort(H,U,f) =-0.264E-01 0.237E-01 0.773E-02
CGA:  53    -0.222776717368E+03   -0.20838E-01   -0.21323E-01  5760   0.167E+00 0.510E-02
 gam= 1.100 trial= 0.209  step= 0.398 mean= 0.209
 gam= 0.650 g(H,U,f)=  0.570E-01 0.508E-01 0.113E-02 ort(H,U,f) =-0.267E-01 0.634E-01 0.224E-02
CGA:  54    -0.222815801179E+03   -0.39084E-01   -0.34426E-01  5760   0.109E+00 0.390E-01
 gam= 0.650 trial= 0.219  step= 0.221 mean= 0.219
 gam= 0.781 g(H,U,f)=  0.256E-01 0.568E-01 0.266E-02 ort(H,U,f) =-0.300E-02 0.124E-01-0.402E-02
CGA:  55    -0.222830634389E+03   -0.14833E-01   -0.14829E-01  5760   0.851E-01 0.542E-02
 gam= 0.781 trial= 0.219  step= 0.306 mean= 0.219
 gam= 1.221 g(H,U,f)=  0.473E-01 0.492E-01 0.738E-02 ort(H,U,f) =-0.221E-01 0.240E-02 0.669E-03
CGA:  56    -0.222842403220E+03   -0.11769E-01   -0.13658E-01  5760   0.104E+00-0.190E-01
 gam= 1.221 trial= 0.223  step= 0.283 mean= 0.223
 gam= 0.623 g(H,U,f)=  0.372E-01 0.273E-01 0.267E-03 ort(H,U,f) =-0.117E-01 0.271E-01 0.527E-03
CGA:  57    -0.222854563315E+03   -0.12160E-01   -0.11428E-01  5760   0.648E-01 0.159E-01
 gam= 0.623 trial= 0.226  step= 0.188 mean= 0.226
 gam= 0.688 g(H,U,f)=  0.182E-01 0.247E-01 0.168E-02 ort(H,U,f) =-0.244E-02 0.485E-02-0.236E-02
CGA:  58    -0.222861666919E+03   -0.71036E-02   -0.70116E-02  5760   0.446E-01 0.411E-04
 gam= 0.688 trial= 0.224  step= 0.222 mean= 0.224
 gam= 0.640 g(H,U,f)=  0.164E-01 0.121E-01 0.392E-04 ort(H,U,f) =-0.112E-01 0.876E-02-0.513E-06
CGA:  59    -0.222866625025E+03   -0.49581E-02   -0.49528E-02  5760   0.285E-01-0.245E-02
 gam= 0.640 trial= 0.224  step= 0.346 mean= 0.224
 gam= 1.363 g(H,U,f)=  0.167E-01 0.210E-01 0.116E-02 ort(H,U,f) =-0.449E-02 0.591E-02 0.197E-03
CGA:  60    -0.222871283454E+03   -0.46584E-02   -0.46538E-02  5760   0.388E-01 0.162E-02
 gam= 1.363 trial= 0.230  step= 0.189 mean= 0.230
 gam= 0.599 g(H,U,f)=  0.117E-01 0.107E-01 0.841E-03 ort(H,U,f) =-0.715E-02 0.816E-02-0.121E-02
CGA:  61    -0.222875170955E+03   -0.38875E-02   -0.38793E-02  5760   0.233E-01-0.206E-03
 gam= 0.599 trial= 0.228  step= 0.327 mean= 0.228
 gam= 0.675 g(H,U,f)=  0.819E-02 0.678E-02 0.739E-03 ort(H,U,f) =-0.613E-02 0.484E-02 0.102E-03
CGA:  62    -0.222878877490E+03   -0.37065E-02   -0.37824E-02  5760   0.157E-01-0.119E-02
 gam= 0.675 trial= 0.233  step= 0.228 mean= 0.233
 gam= 0.959 g(H,U,f)=  0.602E-02 0.826E-02 0.774E-03 ort(H,U,f) = 0.663E-05 0.175E-02-0.868E-03
CGA:  63    -0.222880571909E+03   -0.16944E-02   -0.16956E-02  5760   0.151E-01 0.892E-03
 gam= 0.959 trial= 0.233  step= 0.315 mean= 0.233
 gam= 0.693 g(H,U,f)=  0.530E-02 0.479E-02 0.344E-03 ort(H,U,f) =-0.275E-02 0.102E-02-0.361E-04
CGA:  64    -0.222882937516E+03   -0.23656E-02   -0.25067E-02  5760   0.104E-01-0.177E-02
 gam= 0.693 trial= 0.237  step= 0.325 mean= 0.237
 gam= 0.618 g(H,U,f)=  0.358E-02 0.283E-02 0.400E-04 ort(H,U,f) =-0.159E-02 0.223E-02 0.104E-03
CGA:  65    -0.222884478410E+03   -0.15409E-02   -0.14985E-02  5760   0.645E-02 0.748E-03
 gam= 0.618 trial= 0.241  step= 0.383 mean= 0.241
 gam= 0.870 g(H,U,f)=  0.298E-02 0.241E-02 0.220E-03 ort(H,U,f) =-0.148E-02 0.176E-02-0.249E-03
CGA:  66    -0.222885828149E+03   -0.13497E-02   -0.13228E-02  5760   0.561E-02 0.344E-04
 gam= 0.870 trial= 0.249  step= 0.502 mean= 0.249
 gam= 1.428 g(H,U,f)=  0.366E-02 0.432E-02 0.321E-04 ort(H,U,f) =-0.187E-02 0.184E-02 0.547E-05
CGA:  67    -0.222887233781E+03   -0.14056E-02   -0.14154E-02  5760   0.801E-02-0.200E-04
 gam= 1.428 trial= 0.261  step= 0.386 mean= 0.261
 gam= 1.480 g(H,U,f)=  0.538E-02 0.516E-02 0.132E-02 ort(H,U,f) =-0.363E-02 0.371E-02-0.190E-03
CGA:  68    -0.222888768252E+03   -0.15345E-02   -0.15423E-02  5760   0.119E-01-0.107E-03
 gam= 1.480 trial= 0.267  step= 0.322 mean= 0.267
 gam= 0.918 g(H,U,f)=  0.647E-02 0.440E-02 0.215E-04 ort(H,U,f) =-0.439E-02 0.526E-02-0.863E-04
CGA:  69    -0.222890660313E+03   -0.18921E-02   -0.18819E-02  5760   0.109E-01 0.782E-03
 gam= 0.918 trial= 0.270  step= 0.553 mean= 0.270
 gam= 1.428 g(H,U,f)=  0.755E-02 0.700E-02 0.101E-02 ort(H,U,f) =-0.302E-02 0.282E-02-0.816E-03
CGA:  70    -0.222893828166E+03   -0.31679E-02   -0.32080E-02  5760   0.156E-01-0.102E-02
 gam= 1.428 trial= 0.284  step= 0.473 mean= 0.284
 gam= 0.856 g(H,U,f)=  0.755E-02 0.569E-02 0.744E-04 ort(H,U,f) =-0.421E-02 0.369E-02-0.540E-04
CGA:  71    -0.222897078444E+03   -0.32503E-02   -0.33315E-02  5760   0.133E-01-0.579E-03
 gam= 0.856 trial= 0.294  step= 0.350 mean= 0.294
 gam= 0.974 g(H,U,f)=  0.744E-02 0.549E-02 0.386E-04 ort(H,U,f) =-0.186E-02 0.176E-02 0.154E-04
CGA:  72    -0.222899309052E+03   -0.22306E-02   -0.22448E-02  5760   0.130E-01-0.789E-04
 gam= 0.974 trial= 0.296  step= 0.351 mean= 0.296
 gam= 1.192 g(H,U,f)=  0.567E-02 0.905E-02 0.736E-03 ort(H,U,f) =-0.754E-03 0.880E-03-0.754E-04
CGA:  73    -0.222901568162E+03   -0.22591E-02   -0.22653E-02  5760   0.155E-01 0.506E-04
 gam= 1.192 trial= 0.299  step= 0.276 mean= 0.299
 gam= 0.469 g(H,U,f)=  0.363E-02 0.342E-02 0.198E-03 ort(H,U,f) =-0.286E-02 0.316E-02-0.261E-03
CGA:  74    -0.222903712752E+03   -0.21446E-02   -0.21398E-02  5760   0.725E-02 0.434E-04
 gam= 0.469 trial= 0.298  step= 0.395 mean= 0.298
 gam= 1.009 g(H,U,f)=  0.371E-02 0.359E-02 0.197E-04 ort(H,U,f) =-0.128E-02 0.131E-02 0.342E-04
CGA:  75    -0.222905146900E+03   -0.14341E-02   -0.14354E-02  5760   0.732E-02 0.650E-04
 gam= 1.009 trial= 0.303  step= 0.493 mean= 0.303
 gam= 0.871 g(H,U,f)=  0.307E-02 0.328E-02 0.299E-04 ort(H,U,f) =-0.181E-02 0.198E-02 0.628E-04
CGA:  76    -0.222906988603E+03   -0.18417E-02   -0.18210E-02  5760   0.638E-02 0.231E-03
 gam= 0.871 trial= 0.312  step= 0.397 mean= 0.312
 gam= 0.000 g(H,U,f)=  0.290E-02 0.257E-02 0.317E-04 ort(H,U,f) =-0.137E-02 0.152E-02 0.847E-04
SDA:  77    -0.222908303116E+03   -0.13145E-02   -0.13061E-02  5760   0.550E-02 0.235E-03
 gam= 0.000 trial= 0.317  step= 0.346 mean= 0.317
 gam= 0.552 g(H,U,f)=  0.931E-03 0.203E-02 0.842E-04 ort(H,U,f) = 0.350E-03-0.264E-03 0.147E-04
CGA:  78    -0.222909255437E+03   -0.95232E-03   -0.95261E-03  5760   0.304E-02 0.101E-03
 gam= 0.552 trial= 0.318  step= 0.303 mean= 0.318
 gam= 1.331 g(H,U,f)=  0.101E-02 0.285E-02 0.184E-03 ort(H,U,f) = 0.750E-04 0.140E-03-0.123E-03
CGA:  79    -0.222909726922E+03   -0.47148E-03   -0.46917E-03  5760   0.405E-02 0.923E-04
 gam= 1.331 trial= 0.317  step= 0.358 mean= 0.317
 gam= 0.631 g(H,U,f)=  0.109E-02 0.136E-02 0.112E-03 ort(H,U,f) =-0.115E-02 0.951E-03-0.122E-04
CGA:  80    -0.222910462902E+03   -0.73598E-03   -0.74661E-03  5760   0.256E-02-0.215E-03
 gam= 0.631 trial= 0.319  step= 0.625 mean= 0.319
 gam= 0.886 g(H,U,f)=  0.103E-02 0.994E-03 0.236E-03 ort(H,U,f) =-0.693E-03 0.793E-03-0.149E-03
CGA:  81    -0.222911218867E+03   -0.75596E-03   -0.75636E-03  5760   0.226E-02-0.497E-04
 gam= 0.886 trial= 0.335  step= 0.309 mean= 0.335
 gam= 1.170 g(H,U,f)=  0.905E-03 0.154E-02 0.200E-03 ort(H,U,f) =-0.164E-03 0.326E-03-0.912E-04
CGA:  82    -0.222911562774E+03   -0.34391E-03   -0.34279E-03  5760   0.265E-02 0.705E-04
 gam= 1.170 trial= 0.333  step= 0.325 mean= 0.333
 gam= 0.715 g(H,U,f)=  0.741E-03 0.106E-02 0.869E-04 ort(H,U,f) =-0.299E-03 0.309E-03 0.652E-04
CGA:  83    -0.222912006828E+03   -0.44405E-03   -0.44327E-03  5760   0.189E-02 0.745E-04
 gam= 0.715 trial= 0.333  step= 0.425 mean= 0.333
 gam= 0.599 g(H,U,f)=  0.551E-03 0.536E-03 0.460E-04 ort(H,U,f) =-0.187E-03 0.388E-03 0.873E-04
CGA:  84    -0.222912432032E+03   -0.42520E-03   -0.41360E-03  5760   0.113E-02 0.288E-03
 gam= 0.599 trial= 0.338  step= 0.320 mean= 0.338
 gam= 1.433 g(H,U,f)=  0.451E-03 0.928E-03 0.245E-03 ort(H,U,f) = 0.101E-03 0.640E-04-0.235E-03
CGA:  85    -0.222912641187E+03   -0.20915E-03   -0.20876E-03  5760   0.162E-02-0.705E-04
 gam= 1.433 trial= 0.337  step= 0.385 mean= 0.337
 gam= 0.668 g(H,U,f)=  0.492E-03 0.583E-03 0.106E-04 ort(H,U,f) =-0.436E-03 0.273E-03-0.198E-04
CGA:  86    -0.222912926351E+03   -0.28516E-03   -0.29338E-03  5760   0.109E-02-0.182E-03
 gam= 0.668 trial= 0.339  step= 0.448 mean= 0.339
 gam= 0.799 g(H,U,f)=  0.467E-03 0.397E-03 0.316E-05 ort(H,U,f) =-0.322E-03 0.341E-03 0.251E-05
CGA:  87    -0.222913141869E+03   -0.21552E-03   -0.21565E-03  5760   0.867E-03 0.221E-04
 gam= 0.799 trial= 0.345  step= 0.437 mean= 0.345
 gam= 1.586 g(H,U,f)=  0.422E-03 0.853E-03 0.100E-03 ort(H,U,f) =-0.177E-03 0.233E-03 0.272E-04
CGA:  88    -0.222913332152E+03   -0.19028E-03   -0.19345E-03  5760   0.138E-02 0.829E-04
 gam= 1.586 trial= 0.349  step= 0.288 mean= 0.349
 gam= 0.952 g(H,U,f)=  0.533E-03 0.632E-03 0.144E-03 ort(H,U,f) =-0.353E-03 0.421E-03-0.173E-03
CGA:  89    -0.222913550399E+03   -0.21825E-03   -0.21677E-03  5760   0.131E-02-0.105E-03
 gam= 0.952 trial= 0.346  step= 0.597 mean= 0.346
 gam= 1.016 g(H,U,f)=  0.943E-03 0.378E-03 0.913E-05 ort(H,U,f) =-0.558E-03 0.473E-03-0.422E-05
CGA:  90    -0.222913897437E+03   -0.34704E-03   -0.36112E-03  5760   0.133E-02-0.898E-04
 gam= 1.016 trial= 0.359  step= 0.698 mean= 0.359
 gam= 1.055 g(H,U,f)=  0.723E-03 0.676E-03 0.402E-05 ort(H,U,f) =-0.210E-03 0.210E-03 0.290E-05
CGA:  91    -0.222914328965E+03   -0.43153E-03   -0.43218E-03  5760   0.140E-02 0.277E-05
 gam= 1.055 trial= 0.376  step= 0.460 mean= 0.376
 gam= 1.056 g(H,U,f)=  0.534E-03 0.926E-03 0.225E-04 ort(H,U,f) =-0.182E-03 0.203E-03 0.787E-05
CGA:  92    -0.222914647995E+03   -0.31903E-03   -0.32347E-03  5760   0.148E-02 0.285E-04
 gam= 1.056 trial= 0.380  step= 0.221 mean= 0.380
 gam= 0.854 g(H,U,f)=  0.549E-03 0.606E-03 0.112E-03 ort(H,U,f) =-0.199E-03 0.257E-03-0.532E-04
CGA:  93    -0.222914822141E+03   -0.17415E-03   -0.16696E-03  5760   0.127E-02 0.560E-05
 gam= 0.854 trial= 0.372  step= 0.498 mean= 0.372
 gam= 1.025 g(H,U,f)=  0.617E-03 0.650E-03 0.304E-04 ort(H,U,f) =-0.277E-03 0.292E-03-0.431E-04
CGA:  94    -0.222915140216E+03   -0.31808E-03   -0.31634E-03  5760   0.130E-02-0.279E-04
 gam= 1.025 trial= 0.378  step= 0.462 mean= 0.378
 gam= 1.207 g(H,U,f)=  0.531E-03 0.932E-03 0.105E-03 ort(H,U,f) =-0.340E-03 0.409E-03-0.180E-04
CGA:  95    -0.222915432441E+03   -0.29222E-03   -0.29324E-03  5760   0.157E-02 0.519E-04
 gam= 1.207 trial= 0.382  step= 0.184 mean= 0.382
 gam= 0.582 g(H,U,f)=  0.498E-03 0.355E-03 0.589E-04 ort(H,U,f) =-0.339E-03 0.453E-03-0.650E-04
CGA:  96    -0.222915595750E+03   -0.16331E-03   -0.14983E-03  5760   0.913E-03 0.491E-04
 gam= 0.582 trial= 0.372  step= 0.684 mean= 0.372
 gam= 1.134 g(H,U,f)=  0.528E-03 0.444E-03 0.623E-04 ort(H,U,f) =-0.213E-03 0.266E-03 0.187E-04
CGA:  97    -0.222915928896E+03   -0.33315E-03   -0.32207E-03  5760   0.104E-02 0.707E-04
 gam= 1.134 trial= 0.388  step= 0.298 mean= 0.388
 gam= 1.230 g(H,U,f)=  0.426E-03 0.775E-03 0.717E-04 ort(H,U,f) =-0.367E-04 0.182E-03-0.873E-04
CGA:  98    -0.222916093611E+03   -0.16472E-03   -0.16609E-03  5760   0.127E-02 0.579E-04
 gam= 1.230 trial= 0.384  step= 0.305 mean= 0.384
 gam= 0.604 g(H,U,f)=  0.357E-03 0.410E-03 0.183E-05 ort(H,U,f) =-0.219E-03 0.163E-03-0.756E-05
CGA:  99    -0.222916306705E+03   -0.21309E-03   -0.20534E-03  5760   0.769E-03-0.639E-04
 gam= 0.604 trial= 0.380  step= 0.454 mean= 0.380
 gam= 0.682 g(H,U,f)=  0.290E-03 0.234E-03 0.152E-05 ort(H,U,f) =-0.139E-03 0.134E-03 0.192E-05
CGA: 100    -0.222916471695E+03   -0.16499E-03   -0.16569E-03  5760   0.525E-03-0.349E-05
 gam= 0.682 trial= 0.383  step= 0.607 mean= 0.383
 gam= 1.417 g(H,U,f)=  0.254E-03 0.454E-03 0.358E-04 ort(H,U,f) =-0.689E-04 0.891E-04 0.155E-04
CGA: 101    -0.222916627985E+03   -0.15629E-03   -0.15864E-03  5760   0.743E-03 0.357E-04
 gam= 1.417 trial= 0.395  step= 0.235 mean= 0.395
 gam= 0.721 g(H,U,f)=  0.218E-03 0.288E-03 0.302E-04 ort(H,U,f) =-0.116E-03 0.155E-03-0.522E-04
CGA: 102    -0.222916722686E+03   -0.94701E-04   -0.93365E-04  5760   0.536E-03-0.132E-04
 gam= 0.721 trial= 0.387  step= 0.370 mean= 0.387
 gam= 0.683 g(H,U,f)=  0.207E-03 0.156E-03 0.289E-05 ort(H,U,f) =-0.118E-03 0.865E-04 0.936E-06
CGA: 103    -0.222916820749E+03   -0.98063E-04   -0.97560E-04  5760   0.366E-03-0.302E-04
 gam= 0.683 trial= 0.386  step= 0.685 mean= 0.386
 gam= 0.851 g(H,U,f)=  0.152E-03 0.158E-03 0.186E-05 ort(H,U,f) =-0.567E-04 0.542E-04 0.270E-05
CGA: 104    -0.222916938459E+03   -0.11771E-03   -0.11835E-03  5760   0.312E-03 0.215E-06
 gam= 0.851 trial= 0.401  step= 0.340 mean= 0.401
 gam= 0.637 g(H,U,f)=  0.989E-04 0.990E-04 0.523E-06 ort(H,U,f) =-0.275E-04 0.407E-04 0.217E-05
CGA: 105    -0.222916991400E+03   -0.52941E-04   -0.52979E-04  5760   0.198E-03 0.154E-04
 gam= 0.637 trial= 0.398  step= 0.256 mean= 0.398
 gam= 1.055 g(H,U,f)=  0.729E-04 0.104E-03 0.326E-04 ort(H,U,f) = 0.209E-04-0.619E-05-0.160E-04
CGA: 106    -0.222917019363E+03   -0.27963E-04   -0.26628E-04  5760   0.209E-03-0.127E-05
 gam= 1.055 trial= 0.391  step= 0.370 mean= 0.391
 gam= 0.572 g(H,U,f)=  0.600E-04 0.595E-04 0.343E-06 ort(H,U,f) =-0.240E-04 0.302E-04 0.139E-05
CGA: 107    -0.222917057656E+03   -0.38293E-04   -0.38462E-04  5760   0.120E-03 0.756E-05
 gam= 0.572 trial= 0.390  step= 0.380 mean= 0.390
 gam= 0.000 g(H,U,f)=  0.447E-04 0.744E-04 0.177E-04 ort(H,U,f) =-0.955E-05 0.179E-04-0.885E-05
SDA: 108    -0.222917081229E+03   -0.23573E-04   -0.23565E-04  5760   0.137E-03-0.494E-06
 gam= 0.000 trial= 0.389  step= 0.136 mean= 0.389
 gam= 0.359 g(H,U,f)=  0.196E-04 0.289E-04 0.583E-06 ort(H,U,f) = 0.212E-04-0.862E-05-0.297E-05
CGA: 109    -0.222917091072E+03   -0.98429E-05   -0.92992E-05  5760   0.491E-04 0.964E-05
 gam= 0.359 trial= 0.376  step= 0.642 mean= 0.376
 gam= 1.206 g(H,U,f)=  0.165E-04 0.368E-04 0.595E-05 ort(H,U,f) =-0.783E-05 0.744E-05-0.189E-05
CGA: 110    -0.222917107702E+03   -0.16629E-04   -0.16890E-04  5760   0.592E-04-0.227E-05
 gam= 1.206 trial= 0.390  step= 0.449 mean= 0.390
 gam= 0.596 g(H,U,f)=  0.212E-04 0.140E-04 0.818E-07 ort(H,U,f) =-0.210E-04 0.249E-04 0.435E-06
CGA: 111    -0.222917120612E+03   -0.12910E-04   -0.12688E-04  5760   0.353E-04 0.440E-05
 gam= 0.596 trial= 0.393  step= 1.026 mean= 0.393
 gam= 2.238 g(H,U,f)=  0.310E-04 0.389E-04 0.905E-05 ort(H,U,f) =-0.115E-04 0.102E-04-0.336E-05
CGA: 112    -0.222917139693E+03   -0.19081E-04   -0.19435E-04  5760   0.790E-04-0.472E-05
 gam= 2.238 trial= 0.424  step= 0.326 mean= 0.424
 gam= 0.969 g(H,U,f)=  0.344E-04 0.411E-04 0.899E-06 ort(H,U,f) =-0.155E-04 0.226E-04-0.333E-06
CGA: 113    -0.222917151046E+03   -0.11352E-04   -0.11157E-04  5760   0.765E-04 0.677E-05
 gam= 0.969 trial= 0.419  step= 0.276 mean= 0.419
 gam= 0.672 g(H,U,f)=  0.276E-04 0.230E-04 0.751E-06 ort(H,U,f) =-0.871E-05 0.127E-04-0.421E-06
CGA: 114    -0.222917162598E+03   -0.11552E-04   -0.11476E-04  5760   0.514E-04 0.360E-05
 gam= 0.672 trial= 0.412  step= 0.467 mean= 0.412
 gam= 0.864 g(H,U,f)=  0.186E-04 0.243E-04 0.145E-05 ort(H,U,f) =-0.453E-05 0.533E-05-0.657E-06
CGA: 115    -0.222917175096E+03   -0.12498E-04   -0.12572E-04  5760   0.444E-04 0.142E-06
 gam= 0.864 trial= 0.415  step= 0.331 mean= 0.415
 gam= 0.815 g(H,U,f)=  0.150E-04 0.208E-04 0.443E-06 ort(H,U,f) =-0.490E-05 0.414E-05-0.600E-06
CGA: 116    -0.222917182614E+03   -0.75179E-05   -0.73744E-05  5760   0.362E-04-0.136E-05
 gam= 0.815 trial= 0.411  step= 0.308 mean= 0.411
 gam= 1.022 g(H,U,f)=  0.141E-04 0.190E-04 0.392E-05 ort(H,U,f) =-0.362E-05 0.318E-05-0.688E-07
CGA: 117    -0.222917188354E+03   -0.57407E-05   -0.54031E-05  5760   0.370E-04-0.502E-06
 gam= 1.022 trial= 0.406  step= 0.349 mean= 0.406
 gam= 0.507 g(H,U,f)=  0.101E-04 0.869E-05 0.204E-07 ort(H,U,f) =-0.678E-05 0.888E-05-0.144E-06
CGA: 118    -0.222917194593E+03   -0.62390E-05   -0.63667E-05  5760   0.188E-04 0.196E-05
 gam= 0.507 trial= 0.403  step= 0.421 mean= 0.403
 gam= 0.833 g(H,U,f)=  0.747E-05 0.686E-05 0.129E-05 ort(H,U,f) =-0.247E-05 0.352E-05-0.105E-05
CGA: 119    -0.222917198757E+03   -0.41631E-05   -0.41552E-05  5760   0.156E-04-0.823E-09
 gam= 0.833 trial= 0.404  step= 0.603 mean= 0.404
 gam= 0.884 g(H,U,f)=  0.723E-05 0.657E-05 0.135E-07 ort(H,U,f) =-0.392E-05 0.404E-05-0.118E-07
CGA: 120    -0.222917203506E+03   -0.47492E-05   -0.47082E-05  5760   0.138E-04 0.110E-06
 gam= 0.884 trial= 0.414  step= 0.471 mean= 0.414
 gam= 1.402 g(H,U,f)=  0.741E-05 0.119E-04 0.365E-07 ort(H,U,f) =-0.273E-05 0.109E-05 0.398E-07
CGA: 121    -0.222917206703E+03   -0.31973E-05   -0.32752E-05  5760   0.194E-04-0.160E-05
 gam= 1.402 trial= 0.417  step= 0.232 mean= 0.417
 gam= 0.840 g(H,U,f)=  0.715E-05 0.766E-05 0.147E-05 ort(H,U,f) =-0.258E-05 0.259E-05-0.550E-06
CGA: 122    -0.222917208860E+03   -0.21570E-05   -0.19874E-05  5760   0.163E-04-0.543E-06
 gam= 0.840 trial= 0.407  step= 0.335 mean= 0.407
 gam= 0.677 g(H,U,f)=  0.468E-05 0.633E-05 0.159E-08 ort(H,U,f) =-0.146E-05 0.291E-05 0.819E-08
CGA: 123    -0.222917211426E+03   -0.25662E-05   -0.26509E-05  5760   0.110E-04 0.146E-05
 gam= 0.677 trial= 0.404  step= 0.229 mean= 0.404
 gam= 0.993 g(H,U,f)=  0.306E-05 0.642E-05 0.145E-05 ort(H,U,f) = 0.351E-06 0.155E-05-0.682E-06
CGA: 124    -0.222917212775E+03   -0.13489E-05   -0.13764E-05  5760   0.109E-04 0.122E-05
 gam= 0.993 trial= 0.395  step= 0.281 mean= 0.395
 gam= 0.557 g(H,U,f)=  0.263E-05 0.342E-05 0.399E-07 ort(H,U,f) =-0.187E-05 0.258E-05 0.118E-06
CGA: 125    -0.222917214436E+03   -0.16607E-05   -0.17064E-05  5760   0.609E-05 0.827E-06
 gam= 0.557 trial= 0.389  step= 0.473 mean= 0.389
 gam= 1.910 g(H,U,f)=  0.328E-05 0.772E-05 0.639E-06 ort(H,U,f) =-0.840E-06 0.974E-06-0.441E-06
CGA: 126    -0.222917215968E+03   -0.15321E-05   -0.15487E-05  5760   0.116E-04-0.307E-06
 gam= 1.910 trial= 0.393  step= 0.206 mean= 0.393
 gam= 0.620 g(H,U,f)=  0.337E-05 0.374E-05 0.106E-06 ort(H,U,f) =-0.192E-05 0.199E-05 0.852E-07
CGA: 127    -0.222917217272E+03   -0.13039E-05   -0.11379E-05  5760   0.722E-05 0.151E-06
 gam= 0.620 trial= 0.384  step= 0.361 mean= 0.384
 gam= 0.912 g(H,U,f)=  0.222E-05 0.397E-05 0.395E-06 ort(H,U,f) =-0.778E-06 0.214E-05 0.303E-06
CGA: 128    -0.222917218576E+03   -0.13039E-05   -0.13204E-05  5760   0.658E-05 0.166E-05
 gam= 0.912 trial= 0.383  step= 0.168 mean= 0.383
 gam= 0.544 g(H,U,f)=  0.177E-05 0.170E-05 0.112E-06 ort(H,U,f) =-0.218E-06 0.128E-05-0.347E-06
CGA: 129    -0.222917219224E+03   -0.64855E-06   -0.68011E-06  5760   0.358E-05 0.717E-06
 gam= 0.544 trial= 0.372  step= 0.433 mean= 0.372
 final diagonalization
   1 F= -.23246215E+03 E0= -.23245761E+03  d E =-.907965E-02  mag=     6.0000
