 vasp.5.4.4.18Apr17-6-g9f103f2a35 (build Nov 22 2021 14:44:17) complex          
  
 executed on             LinuxIFC date 2022.08.08  10:58:28
 running on   64 total cores
 distrk:  each k-point on   64 cores,    1 groups
 distr:  one band on NCORES_PER_BAND=   4 cores,   16 groups


--------------------------------------------------------------------------------------------------------


 INCAR:
 POTCAR:    PAW_PBE Li 17Jan2003                  
 POTCAR:    PAW_PBE Co 02Aug2007                  
 POTCAR:    PAW_PBE O 08Apr2002                   
 POTCAR:    PAW_PBE Li 17Jan2003                  
   VRHFIN =Li: s1p0                                                             
   LEXCH  = PE                                                                  
   EATOM  =     5.3001 eV,    0.3895 Ry                                         
                                                                                
   TITEL  = PAW_PBE Li 17Jan2003                                                
   LULTRA =        F    use ultrasoft PP ?                                      
   IUNSCR =        1    unscreen: 0-lin 1-nonlin 2-no                           
   RPACOR =    1.500    partial core radius                                     
   POMASS =    7.010; ZVAL   =    1.000    mass and valenz                      
   RCORE  =    2.050    outmost cutoff radius                                   
   RWIGS  =    2.600; RWIGS  =    1.376    wigner-seitz radius (au A)           
   ENMAX  =  140.000; ENMIN  =  100.000 eV                                      
   ICORE  =        2    local potential                                         
   LCOR   =        T    correct aug charges                                     
   LPAW   =        T    paw PP                                                  
   EAUG   =  331.638                                                            
   DEXC   =    0.000                                                            
   RMAX   =    2.098    core radius for proj-oper                               
   RAUG   =    1.300    factor for augmentation sphere                          
   RDEP   =    2.094    radius for radial grids                                 
   RDEPT  =    1.810    core radius for aug-charge                              
                                                                                
   Atomic configuration                                                         
    4 entries                                                                   
     n  l   j            E        occ.                                          
     1  0  0.50       -51.8549   2.0000                                         
     2  0  0.50        -2.8742   1.0000                                         
     2  1  0.50        -1.3606   0.0000                                         
     3  2  1.50        -1.3606   0.0000                                         
   Description                                                                  
     l       E           TYP  RCUT    TYP  RCUT                                 
     0     -2.8742052     23  2.050                                             
     0     27.2116520     23  2.050                                             
     1     -1.3605826     23  2.050                                             
     2     -1.3605826     23  2.050                                             
  local pseudopotential read in
  partial core-charges read in
  partial kinetic energy density read in
  atomic valenz-charges read in
  non local Contribution for L=           0  read in
    real space projection operators read in
  non local Contribution for L=           0  read in
    real space projection operators read in
  non local Contribution for L=           1  read in
    real space projection operators read in
    PAW grid and wavefunctions read in
 
   number of l-projection  operators is LMAX  =           3
   number of lm-projection operators is LMMAX =           5
 
 POTCAR:    PAW_PBE Co 02Aug2007                  
   VRHFIN =Co: d8 s1                                                            
   LEXCH  = PE                                                                  
   EATOM  =   813.3670 eV,   59.7808 Ry                                         
                                                                                
   TITEL  = PAW_PBE Co 02Aug2007                                                
   LULTRA =        F    use ultrasoft PP ?                                      
   IUNSCR =        1    unscreen: 0-lin 1-nonlin 2-no                           
   RPACOR =    2.000    partial core radius                                     
   POMASS =   58.933; ZVAL   =    9.000    mass and valenz                      
   RCORE  =    2.300    outmost cutoff radius                                   
   RWIGS  =    2.460; RWIGS  =    1.302    wigner-seitz radius (au A)           
   ENMAX  =  267.968; ENMIN  =  200.976 eV                                      
   RCLOC  =    1.203    cutoff for local pot                                    
   LCOR   =        T    correct aug charges                                     
   LPAW   =        T    paw PP                                                  
   EAUG   =  477.818                                                            
   DEXC   =    0.000                                                            
   RMAX   =    2.360    core radius for proj-oper                               
   RAUG   =    1.300    factor for augmentation sphere                          
   RDEP   =    2.393    radius for radial grids                                 
   RDEPT  =    1.864    core radius for aug-charge                              
                                                                                
   Atomic configuration                                                         
    9 entries                                                                   
     n  l   j            E        occ.                                          
     1  0  0.50     -7587.6674   2.0000                                         
     2  0  0.50      -893.6084   2.0000                                         
     2  1  1.50      -764.5805   6.0000                                         
     3  0  0.50       -97.5973   2.0000                                         
     3  1  1.50       -60.9648   6.0000                                         
     3  2  2.50        -4.2382   8.0000                                         
     4  0  0.50        -4.3746   1.0000                                         
     4  1  1.50        -4.0817   0.0000                                         
     4  3  2.50        -1.3606   0.0000                                         
   Description                                                                  
     l       E           TYP  RCUT    TYP  RCUT                                 
     2     -4.2382362     23  2.300                                             
     2     -5.5988188     23  2.300                                             
     0     -4.3745797     23  2.300                                             
     0      5.7660125     23  2.300                                             
     1     -2.7211652     23  2.300                                             
     1     16.9860234     23  2.300                                             
  local pseudopotential read in
  partial core-charges read in
  partial kinetic energy density read in
  atomic valenz-charges read in
  non local Contribution for L=           2  read in
    real space projection operators read in
  non local Contribution for L=           2  read in
    real space projection operators read in
  non local Contribution for L=           0  read in
    real space projection operators read in
  non local Contribution for L=           0  read in
    real space projection operators read in
  non local Contribution for L=           1  read in
    real space projection operators read in
  non local Contribution for L=           1  read in
    real space projection operators read in
    PAW grid and wavefunctions read in
 
   number of l-projection  operators is LMAX  =           6
   number of lm-projection operators is LMMAX =          18
 
 POTCAR:    PAW_PBE O 08Apr2002                   
   VRHFIN =O: s2p4                                                              
   LEXCH  = PE                                                                  
   EATOM  =   432.3788 eV,   31.7789 Ry                                         
                                                                                
   TITEL  = PAW_PBE O 08Apr2002                                                 
   LULTRA =        F    use ultrasoft PP ?                                      
   IUNSCR =        1    unscreen: 0-lin 1-nonlin 2-no                           
   RPACOR =    1.200    partial core radius                                     
   POMASS =   16.000; ZVAL   =    6.000    mass and valenz                      
   RCORE  =    1.520    outmost cutoff radius                                   
   RWIGS  =    1.550; RWIGS  =    0.820    wigner-seitz radius (au A)           
   ENMAX  =  400.000; ENMIN  =  300.000 eV                                      
   ICORE  =        2    local potential                                         
   LCOR   =        T    correct aug charges                                     
   LPAW   =        T    paw PP                                                  
   EAUG   =  605.392                                                            
   DEXC   =    0.000                                                            
   RMAX   =    1.553    core radius for proj-oper                               
   RAUG   =    1.300    factor for augmentation sphere                          
   RDEP   =    1.550    radius for radial grids                                 
   RDEPT  =    1.329    core radius for aug-charge                              
                                                                                
   Atomic configuration                                                         
    4 entries                                                                   
     n  l   j            E        occ.                                          
     1  0  0.50      -514.6923   2.0000                                         
     2  0  0.50       -23.9615   2.0000                                         
     2  1  0.50        -9.0305   4.0000                                         
     3  2  1.50        -9.5241   0.0000                                         
   Description                                                                  
     l       E           TYP  RCUT    TYP  RCUT                                 
     0    -23.9615318     23  1.200                                             
     0     -9.5240782     23  1.200                                             
     1     -9.0304911     23  1.520                                             
     1      8.1634956     23  1.520                                             
     2     -9.5240782      7  1.500                                             
  local pseudopotential read in
  partial core-charges read in
  partial kinetic energy density read in
  kinetic energy density of atom read in
  atomic valenz-charges read in
  non local Contribution for L=           0  read in
    real space projection operators read in
  non local Contribution for L=           0  read in
    real space projection operators read in
  non local Contribution for L=           1  read in
    real space projection operators read in
  non local Contribution for L=           1  read in
    real space projection operators read in
    PAW grid and wavefunctions read in
 
   number of l-projection  operators is LMAX  =           4
   number of lm-projection operators is LMMAX =           8
 
 Optimization of the real space projectors (new method)

 maximal supplied QI-value         = 18.33
 optimisation between [QCUT,QGAM] = [ 12.46, 24.93] = [ 43.51,174.03] Ry 
 Optimized for a Real-space Cutoff    1.13 Angstroem

   l    n(q)    QCUT    max X(q) W(low)/X(q) W(high)/X(q)  e(spline) 
   0      8    12.465    33.825    0.12E-03    0.29E-03    0.99E-07
   0      8    12.465     8.944    0.86E-04    0.22E-03    0.72E-07
   1      8    12.465     4.214    0.27E-03    0.11E-03    0.82E-07
 Optimization of the real space projectors (new method)

 maximal supplied QI-value         = 16.25
 optimisation between [QCUT,QGAM] = [ 12.51, 25.03] = [ 43.85,175.40] Ry 
 Optimized for a Real-space Cutoff    1.31 Angstroem

   l    n(q)    QCUT    max X(q) W(low)/X(q) W(high)/X(q)  e(spline) 
   2      9    12.514    65.824    0.30E-03    0.46E-03    0.43E-06
   2      9    12.514    61.429    0.31E-03    0.46E-03    0.44E-06
   0     10    12.514    56.174    0.90E-04    0.33E-03    0.30E-06
   0     10    12.514    31.263    0.81E-04    0.30E-03    0.28E-06
   1      9    12.514    19.828    0.38E-03    0.65E-04    0.24E-06
   1      9    12.514    15.139    0.32E-03    0.60E-04    0.20E-06
 Optimization of the real space projectors (new method)

 maximal supplied QI-value         = 24.76
 optimisation between [QCUT,QGAM] = [ 12.38, 25.00] = [ 42.90,175.06] Ry 
 Optimized for a Real-space Cutoff    1.13 Angstroem

   l    n(q)    QCUT    max X(q) W(low)/X(q) W(high)/X(q)  e(spline) 
   0      8    12.378    20.381    0.16E-03    0.54E-05    0.27E-06
   0      8    12.378    15.268    0.17E-03    0.61E-05    0.29E-06
   1      8    12.378     5.964    0.38E-03    0.23E-03    0.28E-06
   1      8    12.378     5.382    0.33E-03    0.20E-03    0.25E-06
  PAW_PBE Li 17Jan2003                  :
 energy of atom  1       EATOM=   -5.3001
 kinetic energy error for atom=    0.0000 (will be added to EATOM!!)
  PAW_PBE Co 02Aug2007                  :
 energy of atom  2       EATOM= -813.3670
 kinetic energy error for atom=    0.0018 (will be added to EATOM!!)
  PAW_PBE O 08Apr2002                   :
 energy of atom  3       EATOM= -432.3788
 kinetic energy error for atom=    0.0168 (will be added to EATOM!!)
 
 
 POSCAR: Li6 Co12 O24                            
  positions in cartesian coordinates
  No initial velocities read in
 exchange correlation table for  LEXCH =        8
   RHO(1)=    0.500       N(1)  =     2000
   RHO(2)=  100.500       N(2)  =     4000
 


--------------------------------------------------------------------------------------------------------


 ion  position               nearest neighbor table
   1  0.451  0.980  1.000-  36 1.64  23 1.96  37 1.98  38 2.03  25 2.11  24 2.17  15 2.50  16 2.57
                             9 2.62  10 2.62   8 2.68  17 2.82
   2  0.841  0.642  0.328-  33 1.84  22 1.89  20 1.92  19 1.99  32 2.02  34 2.28  12 2.52   8 2.64
                            14 2.74   9 2.74  10 2.78  11 2.82
   3  0.146  0.282  0.674-  39 1.79  29 2.01  27 2.05  40 2.09  42 2.12  28 2.34   4 2.36   6 2.47
                            15 2.57  11 2.73   5 2.74  17 2.77   5 2.88  16 2.91  12 2.91  14 3.05
   4  0.203  0.889  0.668-  27 1.80  41 1.90  39 2.07  28 2.07  30 2.18  40 2.21   3 2.36   5 2.55
                             6 2.65  15 2.67  13 2.72  16 2.77  11 2.82  12 2.88   6 2.97  18 3.06
   5  0.679  0.321  0.678-  41 1.88  40 1.99  27 2.07  29 2.09  42 2.12  30 2.33   4 2.55  17 2.59
                            13 2.72   3 2.74   6 2.77  15 2.79   6 2.80  18 2.85   3 2.88  14 2.92
   6  0.707  0.838  0.673-  39 1.78  42 1.95  30 2.09  28 2.13  41 2.20  29 2.20   3 2.47   4 2.65
                            18 2.66   5 2.77  17 2.79   5 2.80  14 2.81  13 2.84  16 2.87  11 2.91
   7  0.145  0.298  0.167-  24 1.76  19 1.81  25 1.84  23 1.86  20 1.94  22 2.02  10 2.75   8 2.78
                             9 2.78   8 2.78   9 2.83  10 2.85
   8  0.137  0.795  0.163-  19 1.86  24 1.87  23 1.90  26 1.91  21 1.93  20 1.93   2 2.64   1 2.68
                             9 2.75   7 2.78   7 2.78  10 2.79  10 2.82   9 2.84
   9  0.649  0.299  0.161-  21 1.80  22 1.90  25 1.94  26 1.95  23 1.95  20 1.95   1 2.62  10 2.70
                             2 2.74   8 2.75   7 2.78   7 2.83   8 2.84  10 2.86
  10  0.648  0.813  0.156-  25 1.79  19 1.83  21 1.84  24 1.88  26 1.90  22 1.93   1 2.62   9 2.70
                             7 2.75   2 2.78   8 2.79   8 2.82   7 2.85   9 2.86
  11  0.008  0.034  0.486-  34 1.77  31 1.84  30 1.92  29 1.92  27 1.96  32 1.99  12 2.72   3 2.73
                            13 2.77  14 2.80  14 2.80   4 2.82   2 2.82  12 2.84  13 2.85   6 2.91
  12  0.006  0.521  0.495-  33 1.78  30 1.83  29 1.83  32 1.86  31 1.88  28 1.92   2 2.52  11 2.72
                            14 2.74  13 2.76  13 2.83  11 2.84  14 2.87   4 2.88   3 2.91   5 2.93
  13  0.514  0.026  0.501-  29 1.78  27 1.83  28 1.88  32 1.89  33 1.90  34 1.94   4 2.72   5 2.72
                            14 2.75  12 2.76  11 2.77  14 2.81  12 2.83   6 2.84  11 2.85
  14  0.518  0.524  0.493-  30 1.80  33 1.86  31 1.89  34 1.97  27 2.03  28 2.03  12 2.74   2 2.74
                            13 2.75  11 2.80  11 2.80  13 2.81   6 2.81  12 2.87   5 2.92   3 3.05
  15  0.334  0.172  0.842-  35 1.83  36 1.90  39 1.92  42 1.94  37 1.96  41 1.96   1 2.50   3 2.57
                             4 2.67  16 2.78  17 2.78  16 2.78  18 2.79   5 2.79  18 2.81  17 2.82
  16  0.345  0.677  0.841-  35 1.75  40 1.81  36 1.86  41 1.88  38 1.93  42 1.93   1 2.57  18 2.75
                            17 2.76   4 2.77  15 2.78  15 2.78  17 2.83  18 2.86   6 2.87   3 2.91
  17  0.838  0.172  0.845-  38 1.85  35 1.89  41 1.90  37 1.93  39 1.95  40 1.95   5 2.59  16 2.76
                            18 2.77   3 2.77  15 2.78   6 2.79  18 2.79   1 2.82  15 2.82  16 2.83
  18  0.833  0.671  0.852-  42 1.89  37 1.89  36 1.89  38 1.94  39 1.96  40 2.15   6 2.66  16 2.75
                            17 2.77  15 2.79  17 2.79  15 2.81   5 2.85  16 2.86   4 3.06
  19  0.975  0.963  0.231-   7 1.81  10 1.83   8 1.86   2 1.99
  20  0.987  0.465  0.248-   2 1.92   8 1.93   7 1.94   9 1.95
  21  0.498  0.975  0.231-   9 1.80  10 1.84   8 1.93
  22  0.519  0.485  0.241-   2 1.89   9 1.90  10 1.93   7 2.02
  23  0.291  0.135  0.088-   7 1.86   8 1.90   9 1.95   1 1.96
  24  0.289  0.612  0.097-   7 1.76   8 1.87  10 1.88   1 2.17
  25  0.824  0.136  0.088-  10 1.79   7 1.84   9 1.94   1 2.11
  26  0.802  0.641  0.081-  10 1.90   8 1.91   9 1.95
  27  0.342  0.165  0.575-   4 1.80  13 1.83  11 1.96  14 2.03   3 2.05   5 2.07
  28  0.345  0.693  0.576-  13 1.88  12 1.92  14 2.03   4 2.07   6 2.13   3 2.34
  29  0.843  0.192  0.566-  13 1.78  12 1.83  11 1.92   3 2.01   5 2.09   6 2.20
  30  0.849  0.689  0.560-  14 1.80  12 1.83  11 1.92   6 2.09   4 2.18   5 2.33
  31  0.176  0.371  0.419-  11 1.84  12 1.88  14 1.89
  32  0.183  0.848  0.419-  12 1.86  13 1.89  11 1.99   2 2.02
  33  0.684  0.362  0.424-  12 1.78   2 1.84  14 1.86  13 1.90
  34  0.686  0.878  0.417-  11 1.77  13 1.94  14 1.97   2 2.28
  35  0.196  0.360  0.907-  16 1.75  15 1.83  17 1.89
  36  0.187  0.834  0.917-   1 1.64  16 1.86  18 1.89  15 1.90
  37  0.678  0.335  0.926-  18 1.89  17 1.93  15 1.96   1 1.98
  38  0.678  0.854  0.926-  17 1.85  16 1.93  18 1.94   1 2.03
  39  0.991  0.001  0.763-   6 1.78   3 1.79  15 1.92  17 1.95  18 1.96   4 2.07
  40  0.028  0.507  0.762-  16 1.81  17 1.95   5 1.99   3 2.09  18 2.15   4 2.21
  41  0.506  0.008  0.764-  16 1.88   5 1.88  17 1.90   4 1.90  15 1.96   6 2.20
  42  0.515  0.516  0.764-  18 1.89  16 1.93  15 1.94   6 1.95   5 2.12   3 2.12
 

IMPORTANT INFORMATION: All symmetrisations will be switched off!
NOSYMM: (Re-)initialisation of all symmetry stuff for point group C_1.

 
 

Automatic generation of k-mesh.
 generate k-points for:    6    6    2
Space group operators:
 irot       det(A)        alpha          n_x          n_y          n_z        tau_x        tau_y        tau_z
    1     1.000000     0.000000     1.000000     0.000000     0.000000     0.000000     0.000000     0.000000
 
 Subroutine IBZKPT returns following result:
 ===========================================
 
 Found     36 irreducible k-points:
 
 Following reciprocal coordinates:
            Coordinates               Weight
  0.083333  0.083333  0.250000      2.000000
  0.250000  0.083333  0.250000      2.000000
  0.416667  0.083333  0.250000      2.000000
 -0.416667  0.083333  0.250000      2.000000
 -0.250000  0.083333  0.250000      2.000000
 -0.083333  0.083333  0.250000      2.000000
  0.083333  0.250000  0.250000      2.000000
  0.250000  0.250000  0.250000      2.000000
  0.416667  0.250000  0.250000      2.000000
 -0.416667  0.250000  0.250000      2.000000
 -0.250000  0.250000  0.250000      2.000000
 -0.083333  0.250000  0.250000      2.000000
  0.083333  0.416667  0.250000      2.000000
  0.250000  0.416667  0.250000      2.000000
  0.416667  0.416667  0.250000      2.000000
 -0.416667  0.416667  0.250000      2.000000
 -0.250000  0.416667  0.250000      2.000000
 -0.083333  0.416667  0.250000      2.000000
  0.083333 -0.416667  0.250000      2.000000
  0.250000 -0.416667  0.250000      2.000000
  0.416667 -0.416667  0.250000      2.000000
 -0.416667 -0.416667  0.250000      2.000000
 -0.250000 -0.416667  0.250000      2.000000
 -0.083333 -0.416667  0.250000      2.000000
  0.083333 -0.250000  0.250000      2.000000
  0.250000 -0.250000  0.250000      2.000000
  0.416667 -0.250000  0.250000      2.000000
 -0.416667 -0.250000  0.250000      2.000000
 -0.250000 -0.250000  0.250000      2.000000
 -0.083333 -0.250000  0.250000      2.000000
  0.083333 -0.083333  0.250000      2.000000
  0.250000 -0.083333  0.250000      2.000000
  0.416667 -0.083333  0.250000      2.000000
 -0.416667 -0.083333  0.250000      2.000000
 -0.250000 -0.083333  0.250000      2.000000
 -0.083333 -0.083333  0.250000      2.000000
 
 Following cartesian coordinates:
            Coordinates               Weight
  0.014874  0.025838  0.019783      2.000000
  0.044621  0.042928  0.021291      2.000000
  0.074369  0.060019  0.022800      2.000000
 -0.074369 -0.025435  0.015257      2.000000
 -0.044621 -0.008344  0.016766      2.000000
 -0.014874  0.008747  0.018274      2.000000
  0.014874  0.060422  0.019530      2.000000
  0.044621  0.077513  0.021039      2.000000
  0.074369  0.094603  0.022547      2.000000
 -0.074369  0.009149  0.015005      2.000000
 -0.044621  0.026240  0.016513      2.000000
 -0.014874  0.043331  0.018022      2.000000
  0.014874  0.095006  0.019278      2.000000
  0.044621  0.112097  0.020786      2.000000
  0.074369  0.129188  0.022295      2.000000
 -0.074369  0.043733  0.014753      2.000000
 -0.044621  0.060824  0.016261      2.000000
 -0.014874  0.077915  0.017769      2.000000
  0.014874 -0.077915  0.020540      2.000000
  0.044621 -0.060824  0.022048      2.000000
  0.074369 -0.043733  0.023557      2.000000
 -0.074369 -0.129188  0.016014      2.000000
 -0.044621 -0.112097  0.017523      2.000000
 -0.014874 -0.095006  0.019031      2.000000
  0.014874 -0.043331  0.020287      2.000000
  0.044621 -0.026240  0.021796      2.000000
  0.074369 -0.009149  0.023304      2.000000
 -0.074369 -0.094603  0.015762      2.000000
 -0.044621 -0.077513  0.017270      2.000000
 -0.014874 -0.060422  0.018779      2.000000
  0.014874 -0.008747  0.020035      2.000000
  0.044621  0.008344  0.021543      2.000000
  0.074369  0.025435  0.023052      2.000000
 -0.074369 -0.060019  0.015510      2.000000
 -0.044621 -0.042928  0.017018      2.000000
 -0.014874 -0.025838  0.018527      2.000000
 


--------------------------------------------------------------------------------------------------------




 Dimension of arrays:
   k-points           NKPTS =     36   k-points in BZ     NKDIM =     36   number of bands    NBANDS=    160
   number of dos      NEDOS =    301   number of ions     NIONS =     42
   non local maximal  LDIM  =      6   non local SUM 2l+1 LMDIM =     18
   total plane-waves  NPLWV = 103680
   max r-space proj   IRMAX =   2799   max aug-charges    IRDMAX=  11801
   dimension x,y,z NGX =    36 NGY =   36 NGZ =   80
   dimension x,y,z NGXF=    72 NGYF=   72 NGZF=  160
   support grid    NGXF=    72 NGYF=   72 NGZF=  160
   ions per type =               6  12  24
   NGX,Y,Z   is equivalent  to a cutoff of  10.68, 10.77, 10.17 a.u.
   NGXF,Y,Z  is equivalent  to a cutoff of  21.36, 21.54, 20.35 a.u.

 SYSTEM =  LiCoO2                                  
 POSCAR =  Li6 Co12 O24                            

 Startparameter for this run:
   NWRITE =      2    write-flag & timer
   PREC   = normal    normal or accurate (medium, high low for compatibility)
   ISTART =      0    job   : 0-new  1-cont  2-samecut
   ICHARG =      2    charge: 1-file 2-atom 10-const
   ISPIN  =      2    spin polarized calculation?
   LNONCOLLINEAR =      F non collinear calculations
   LSORBIT =      F    spin-orbit coupling
   INIWAV =      1    electr: 0-lowe 1-rand  2-diag
   LASPH  =      F    aspherical Exc in radial PAW
   METAGGA=      F    non-selfconsistent MetaGGA calc.

 Electronic Relaxation 1
   ENCUT  =  600.0 eV  44.10 Ry    6.64 a.u.  11.19 11.10 26.11*2*pi/ulx,y,z
   ENINI  =  600.0     initial cutoff
   ENAUG  =  605.4 eV  augmentation charge cutoff
   NELM   =    600;   NELMIN=  2; NELMDL= -5     # of ELM steps 
   EDIFF  = 0.1E-05   stopping-criterion for ELM
   LREAL  =      T    real-space projection
   NLSPLINE    = F    spline interpolate recip. space projectors
   LCOMPAT=      F    compatible to vasp.4.4
   GGA_COMPAT  = T    GGA compatible to vasp.4.4-vasp.4.6
   LMAXPAW     = -100 max onsite density
   LMAXMIX     =    2 max onsite mixed and CHGCAR
   VOSKOWN=      0    Vosko Wilk Nusair interpolation
   ROPT   =   -0.00050  -0.00050  -0.00050
 Ionic relaxation
   EDIFFG = 0.1E-04   stopping-criterion for IOM
   NSW    =      0    number of steps for IOM
   NBLOCK =      1;   KBLOCK =      1    inner block; outer block 
   IBRION =     -1    ionic relax: 0-MD 1-quasi-New 2-CG
   NFREE  =      0    steps in history (QN), initial steepest desc. (CG)
   ISIF   =      2    stress and relaxation
   IWAVPR =     10    prediction:  0-non 1-charg 2-wave 3-comb
   ISYM   =      0    0-nonsym 1-usesym 2-fastsym
   LCORR  =      T    Harris-Foulkes like correction to forces

   POTIM  = 0.5000    time-step for ionic-motion
   TEIN   =    0.0    initial temperature
   TEBEG  =    0.0;   TEEND  =   0.0 temperature during run
   SMASS  =  -3.00    Nose mass-parameter (am)
   estimated Nose-frequenzy (Omega)   =  0.10E-29 period in steps =****** mass=  -0.717E-27a.u.
   SCALEE = 1.0000    scale energy and forces
   NPACO  =    256;   APACO  = 16.0  distance and # of slots for P.C.
   PSTRESS=    0.0 pullay stress

  Mass of Ions in am
   POMASS =   7.01 58.93 16.00
  Ionic Valenz
   ZVAL   =   1.00  9.00  6.00
  Atomic Wigner-Seitz radii
   RWIGS  =  -1.00 -1.00 -1.00
  virtual crystal weights 
   VCA    =   1.00  1.00  1.00
   NELECT =     258.0000    total number of electrons
   NUPDOWN=       6.0000    fix difference up-down

 DOS related values:
   EMIN   =  10.00;   EMAX   =-10.00  energy-range for DOS
   EFERMI =   0.00
   ISMEAR =     0;   SIGMA  =   0.05  broadening in eV -4-tet -1-fermi 0-gaus

 Electronic relaxation 2 (details)
   IALGO  =     58    algorithm
   LDIAG  =      T    sub-space diagonalisation (order eigenvalues)
   LSUBROT=      F    optimize rotation matrix (better conditioning)
   TURBO    =      0    0=normal 1=particle mesh
   IRESTART =      0    0=no restart 2=restart with 2 vectors
   NREBOOT  =      0    no. of reboots
   NMIN     =      0    reboot dimension
   EREF     =   0.00    reference energy to select bands
   IMIX   =      4    mixing-type and parameters
     AMIX     =   0.40;   BMIX     =  1.00
     AMIX_MAG =   1.60;   BMIX_MAG =  1.00
     AMIN     =   0.10
     WC   =   100.;   INIMIX=   1;  MIXPRE=   1;  MAXMIX= -45

 Intra band minimization:
   WEIMIN = 0.0000     energy-eigenvalue tresh-hold
   EBREAK =  0.16E-08  absolut break condition
   DEPER  =   0.30     relativ break condition  

   TIME   =   0.40     timestep for ELM

  volume/ion in A,a.u.               =       8.39        56.62
  Fermi-wavevector in a.u.,A,eV,Ry     =   1.475488  2.788269 29.620778  2.177066
  Thomas-Fermi vector in A             =   2.590131
 
 Write flags
   LWAVE        =      F    write WAVECAR
   LDOWNSAMPLE  =      F    k-point downsampling of WAVECAR
   LCHARG       =      F    write CHGCAR
   LVTOT        =      F    write LOCPOT, total local potential
   LVHAR        =      F    write LOCPOT, Hartree potential only
   LELF         =      F    write electronic localiz. function (ELF)
   LORBIT       =     11    0 simple, 1 ext, 2 COOP (PROOUT), +10 PAW based schemes


 Dipole corrections
   LMONO  =      F    monopole corrections only (constant potential shift)
   LDIPOL =      F    correct potential (dipole corrections)
   IDIPOL =      0    1-x, 2-y, 3-z, 4-all directions 
   EPSILON=  1.0000000 bulk dielectric constant

 LDA+U is selected, type is set to LDAUTYPE =  2
   angular momentum for each species LDAUL =    -1    2   -1
   U (eV)           for each species LDAUU =   0.0  5.1  0.0
   J (eV)           for each species LDAUJ =   0.0  0.0  0.0
 Exchange correlation treatment:
   GGA     =    --    GGA type
   LEXCH   =     8    internal setting for exchange type
   VOSKOWN=      0    Vosko Wilk Nusair interpolation
   LHFCALC =     F    Hartree Fock is set to
   LHFONE  =     F    Hartree Fock one center treatment
   AEXX    =    0.0000 exact exchange contribution

 Linear response parameters
   LEPSILON=     F    determine dielectric tensor
   LRPA    =     F    only Hartree local field effects (RPA)
   LNABLA  =     F    use nabla operator in PAW spheres
   LVEL    =     F    velocity operator in full k-point grid
   LINTERFAST=   F  fast interpolation
   KINTER  =     0    interpolate to denser k-point grid
   CSHIFT  =0.1000    complex shift for real part using Kramers Kronig
   OMEGAMAX=  -1.0    maximum frequency
   DEG_THRESHOLD= 0.2000000E-02 threshold for treating states as degnerate
   RTIME   =   -0.100 relaxation time in fs
  (WPLASMAI=    0.000 imaginary part of plasma frequency in eV, 0.658/RTIME)
   DFIELD  = 0.0000000 0.0000000 0.0000000 field for delta impulse in time
 
 Orbital magnetization related:
   ORBITALMAG=     F  switch on orbital magnetization
   LCHIMAG   =     F  perturbation theory with respect to B field
   DQ        =  0.001000  dq finite difference perturbation B field
   LLRAUG    =     F  two centre corrections for induced B field



--------------------------------------------------------------------------------------------------------


 Static calculation
 charge density and potential will be updated during run
 spin polarized calculation
 Conjugate gradient for all bands (Freysoldt, et al. PRB 79, 241103 (2009))
 preconditioned conjugated gradient                                        
 perform sub-space diagonalisation
    before iterative eigenvector-optimisation
 modified Broyden-mixing scheme, WC =      100.0
 initial mixing is a Kerker type mixing with AMIX =  0.4000 and BMIX =      1.0000
 Hartree-type preconditioning will be used
 using additional bands           31
 real space projection scheme for non local part
 use partial core corrections
 no Harris-corrections to forces 
 use gradient corrections 
 use of overlap-Matrix (Vanderbilt PP)
 Gauss-broadening in eV      SIGMA  =   0.05


--------------------------------------------------------------------------------------------------------


  energy-cutoff  :      600.00
  volume of cell :      352.40
      direct lattice vectors                 reciprocal lattice vectors
     5.602703571  0.000000000  0.000000000     0.178485259  0.102545329  0.009050925
    -2.768760204  4.819165230  0.000000000     0.000000000  0.207504817 -0.001514046
    -0.716560781  0.095230974 13.051710129     0.000000000  0.000000000  0.076618312

  length of vectors
     5.602703571  5.557912070 13.071712419     0.206044780  0.207510341  0.076618312


 
 k-points in units of 2pi/SCALE and weight: read from INCAR                         
   0.01487377  0.02583751  0.01978265       0.028
   0.04462131  0.04292840  0.02129114       0.028
   0.07436886  0.06001929  0.02279963       0.028
  -0.07436886 -0.02543515  0.01525719       0.028
  -0.04462131 -0.00834426  0.01676568       0.028
  -0.01487377  0.00874662  0.01827416       0.028
   0.01487377  0.06042165  0.01953031       0.028
   0.04462131  0.07751254  0.02103880       0.028
   0.07436886  0.09460342  0.02254729       0.028
  -0.07436886  0.00914898  0.01500485       0.028
  -0.04462131  0.02623987  0.01651334       0.028
  -0.01487377  0.04333076  0.01802182       0.028
   0.01487377  0.09500578  0.01927797       0.028
   0.04462131  0.11209667  0.02078646       0.028
   0.07436886  0.12918756  0.02229494       0.028
  -0.07436886  0.04373312  0.01475251       0.028
  -0.04462131  0.06082401  0.01626099       0.028
  -0.01487377  0.07791490  0.01776948       0.028
   0.01487377 -0.07791490  0.02053967       0.028
   0.04462131 -0.06082401  0.02204816       0.028
   0.07436886 -0.04373312  0.02355665       0.028
  -0.07436886 -0.12918756  0.01601421       0.028
  -0.04462131 -0.11209667  0.01752270       0.028
  -0.01487377 -0.09500578  0.01903119       0.028
   0.01487377 -0.04333076  0.02028733       0.028
   0.04462131 -0.02623987  0.02179582       0.028
   0.07436886 -0.00914898  0.02330431       0.028
  -0.07436886 -0.09460342  0.01576187       0.028
  -0.04462131 -0.07751254  0.01727036       0.028
  -0.01487377 -0.06042165  0.01877885       0.028
   0.01487377 -0.00874662  0.02003499       0.028
   0.04462131  0.00834426  0.02154348       0.028
   0.07436886  0.02543515  0.02305197       0.028
  -0.07436886 -0.06001929  0.01550953       0.028
  -0.04462131 -0.04292840  0.01701802       0.028
  -0.01487377 -0.02583751  0.01852650       0.028
 
 k-points in reciprocal lattice and weights: read from INCAR                         
   0.08333333  0.08333333  0.25000000       0.028
   0.25000000  0.08333333  0.25000000       0.028
   0.41666667  0.08333333  0.25000000       0.028
  -0.41666667  0.08333333  0.25000000       0.028
  -0.25000000  0.08333333  0.25000000       0.028
  -0.08333333  0.08333333  0.25000000       0.028
   0.08333333  0.25000000  0.25000000       0.028
   0.25000000  0.25000000  0.25000000       0.028
   0.41666667  0.25000000  0.25000000       0.028
  -0.41666667  0.25000000  0.25000000       0.028
  -0.25000000  0.25000000  0.25000000       0.028
  -0.08333333  0.25000000  0.25000000       0.028
   0.08333333  0.41666667  0.25000000       0.028
   0.25000000  0.41666667  0.25000000       0.028
   0.41666667  0.41666667  0.25000000       0.028
  -0.41666667  0.41666667  0.25000000       0.028
  -0.25000000  0.41666667  0.25000000       0.028
  -0.08333333  0.41666667  0.25000000       0.028
   0.08333333 -0.41666667  0.25000000       0.028
   0.25000000 -0.41666667  0.25000000       0.028
   0.41666667 -0.41666667  0.25000000       0.028
  -0.41666667 -0.41666667  0.25000000       0.028
  -0.25000000 -0.41666667  0.25000000       0.028
  -0.08333333 -0.41666667  0.25000000       0.028
   0.08333333 -0.25000000  0.25000000       0.028
   0.25000000 -0.25000000  0.25000000       0.028
   0.41666667 -0.25000000  0.25000000       0.028
  -0.41666667 -0.25000000  0.25000000       0.028
  -0.25000000 -0.25000000  0.25000000       0.028
  -0.08333333 -0.25000000  0.25000000       0.028
   0.08333333 -0.08333333  0.25000000       0.028
   0.25000000 -0.08333333  0.25000000       0.028
   0.41666667 -0.08333333  0.25000000       0.028
  -0.41666667 -0.08333333  0.25000000       0.028
  -0.25000000 -0.08333333  0.25000000       0.028
  -0.08333333 -0.08333333  0.25000000       0.028
 
 position of ions in fractional coordinates (direct lattice) 
   0.45071321  0.97958309  0.99975025
   0.84082749  0.64152001  0.32772103
   0.14636358  0.28199528  0.67350105
   0.20253489  0.88869446  0.66790024
   0.67881634  0.32062181  0.67751655
   0.70683494  0.83800480  0.67348417
   0.14531272  0.29810329  0.16739340
   0.13741661  0.79493968  0.16333184
   0.64908866  0.29866906  0.16112830
   0.64753321  0.81318913  0.15580103
   0.00778353  0.03381134  0.48595089
   0.00578855  0.52084722  0.49480871
   0.51355810  0.02645595  0.50061867
   0.51849940  0.52375296  0.49267568
   0.33414881  0.17247423  0.84193410
   0.34479516  0.67735663  0.84076186
   0.83794239  0.17171759  0.84546618
   0.83285042  0.67126721  0.85153441
   0.97485170  0.96261875  0.23081725
   0.98695773  0.46512541  0.24796368
   0.49768046  0.97496971  0.23143710
   0.51946897  0.48510701  0.24129941
   0.29112783  0.13472824  0.08802142
   0.28926909  0.61211402  0.09714743
   0.82420070  0.13568658  0.08751344
   0.80200728  0.64100028  0.08121158
   0.34183065  0.16506058  0.57508401
   0.34458084  0.69330314  0.57646775
   0.84329132  0.19199015  0.56628366
   0.84893132  0.68880115  0.56046219
   0.17561702  0.37108836  0.41944159
   0.18341225  0.84836841  0.41900946
   0.68390428  0.36223302  0.42390921
   0.68614545  0.87823878  0.41690398
   0.19612585  0.36000117  0.90689880
   0.18708849  0.83444040  0.91718099
   0.67796524  0.33450189  0.92627558
   0.67816584  0.85441307  0.92587714
   0.99125918  0.00082891  0.76283335
   0.02823728  0.50665711  0.76231237
   0.50551868  0.00754554  0.76389833
   0.51456075  0.51641879  0.76353825
 
 position of ions in cartesian coordinates  (Angst):
  -0.90340000  4.81597996 13.04845047
   2.69986010  3.12280011  4.27731991
  -0.44334999  1.42312002  8.79034042
  -1.80443001  4.34637022  8.71724033
   2.43000007  1.60965002  8.84274960
   1.15735996  4.10262012  8.79012012
  -0.13118000  1.45255005  2.18477011
  -1.54813004  3.84649992  2.13175988
   2.69425011  1.45467997  2.10299993
   1.26477003  3.93372989  2.03346992
  -0.39822000  0.20922001  6.34249020
  -1.76423001  2.55716991  6.45809984
   2.44533992  0.17517000  6.53392982
   1.10181999  2.57097006  6.43026018
   0.79130000  0.91136003 10.98867989
  -0.54610997  3.34436011 10.97338009
   3.61347008  0.90805000 11.03477955
   2.19745994  3.31604004 11.11398029
   2.63115001  4.66099977  3.01255989
   4.06412983  2.26513004  3.23635006
  -0.07694000  4.72058010  3.02064991
   1.39437997  2.36079001  3.14936996
   1.19500005  0.65766001  1.14883006
  -0.14372000  2.95913005  1.26794004
   4.17935991  0.66223001  1.14219999
   2.66043997  3.09682012  1.05994999
   1.04607999  0.85022002  7.50582981
  -0.40208000  3.39603996  7.52389002
   3.78735995  0.97916001  7.39097023
   2.44758010  3.37281990  7.31499004
  -0.34408000  1.82827997  5.47443008
  -1.62156999  4.12833023  5.46879005
   2.52501988  1.78603005  5.53274012
   1.11389995  4.27207994  5.44130993
  -0.54777002  1.82126999 11.83658028
  -1.91937995  4.10865021 11.97078037
   2.20854998  1.70023000 12.08948040
   0.77045000  4.20572996 12.08428001
   5.00481987  0.07664000  9.95627975
  -1.79085004  2.51426005  9.94948006
   2.26399994  0.10911000  9.97017956
   0.90596998  2.56141996  9.96547985
 


--------------------------------------------------------------------------------------------------------


 k-point  1 :   0.0833 0.0833 0.2500  plane waves:   11743
 k-point  2 :   0.2500 0.0833 0.2500  plane waves:   11750
 k-point  3 :   0.4167 0.0833 0.2500  plane waves:   11765
 k-point  4 :  -0.4167 0.0833 0.2500  plane waves:   11754
 k-point  5 :  -0.2500 0.0833 0.2500  plane waves:   11741
 k-point  6 :  -0.0833 0.0833 0.2500  plane waves:   11756
 k-point  7 :   0.0833 0.2500 0.2500  plane waves:   11760
 k-point  8 :   0.2500 0.2500 0.2500  plane waves:   11774
 k-point  9 :   0.4167 0.2500 0.2500  plane waves:   11757
 k-point 10 :  -0.4167 0.2500 0.2500  plane waves:   11755
 k-point 11 :  -0.2500 0.2500 0.2500  plane waves:   11754
 k-point 12 :  -0.0833 0.2500 0.2500  plane waves:   11758
 k-point 13 :   0.0833 0.4167 0.2500  plane waves:   11766
 k-point 14 :   0.2500 0.4167 0.2500  plane waves:   11767
 k-point 15 :   0.4167 0.4167 0.2500  plane waves:   11766
 k-point 16 :  -0.4167 0.4167 0.2500  plane waves:   11756
 k-point 17 :  -0.2500 0.4167 0.2500  plane waves:   11769
 k-point 18 :  -0.0833 0.4167 0.2500  plane waves:   11775
 k-point 19 :   0.0833-0.4167 0.2500  plane waves:   11776
 k-point 20 :   0.2500-0.4167 0.2500  plane waves:   11762
 k-point 21 :   0.4167-0.4167 0.2500  plane waves:   11770
 k-point 22 :  -0.4167-0.4167 0.2500  plane waves:   11768
 k-point 23 :  -0.2500-0.4167 0.2500  plane waves:   11769
 k-point 24 :  -0.0833-0.4167 0.2500  plane waves:   11776
 k-point 25 :   0.0833-0.2500 0.2500  plane waves:   11745
 k-point 26 :   0.2500-0.2500 0.2500  plane waves:   11761
 k-point 27 :   0.4167-0.2500 0.2500  plane waves:   11775
 k-point 28 :  -0.4167-0.2500 0.2500  plane waves:   11785
 k-point 29 :  -0.2500-0.2500 0.2500  plane waves:   11767
 k-point 30 :  -0.0833-0.2500 0.2500  plane waves:   11768
 k-point 31 :   0.0833-0.0833 0.2500  plane waves:   11753
 k-point 32 :   0.2500-0.0833 0.2500  plane waves:   11736
 k-point 33 :   0.4167-0.0833 0.2500  plane waves:   11759
 k-point 34 :  -0.4167-0.0833 0.2500  plane waves:   11760
 k-point 35 :  -0.2500-0.0833 0.2500  plane waves:   11743
 k-point 36 :  -0.0833-0.0833 0.2500  plane waves:   11734

 maximum and minimum number of plane-waves per node :      2978     2916

 maximum number of plane-waves:     11785
 maximum index in each direction: 
   IXMAX=   11   IYMAX=   11   IZMAX=   25
   IXMIN=  -11   IYMIN=  -11   IZMIN=  -26


 real space projection operators:
  total allocation   :       7471.41 KBytes
  max/ min on nodes  :       1871.12       1864.59


 parallel 3D FFT for wavefunctions:
    minimum data exchange during FFTs selected (reduces bandwidth)
 parallel 3D FFT for charge:
    minimum data exchange during FFTs selected (reduces bandwidth)


 total amount of memory used by VASP MPI-rank0   146422. kBytes
=======================================================================

   base      :      30000. kBytes
   nonlr-proj:       4278. kBytes
   fftplans  :       1503. kBytes
   grid      :       4132. kBytes
   one-center:        342. kBytes
   wavefun   :     106167. kBytes
 
     INWAV:  cpu time    0.0000: real time    0.0002
 Broyden mixing: mesh for mixing (old mesh)
   NGX = 23   NGY = 23   NGZ = 53
  (NGX  = 72   NGY  = 72   NGZ  =160)
  gives a total of  28037 points

 initial charge density was supplied:
 charge density of overlapping atoms calculated
 number of electron     258.0000000 magnetization       6.0000000
 keeping initial charge density in first step


--------------------------------------------------------------------------------------------------------


 Maximum index for non-local projection operator          683
 Maximum index for augmentation-charges          926 (set IRDMAX)


--------------------------------------------------------------------------------------------------------


 First call to EWALD:  gamma=   0.251
 Maximum number of real-space cells 4x 4x 2
 Maximum number of reciprocal cells 2x 2x 5

    FEWALD:  cpu time    0.0039: real time    0.0039


--------------------------------------- Iteration      1(   1)  ---------------------------------------


    POTLOK:  cpu time    0.0514: real time    0.0560
    SETDIJ:  cpu time    0.0181: real time    0.0181
    TRIAL :  cpu time   20.3190: real time   20.4345
    CORREC:  cpu time    0.0040: real time    0.0040
    --------------------------------------------
      LOOP:  cpu time   20.5488: real time   20.6703

 eigenvalue-minimisations  : 23040
 total energy-change (2. order) : 0.3535995E+04  (-0.1403443E+05)
 number of electron     258.0000000 magnetization       6.0000000
 augmentation part      258.0000000 magnetization       6.0000000

 Free energy of the ion-electron system (eV)
  ---------------------------------------------------
  alpha Z        PSCENC =       831.91283728
  Ewald energy   TEWEN  =    -15534.51164977
  -Hartree energ DENC   =     -5854.70144309
  -exchange      EXHF   =         0.00000000
  -V(xc)+E(xc)   XCENC  =       847.43406813
  PAW double counting   =     17015.18481625   -17491.61297812
  entropy T*S    EENTRO =        -0.00595629
  eigenvalues    EBANDS =      3553.42387022
  atomic energy  EATOM  =     20168.87094289
  ---------------------------------------------------
  free energy    TOTEN  =      3535.99450750 eV

  energy without entropy =     3536.00046379  energy(sigma->0) =     3535.99748565


--------------------------------------------------------------------------------------------------------




--------------------------------------- Iteration      1(   2)  ---------------------------------------


    TRIAL :  cpu time   21.1692: real time   21.1956
    CORREC:  cpu time    0.0044: real time    0.0044
    --------------------------------------------
      LOOP:  cpu time   21.1781: real time   21.2045

 eigenvalue-minimisations  : 24576
 total energy-change (2. order) :-0.3127280E+04  (-0.2886438E+04)
 number of electron     258.0000000 magnetization       6.0000000
 augmentation part      258.0000000 magnetization       6.0000000

 Free energy of the ion-electron system (eV)
  ---------------------------------------------------
  alpha Z        PSCENC =       831.91283728
  Ewald energy   TEWEN  =    -15534.51164977
  -Hartree energ DENC   =     -5854.70144309
  -exchange      EXHF   =         0.00000000
  -V(xc)+E(xc)   XCENC  =       847.43406813
  PAW double counting   =     17015.18481625   -17491.61297812
  entropy T*S    EENTRO =        -0.02059313
  eigenvalues    EBANDS =       426.15897767
  atomic energy  EATOM  =     20168.87094289
  ---------------------------------------------------
  free energy    TOTEN  =       408.71497812 eV

  energy without entropy =      408.73557124  energy(sigma->0) =      408.72527468


--------------------------------------------------------------------------------------------------------




--------------------------------------- Iteration      1(   3)  ---------------------------------------


    TRIAL :  cpu time   21.6370: real time   21.6551
    CORREC:  cpu time    0.0041: real time    0.0041
    --------------------------------------------
      LOOP:  cpu time   21.6450: real time   21.6631

 eigenvalue-minimisations  : 25040
 total energy-change (2. order) :-0.6272253E+03  (-0.5627523E+03)
 number of electron     258.0000000 magnetization       6.0000000
 augmentation part      258.0000000 magnetization       6.0000000

 Free energy of the ion-electron system (eV)
  ---------------------------------------------------
  alpha Z        PSCENC =       831.91283728
  Ewald energy   TEWEN  =    -15534.51164977
  -Hartree energ DENC   =     -5854.70144309
  -exchange      EXHF   =         0.00000000
  -V(xc)+E(xc)   XCENC  =       847.43406813
  PAW double counting   =     17015.18481625   -17491.61297812
  entropy T*S    EENTRO =        -0.02166367
  eigenvalues    EBANDS =      -201.06522473
  atomic energy  EATOM  =     20168.87094289
  ---------------------------------------------------
  free energy    TOTEN  =      -218.51029484 eV

  energy without entropy =     -218.48863117  energy(sigma->0) =     -218.49946300


--------------------------------------------------------------------------------------------------------




--------------------------------------- Iteration      1(   4)  ---------------------------------------


    TRIAL :  cpu time   21.6673: real time   21.6966
    CORREC:  cpu time    0.0040: real time    0.0040
    --------------------------------------------
      LOOP:  cpu time   21.6752: real time   21.7044

 eigenvalue-minimisations  : 25216
 total energy-change (2. order) :-0.5133014E+02  (-0.5028853E+02)
 number of electron     258.0000000 magnetization       6.0000000
 augmentation part      258.0000000 magnetization       6.0000000

 Free energy of the ion-electron system (eV)
  ---------------------------------------------------
  alpha Z        PSCENC =       831.91283728
  Ewald energy   TEWEN  =    -15534.51164977
  -Hartree energ DENC   =     -5854.70144309
  -exchange      EXHF   =         0.00000000
  -V(xc)+E(xc)   XCENC  =       847.43406813
  PAW double counting   =     17015.18481625   -17491.61297812
  entropy T*S    EENTRO =        -0.01981792
  eigenvalues    EBANDS =      -252.39721277
  atomic energy  EATOM  =     20168.87094289
  ---------------------------------------------------
  free energy    TOTEN  =      -269.84043712 eV

  energy without entropy =     -269.82061920  energy(sigma->0) =     -269.83052816


--------------------------------------------------------------------------------------------------------




--------------------------------------- Iteration      1(   5)  ---------------------------------------


    TRIAL :  cpu time   23.8129: real time   23.8571
    CORREC:  cpu time    0.0042: real time    0.0042
    CHARGE:  cpu time    0.3767: real time    0.3768
    --------------------------------------------
      LOOP:  cpu time   24.1978: real time   24.2422

 eigenvalue-minimisations  : 28256
 total energy-change (2. order) :-0.1666248E+01  (-0.1663528E+01)
 number of electron     257.9999867 magnetization       5.9999992
 augmentation part       68.0337518 magnetization       4.2961865

 Free energy of the ion-electron system (eV)
  ---------------------------------------------------
  alpha Z        PSCENC =       831.91283728
  Ewald energy   TEWEN  =    -15534.51164977
  -Hartree energ DENC   =     -5854.70144309
  -exchange      EXHF   =         0.00000000
  -V(xc)+E(xc)   XCENC  =       847.43406813
  PAW double counting   =     17015.18481625   -17491.61297812
  entropy T*S    EENTRO =        -0.01972737
  eigenvalues    EBANDS =      -254.06355170
  atomic energy  EATOM  =     20168.87094289
  ---------------------------------------------------
  free energy    TOTEN  =      -271.50668551 eV

  energy without entropy =     -271.48695814  energy(sigma->0) =     -271.49682182


--------------------------------------------------------------------------------------------------------




--------------------------------------- Iteration      1(   6)  ---------------------------------------


    POTLOK:  cpu time    0.0399: real time    0.0400
    SETDIJ:  cpu time    0.0123: real time    0.0123
    TRIAL :  cpu time   11.6880: real time   11.6987
    CORREC:  cpu time    4.0096: real time    4.0146
    CHARGE:  cpu time    0.3810: real time    0.3814
    --------------------------------------------
      LOOP:  cpu time   16.1351: real time   16.1511

 eigenvalue-minimisations  :     0
 total energy-change (2. order) : 0.4093991E+03  (-0.2954455E+03)
 number of electron     257.9999870 magnetization       5.9999994
 augmentation part       70.7039848 magnetization       4.4041023

 Free energy of the ion-electron system (eV)
  ---------------------------------------------------
  alpha Z        PSCENC =       831.91283728
  Ewald energy   TEWEN  =    -15534.51164977
  -Hartree energ DENC   =     -5552.82127715
  -exchange      EXHF   =         0.00000000
  -V(xc)+E(xc)   XCENC  =       881.35526111
  PAW double counting   =     24169.88240325   -24378.86609789
  entropy T*S    EENTRO =        -0.04208988
  eigenvalues    EBANDS =      -447.91022913
  atomic energy  EATOM  =     20168.87094289
  ---------------------------------------------------
  free energy    TOTEN  =       137.89246321 eV

  energy without entropy =      137.93455310  energy(sigma->0) =      137.91350815


--------------------------------------------------------------------------------------------------------




--------------------------------------- Iteration      1(   7)  ---------------------------------------


    POTLOK:  cpu time    0.0398: real time    0.0398
    SETDIJ:  cpu time    0.0122: real time    0.0122
    TRIAL :  cpu time   11.6341: real time   11.6468
    CORREC:  cpu time    4.0045: real time    4.0129
    CHARGE:  cpu time    0.3791: real time    0.3796
    --------------------------------------------
      LOOP:  cpu time   16.0737: real time   16.0953

 eigenvalue-minimisations  :     0
 total energy-change (2. order) :-0.1061255E+03  (-0.2621007E+03)
 number of electron     257.9999867 magnetization       6.0000005
 augmentation part       74.5472248 magnetization       4.4439422

 Free energy of the ion-electron system (eV)
  ---------------------------------------------------
  alpha Z        PSCENC =       831.91283728
  Ewald energy   TEWEN  =    -15534.51164977
  -Hartree energ DENC   =     -5717.43227831
  -exchange      EXHF   =         0.00000000
  -V(xc)+E(xc)   XCENC  =       871.69787415
  PAW double counting   =     24152.77636386   -24466.19414064
  entropy T*S    EENTRO =        -0.02173706
  eigenvalues    EBANDS =      -275.31088487
  atomic energy  EATOM  =     20168.87094289
  ---------------------------------------------------
  free energy    TOTEN  =        31.76697469 eV

  energy without entropy =       31.78871176  energy(sigma->0) =       31.77784323


--------------------------------------------------------------------------------------------------------




--------------------------------------- Iteration      1(   8)  ---------------------------------------


    POTLOK:  cpu time    0.0417: real time    0.0417
    SETDIJ:  cpu time    0.0123: real time    0.0123
    TRIAL :  cpu time   11.6762: real time   11.7148
    CORREC:  cpu time    4.0101: real time    4.0141
    CHARGE:  cpu time    0.3660: real time    0.3663
    --------------------------------------------
      LOOP:  cpu time   16.1103: real time   16.1533

 eigenvalue-minimisations  :     0
 total energy-change (2. order) :-0.4564934E+02  (-0.3251336E+03)
 number of electron     257.9999898 magnetization       5.9999991
 augmentation part       78.9267543 magnetization       3.5081960

 Free energy of the ion-electron system (eV)
  ---------------------------------------------------
  alpha Z        PSCENC =       831.91283728
  Ewald energy   TEWEN  =    -15534.51164977
  -Hartree energ DENC   =     -5778.92141556
  -exchange      EXHF   =         0.00000000
  -V(xc)+E(xc)   XCENC  =       861.21200176
  PAW double counting   =     24519.99043519   -24999.33534173
  entropy T*S    EENTRO =        -0.02476269
  eigenvalues    EBANDS =       -83.07843719
  atomic energy  EATOM  =     20168.87094289
  ---------------------------------------------------
  free energy    TOTEN  =       -13.88236419 eV

  energy without entropy =      -13.85760150  energy(sigma->0) =      -13.86998284


--------------------------------------------------------------------------------------------------------




--------------------------------------- Iteration      1(   9)  ---------------------------------------


    POTLOK:  cpu time    0.0397: real time    0.0397
    SETDIJ:  cpu time    0.0122: real time    0.0122
    TRIAL :  cpu time   11.7138: real time   11.7250
    CORREC:  cpu time    4.0046: real time    4.0089
    CHARGE:  cpu time    0.3722: real time    0.3906
    --------------------------------------------
      LOOP:  cpu time   16.1466: real time   16.1806

 eigenvalue-minimisations  :     0
 total energy-change (2. order) :-0.4131007E+02  (-0.7353922E+02)
 number of electron     257.9999893 magnetization       5.9999989
 augmentation part       78.1016892 magnetization       3.3440835

 Free energy of the ion-electron system (eV)
  ---------------------------------------------------
  alpha Z        PSCENC =       831.91283728
  Ewald energy   TEWEN  =    -15534.51164977
  -Hartree energ DENC   =     -5845.13768321
  -exchange      EXHF   =         0.00000000
  -V(xc)+E(xc)   XCENC  =       850.89518067
  PAW double counting   =     24656.65699031   -25295.77790981
  entropy T*S    EENTRO =        -0.01462579
  eigenvalues    EBANDS =       111.92362357
  atomic energy  EATOM  =     20168.87094289
  ---------------------------------------------------
  free energy    TOTEN  =       -55.19243078 eV

  energy without entropy =      -55.17780499  energy(sigma->0) =      -55.18511788


--------------------------------------------------------------------------------------------------------




--------------------------------------- Iteration      1(  10)  ---------------------------------------


    POTLOK:  cpu time    0.0396: real time    0.0397
    SETDIJ:  cpu time    0.0123: real time    0.0123
    TRIAL :  cpu time   11.6303: real time   11.6462
    CORREC:  cpu time    4.0549: real time    4.0586
    CHARGE:  cpu time    0.3740: real time    0.3741
    --------------------------------------------
      LOOP:  cpu time   16.1151: real time   16.1349

 eigenvalue-minimisations  :     0
 total energy-change (2. order) :-0.1049906E+03  (-0.2296539E+02)
 number of electron     257.9999890 magnetization       5.9999990
 augmentation part       76.8914071 magnetization       3.4363691

 Free energy of the ion-electron system (eV)
  ---------------------------------------------------
  alpha Z        PSCENC =       831.91283728
  Ewald energy   TEWEN  =    -15534.51164977
  -Hartree energ DENC   =     -5775.82812017
  -exchange      EXHF   =         0.00000000
  -V(xc)+E(xc)   XCENC  =       850.16326859
  PAW double counting   =     24375.49293425   -24975.10586482
  entropy T*S    EENTRO =        -0.02256315
  eigenvalues    EBANDS =      -101.16275882
  atomic energy  EATOM  =     20168.87094289
  ---------------------------------------------------
  free energy    TOTEN  =      -160.18303636 eV

  energy without entropy =     -160.16047321  energy(sigma->0) =     -160.17175478


--------------------------------------------------------------------------------------------------------




--------------------------------------- Iteration      1(  11)  ---------------------------------------


    POTLOK:  cpu time    0.0395: real time    0.0395
    SETDIJ:  cpu time    0.0122: real time    0.0122
    TRIAL :  cpu time   11.6721: real time   11.6881
    CORREC:  cpu time    4.0348: real time    4.0381
    CHARGE:  cpu time    0.3746: real time    0.3749
    --------------------------------------------
      LOOP:  cpu time   16.1374: real time   16.1570

 eigenvalue-minimisations  :     0
 total energy-change (2. order) :-0.1579412E+02  (-0.3085783E+02)
 number of electron     257.9999890 magnetization       5.9999990
 augmentation part       76.4319353 magnetization       3.5093005

 Free energy of the ion-electron system (eV)
  ---------------------------------------------------
  alpha Z        PSCENC =       831.91283728
  Ewald energy   TEWEN  =    -15534.51164977
  -Hartree energ DENC   =     -5772.48480473
  -exchange      EXHF   =         0.00000000
  -V(xc)+E(xc)   XCENC  =       850.86019073
  PAW double counting   =     24111.88782847   -24659.83508969
  entropy T*S    EENTRO =        -0.01915575
  eigenvalues    EBANDS =      -172.65485278
  atomic energy  EATOM  =     20168.87094289
  ---------------------------------------------------
  free energy    TOTEN  =      -175.97716075 eV

  energy without entropy =     -175.95800500  energy(sigma->0) =     -175.96758288


--------------------------------------------------------------------------------------------------------




--------------------------------------- Iteration      1(  12)  ---------------------------------------


    POTLOK:  cpu time    0.0399: real time    0.0399
    SETDIJ:  cpu time    0.0122: real time    0.0122
    TRIAL :  cpu time   11.6529: real time   11.6904
    CORREC:  cpu time    4.0089: real time    4.0124
    CHARGE:  cpu time    0.3789: real time    0.3790
    --------------------------------------------
      LOOP:  cpu time   16.0969: real time   16.1382

 eigenvalue-minimisations  :     0
 total energy-change (2. order) :-0.8740136E+01  (-0.2554421E+02)
 number of electron     257.9999890 magnetization       5.9999990
 augmentation part       76.1803402 magnetization       3.5253394

 Free energy of the ion-electron system (eV)
  ---------------------------------------------------
  alpha Z        PSCENC =       831.91283728
  Ewald energy   TEWEN  =    -15534.51164977
  -Hartree energ DENC   =     -5716.08122991
  -exchange      EXHF   =         0.00000000
  -V(xc)+E(xc)   XCENC  =       852.01277594
  PAW double counting   =     23983.15176386   -24505.53434011
  entropy T*S    EENTRO =        -0.02098199
  eigenvalues    EBANDS =      -264.51924147
  atomic energy  EATOM  =     20168.87094289
  ---------------------------------------------------
  free energy    TOTEN  =      -184.71729705 eV

  energy without entropy =     -184.69631506  energy(sigma->0) =     -184.70680606


--------------------------------------------------------------------------------------------------------




--------------------------------------- Iteration      1(  13)  ---------------------------------------


    POTLOK:  cpu time    0.0399: real time    0.0400
    SETDIJ:  cpu time    0.0122: real time    0.0122
    TRIAL :  cpu time   11.7217: real time   11.7383
    CORREC:  cpu time    3.9864: real time    3.9904
    CHARGE:  cpu time    0.3763: real time    0.3776
    --------------------------------------------
      LOOP:  cpu time   16.1399: real time   16.1619

 eigenvalue-minimisations  :     0
 total energy-change (2. order) :-0.1171224E+02  (-0.1524386E+02)
 number of electron     257.9999890 magnetization       5.9999989
 augmentation part       75.6474410 magnetization       3.6322449

 Free energy of the ion-electron system (eV)
  ---------------------------------------------------
  alpha Z        PSCENC =       831.91283728
  Ewald energy   TEWEN  =    -15534.51164977
  -Hartree energ DENC   =     -5752.87488111
  -exchange      EXHF   =         0.00000000
  -V(xc)+E(xc)   XCENC  =       852.27476361
  PAW double counting   =     23950.60920128   -24460.75056633
  entropy T*S    EENTRO =        -0.01873679
  eigenvalues    EBANDS =      -251.93919925
  atomic energy  EATOM  =     20168.87094289
  ---------------------------------------------------
  free energy    TOTEN  =      -196.42953340 eV

  energy without entropy =     -196.41079661  energy(sigma->0) =     -196.42016501


--------------------------------------------------------------------------------------------------------




--------------------------------------- Iteration      1(  14)  ---------------------------------------


    POTLOK:  cpu time    0.0396: real time    0.0396
    SETDIJ:  cpu time    0.0121: real time    0.0122
    TRIAL :  cpu time   11.6377: real time   11.6625
    CORREC:  cpu time    4.1914: real time    4.1956
    CHARGE:  cpu time    0.3765: real time    0.3766
    --------------------------------------------
      LOOP:  cpu time   16.2613: real time   16.2907

 eigenvalue-minimisations  :     0
 total energy-change (2. order) :-0.1399544E+02  (-0.2586849E+01)
 number of electron     257.9999890 magnetization       5.9999989
 augmentation part       75.6961107 magnetization       3.6436109

 Free energy of the ion-electron system (eV)
  ---------------------------------------------------
  alpha Z        PSCENC =       831.91283728
  Ewald energy   TEWEN  =    -15534.51164977
  -Hartree energ DENC   =     -5737.47505241
  -exchange      EXHF   =         0.00000000
  -V(xc)+E(xc)   XCENC  =       854.15737659
  PAW double counting   =     23970.89528393   -24447.66825187
  entropy T*S    EENTRO =        -0.01994356
  eigenvalues    EBANDS =      -316.58772817
  atomic energy  EATOM  =     20168.87094289
  ---------------------------------------------------
  free energy    TOTEN  =      -210.42497832 eV

  energy without entropy =     -210.40503476  energy(sigma->0) =     -210.41500654


--------------------------------------------------------------------------------------------------------




--------------------------------------- Iteration      1(  15)  ---------------------------------------


    POTLOK:  cpu time    0.0397: real time    0.0397
    SETDIJ:  cpu time    0.0122: real time    0.0122
    TRIAL :  cpu time   11.5173: real time   11.5325
    CORREC:  cpu time    4.1594: real time    4.1809
    CHARGE:  cpu time    0.3773: real time    0.3774
    --------------------------------------------
      LOOP:  cpu time   16.1101: real time   16.1469

 eigenvalue-minimisations  :     0
 total energy-change (2. order) :-0.2557118E+01  (-0.3087852E+01)
 number of electron     257.9999892 magnetization       5.9999989
 augmentation part       76.0889457 magnetization       3.6540331

 Free energy of the ion-electron system (eV)
  ---------------------------------------------------
  alpha Z        PSCENC =       831.91283728
  Ewald energy   TEWEN  =    -15534.51164977
  -Hartree energ DENC   =     -5759.29642797
  -exchange      EXHF   =         0.00000000
  -V(xc)+E(xc)   XCENC  =       854.41204378
  PAW double counting   =     24020.34980733   -24496.02206171
  entropy T*S    EENTRO =        -0.01843445
  eigenvalues    EBANDS =      -298.67764474
  atomic energy  EATOM  =     20168.87094289
  ---------------------------------------------------
  free energy    TOTEN  =      -212.98209647 eV

  energy without entropy =     -212.96366203  energy(sigma->0) =     -212.97287925


--------------------------------------------------------------------------------------------------------




--------------------------------------- Iteration      1(  16)  ---------------------------------------


    POTLOK:  cpu time    0.0395: real time    0.0396
    SETDIJ:  cpu time    0.0123: real time    0.0123
    TRIAL :  cpu time   11.5368: real time   11.5482
    CORREC:  cpu time    4.2008: real time    4.2045
    CHARGE:  cpu time    0.3743: real time    0.3745
    --------------------------------------------
      LOOP:  cpu time   16.1677: real time   16.1831

 eigenvalue-minimisations  :     0
 total energy-change (2. order) :-0.3082847E+01  (-0.1138849E+01)
 number of electron     257.9999892 magnetization       5.9999989
 augmentation part       76.1381935 magnetization       3.6621463

 Free energy of the ion-electron system (eV)
  ---------------------------------------------------
  alpha Z        PSCENC =       831.91283728
  Ewald energy   TEWEN  =    -15534.51164977
  -Hartree energ DENC   =     -5790.77096866
  -exchange      EXHF   =         0.00000000
  -V(xc)+E(xc)   XCENC  =       855.21484369
  PAW double counting   =     24240.34306962   -24720.92478057
  entropy T*S    EENTRO =        -0.01891880
  eigenvalues    EBANDS =      -266.18080384
  atomic energy  EATOM  =     20168.87094289
  ---------------------------------------------------
  free energy    TOTEN  =      -216.06494380 eV

  energy without entropy =     -216.04602500  energy(sigma->0) =     -216.05548440


--------------------------------------------------------------------------------------------------------




--------------------------------------- Iteration      1(  17)  ---------------------------------------


    POTLOK:  cpu time    0.0396: real time    0.0397
    SETDIJ:  cpu time    0.0122: real time    0.0122
    TRIAL :  cpu time   11.5408: real time   11.5534
    CORREC:  cpu time    4.1264: real time    4.1317
    CHARGE:  cpu time    0.3729: real time    0.3735
    --------------------------------------------
      LOOP:  cpu time   16.0967: real time   16.1152

 eigenvalue-minimisations  :     0
 total energy-change (2. order) :-0.9951932E+00  (-0.6215124E+00)
 number of electron     257.9999892 magnetization       5.9999989
 augmentation part       76.0101603 magnetization       3.6708906

 Free energy of the ion-electron system (eV)
  ---------------------------------------------------
  alpha Z        PSCENC =       831.91283728
  Ewald energy   TEWEN  =    -15534.51164977
  -Hartree energ DENC   =     -5806.95620113
  -exchange      EXHF   =         0.00000000
  -V(xc)+E(xc)   XCENC  =       855.41670668
  PAW double counting   =     24322.62202999   -24800.54288350
  entropy T*S    EENTRO =        -0.01852849
  eigenvalues    EBANDS =      -253.85300059
  atomic energy  EATOM  =     20168.87094289
  ---------------------------------------------------
  free energy    TOTEN  =      -217.06013697 eV

  energy without entropy =     -217.04160848  energy(sigma->0) =     -217.05087272


--------------------------------------------------------------------------------------------------------




--------------------------------------- Iteration      1(  18)  ---------------------------------------


    POTLOK:  cpu time    0.0398: real time    0.0398
    SETDIJ:  cpu time    0.0123: real time    0.0122
    TRIAL :  cpu time   11.6248: real time   11.6412
    CORREC:  cpu time    3.9952: real time    4.0036
    CHARGE:  cpu time    0.3724: real time    0.3730
    --------------------------------------------
      LOOP:  cpu time   16.0485: real time   16.0739

 eigenvalue-minimisations  :     0
 total energy-change (2. order) :-0.5859705E+00  (-0.2749117E+00)
 number of electron     257.9999892 magnetization       5.9999989
 augmentation part       75.9425693 magnetization       3.6731464

 Free energy of the ion-electron system (eV)
  ---------------------------------------------------
  alpha Z        PSCENC =       831.91283728
  Ewald energy   TEWEN  =    -15534.51164977
  -Hartree energ DENC   =     -5796.55213855
  -exchange      EXHF   =         0.00000000
  -V(xc)+E(xc)   XCENC  =       855.53511343
  PAW double counting   =     24338.36791246   -24806.89428559
  entropy T*S    EENTRO =        -0.01814748
  eigenvalues    EBANDS =      -274.35631109
  atomic energy  EATOM  =     20168.87094289
  ---------------------------------------------------
  free energy    TOTEN  =      -217.64610744 eV

  energy without entropy =     -217.62795996  energy(sigma->0) =     -217.63703370


--------------------------------------------------------------------------------------------------------




--------------------------------------- Iteration      1(  19)  ---------------------------------------


    POTLOK:  cpu time    0.0436: real time    0.0437
    SETDIJ:  cpu time    0.0123: real time    0.0123
    TRIAL :  cpu time   11.6571: real time   11.6738
    CORREC:  cpu time    3.9946: real time    4.0003
    CHARGE:  cpu time    0.3722: real time    0.3728
    --------------------------------------------
      LOOP:  cpu time   16.0838: real time   16.1069

 eigenvalue-minimisations  :     0
 total energy-change (2. order) :-0.2536078E+00  (-0.2669565E+00)
 number of electron     257.9999892 magnetization       5.9999989
 augmentation part       75.9886420 magnetization       3.6492692

 Free energy of the ion-electron system (eV)
  ---------------------------------------------------
  alpha Z        PSCENC =       831.91283728
  Ewald energy   TEWEN  =    -15534.51164977
  -Hartree energ DENC   =     -5795.60459296
  -exchange      EXHF   =         0.00000000
  -V(xc)+E(xc)   XCENC  =       855.57548912
  PAW double counting   =     24324.96010753   -24788.56296621
  entropy T*S    EENTRO =        -0.01739801
  eigenvalues    EBANDS =      -280.52173559
  atomic energy  EATOM  =     20168.87094289
  ---------------------------------------------------
  free energy    TOTEN  =      -217.89971520 eV

  energy without entropy =     -217.88231720  energy(sigma->0) =     -217.89101620


--------------------------------------------------------------------------------------------------------




--------------------------------------- Iteration      1(  20)  ---------------------------------------


    POTLOK:  cpu time    0.0399: real time    0.0399
    SETDIJ:  cpu time    0.0123: real time    0.0123
    TRIAL :  cpu time   11.6030: real time   11.6192
    CORREC:  cpu time    3.9963: real time    4.0010
    CHARGE:  cpu time    0.3688: real time    0.3691
    --------------------------------------------
      LOOP:  cpu time   16.0244: real time   16.0456

 eigenvalue-minimisations  :     0
 total energy-change (2. order) :-0.2673664E+00  (-0.2255392E+00)
 number of electron     257.9999892 magnetization       5.9999988
 augmentation part       76.0918875 magnetization       3.6195387

 Free energy of the ion-electron system (eV)
  ---------------------------------------------------
  alpha Z        PSCENC =       831.91283728
  Ewald energy   TEWEN  =    -15534.51164977
  -Hartree energ DENC   =     -5791.54086113
  -exchange      EXHF   =         0.00000000
  -V(xc)+E(xc)   XCENC  =       855.68983944
  PAW double counting   =     24294.11266894   -24756.10817688
  entropy T*S    EENTRO =        -0.01744372
  eigenvalues    EBANDS =      -286.57528434
  atomic energy  EATOM  =     20168.87094289
  ---------------------------------------------------
  free energy    TOTEN  =      -218.16708158 eV

  energy without entropy =     -218.14963786  energy(sigma->0) =     -218.15835972


--------------------------------------------------------------------------------------------------------




--------------------------------------- Iteration      1(  21)  ---------------------------------------


    POTLOK:  cpu time    0.0398: real time    0.0398
    SETDIJ:  cpu time    0.0123: real time    0.0123
    TRIAL :  cpu time   11.6081: real time   11.6304
    CORREC:  cpu time    3.9853: real time    3.9914
    CHARGE:  cpu time    0.3658: real time    0.3662
    --------------------------------------------
      LOOP:  cpu time   16.0155: real time   16.0443

 eigenvalue-minimisations  :     0
 total energy-change (2. order) :-0.2236974E+00  (-0.8289000E-01)
 number of electron     257.9999892 magnetization       5.9999988
 augmentation part       76.1523603 magnetization       3.6027678

 Free energy of the ion-electron system (eV)
  ---------------------------------------------------
  alpha Z        PSCENC =       831.91283728
  Ewald energy   TEWEN  =    -15534.51164977
  -Hartree energ DENC   =     -5797.35312932
  -exchange      EXHF   =         0.00000000
  -V(xc)+E(xc)   XCENC  =       855.80800796
  PAW double counting   =     24265.41135913   -24728.65976630
  entropy T*S    EENTRO =        -0.01638766
  eigenvalues    EBANDS =      -279.85193712
  atomic energy  EATOM  =     20168.87094289
  ---------------------------------------------------
  free energy    TOTEN  =      -218.39077897 eV

  energy without entropy =     -218.37439131  energy(sigma->0) =     -218.38258514


--------------------------------------------------------------------------------------------------------




--------------------------------------- Iteration      1(  22)  ---------------------------------------


    POTLOK:  cpu time    0.0399: real time    0.0400
    SETDIJ:  cpu time    0.0123: real time    0.0123
    TRIAL :  cpu time   11.7046: real time   11.7252
    CORREC:  cpu time    3.9918: real time    4.0048
    CHARGE:  cpu time    0.3650: real time    0.3654
    --------------------------------------------
      LOOP:  cpu time   16.1178: real time   16.1519

 eigenvalue-minimisations  :     0
 total energy-change (2. order) :-0.7841999E-01  (-0.8874689E-01)
 number of electron     257.9999892 magnetization       5.9999988
 augmentation part       76.1748081 magnetization       3.5907744

 Free energy of the ion-electron system (eV)
  ---------------------------------------------------
  alpha Z        PSCENC =       831.91283728
  Ewald energy   TEWEN  =    -15534.51164977
  -Hartree energ DENC   =     -5798.31890105
  -exchange      EXHF   =         0.00000000
  -V(xc)+E(xc)   XCENC  =       855.90517913
  PAW double counting   =     24251.78797059   -24716.60165625
  entropy T*S    EENTRO =        -0.01617602
  eigenvalues    EBANDS =      -277.49753411
  atomic energy  EATOM  =     20168.87094289
  ---------------------------------------------------
  free energy    TOTEN  =      -218.46919896 eV

  energy without entropy =     -218.45302294  energy(sigma->0) =     -218.46111095


--------------------------------------------------------------------------------------------------------




--------------------------------------- Iteration      1(  23)  ---------------------------------------


    POTLOK:  cpu time    0.0395: real time    0.0395
    SETDIJ:  cpu time    0.0123: real time    0.0123
    TRIAL :  cpu time   11.6665: real time   11.7162
    CORREC:  cpu time    4.0087: real time    4.0127
    CHARGE:  cpu time    0.3645: real time    0.3646
    --------------------------------------------
      LOOP:  cpu time   16.0957: real time   16.1496

 eigenvalue-minimisations  :     0
 total energy-change (2. order) :-0.8867658E-01  (-0.1211144E+00)
 number of electron     257.9999892 magnetization       5.9999988
 augmentation part       76.1393330 magnetization       3.5832331

 Free energy of the ion-electron system (eV)
  ---------------------------------------------------
  alpha Z        PSCENC =       831.91283728
  Ewald energy   TEWEN  =    -15534.51164977
  -Hartree energ DENC   =     -5802.54612453
  -exchange      EXHF   =         0.00000000
  -V(xc)+E(xc)   XCENC  =       856.01490698
  PAW double counting   =     24226.07891274   -24691.73443452
  entropy T*S    EENTRO =        -0.01525159
  eigenvalues    EBANDS =      -272.62709059
  atomic energy  EATOM  =     20168.87094289
  ---------------------------------------------------
  free energy    TOTEN  =      -218.55787553 eV

  energy without entropy =     -218.54262395  energy(sigma->0) =     -218.55024974


--------------------------------------------------------------------------------------------------------




--------------------------------------- Iteration      1(  24)  ---------------------------------------


    POTLOK:  cpu time    0.0395: real time    0.0395
    SETDIJ:  cpu time    0.0123: real time    0.0123
    TRIAL :  cpu time   11.6900: real time   11.7114
    CORREC:  cpu time    4.0021: real time    4.0068
    CHARGE:  cpu time    0.3641: real time    0.3644
    --------------------------------------------
      LOOP:  cpu time   16.1122: real time   16.1385

 eigenvalue-minimisations  :     0
 total energy-change (2. order) :-0.1225927E+00  (-0.5622509E-01)
 number of electron     257.9999891 magnetization       5.9999988
 augmentation part       76.0841562 magnetization       3.6022257

 Free energy of the ion-electron system (eV)
  ---------------------------------------------------
  alpha Z        PSCENC =       831.91283728
  Ewald energy   TEWEN  =    -15534.51164977
  -Hartree energ DENC   =     -5800.61185168
  -exchange      EXHF   =         0.00000000
  -V(xc)+E(xc)   XCENC  =       856.10742010
  PAW double counting   =     24184.64287872   -24649.74944129
  entropy T*S    EENTRO =        -0.01473643
  eigenvalues    EBANDS =      -275.32635289
  atomic energy  EATOM  =     20168.87094289
  ---------------------------------------------------
  free energy    TOTEN  =      -218.68046823 eV

  energy without entropy =     -218.66573181  energy(sigma->0) =     -218.67310002


--------------------------------------------------------------------------------------------------------




--------------------------------------- Iteration      1(  25)  ---------------------------------------


    POTLOK:  cpu time    0.0396: real time    0.0396
    SETDIJ:  cpu time    0.0122: real time    0.0122
    TRIAL :  cpu time   11.6462: real time   11.6737
    CORREC:  cpu time    4.0012: real time    4.0056
    CHARGE:  cpu time    0.3643: real time    0.3646
    --------------------------------------------
      LOOP:  cpu time   16.0677: real time   16.0999

 eigenvalue-minimisations  :     0
[...]
   20        1.580   3.372   0.000   4.952
   21        1.584   3.390   0.000   4.975
   22        1.578   3.375   0.000   4.953
   23        1.580   3.389   0.000   4.968
   24        1.577   3.437   0.000   5.015
   25        1.589   3.394   0.000   4.983
   26        1.591   3.330   0.000   4.921
   27        1.555   3.509   0.000   5.064
   28        1.562   3.446   0.000   5.007
   29        1.561   3.521   0.000   5.082
   30        1.563   3.504   0.000   5.067
   31        1.587   3.367   0.000   4.953
   32        1.580   3.376   0.000   4.956
   33        1.578   3.453   0.000   5.031
   34        1.583   3.376   0.000   4.959
   35        1.582   3.416   0.000   4.998
   36        1.574   3.461   0.000   5.035
   37        1.575   3.385   0.000   4.960
   38        1.579   3.387   0.000   4.966
   39        1.551   3.541   0.000   5.091
   40        1.559   3.468   0.000   5.027
   41        1.555   3.522   0.000   5.077
   42        1.557   3.484   0.000   5.040
--------------------------------------------------
tot         43.977  92.774  88.027 224.778
 


 magnetization (x)
 
# of ion       s       p       d       tot
------------------------------------------
    1        0.000  -0.001   0.000  -0.001
    2        0.000  -0.003   0.000  -0.003
    3        0.000  -0.000   0.000   0.000
    4        0.001   0.000   0.000   0.001
    5        0.000  -0.002   0.000  -0.001
    6        0.000  -0.001   0.000  -0.000
    7        0.011   0.013   1.273   1.297
    8        0.007   0.010  -0.003   0.014
    9        0.014   0.017   1.417   1.449
   10        0.012   0.018   1.254   1.284
   11        0.013   0.009   1.525   1.547
   12        0.010   0.012   1.199   1.221
   13        0.003   0.004  -0.017  -0.010
   14        0.004   0.006   0.010   0.020
   15        0.002   0.002  -0.012  -0.009
   16        0.007   0.008   1.180   1.195
   17        0.003   0.003  -0.010  -0.004
   18        0.001   0.001  -0.013  -0.011
   19        0.001  -0.068   0.000  -0.067
   20        0.000  -0.137   0.000  -0.137
   21        0.002  -0.076   0.000  -0.074
   22        0.000  -0.173   0.000  -0.173
   23        0.001  -0.133   0.000  -0.132
   24        0.001  -0.070   0.000  -0.069
   25        0.002  -0.158   0.000  -0.156
   26        0.001  -0.142   0.000  -0.141
   27        0.001  -0.018   0.000  -0.018
   28        0.001  -0.026   0.000  -0.025
   29        0.002  -0.041   0.000  -0.039
   30        0.001  -0.043   0.000  -0.042
   31        0.001  -0.124   0.000  -0.123
   32        0.001  -0.165   0.000  -0.164
   33        0.001  -0.044   0.000  -0.043
   34        0.001  -0.087   0.000  -0.086
   35        0.001  -0.047   0.000  -0.046
   36       -0.000  -0.063   0.000  -0.063
   37       -0.002  -0.022   0.000  -0.024
   38       -0.000  -0.073   0.000  -0.074
   39       -0.001  -0.007   0.000  -0.007
   40        0.001  -0.023   0.000  -0.022
   41        0.000  -0.005   0.000  -0.004
   42       -0.000  -0.028   0.000  -0.028
--------------------------------------------------
tot          0.101  -1.673   7.802   6.231
 
    FORLOC:  cpu time    0.0048: real time    0.0048
    FORNL :  cpu time    3.6796: real time    3.6886
    STRESS:  cpu time   10.9764: real time   11.0226
    FORCOR:  cpu time    0.0419: real time    0.0419
    OFIELD:  cpu time    0.0003: real time    0.0003

  DFT-D2 method for vdW energy calculation
  -------------------------------------------------------------------

  Parameters of vdW forcefield:
         C6(Jnm^6/mol)     R0(A)
   -----------------------------
   Li       1.610          0.825
   Co      10.800          1.562
   O        0.700          1.342

  IVDW =   1
  VDW_RADIUS =    50.000 A
  VDW_S6 =     0.750
  VDW_SR =     1.000
  VDW_D =    20.000
  LVDW_EWALD = F

  Number of pair interactions contributing to vdW energy: 1340527
  Edisp (eV):  -11.06318
    FORVDW:  cpu time    0.1860: real time    0.1927

  FORCE on cell =-STRESS in cart. coord.  units (eV):
  Direction    XX          YY          ZZ          XY          YZ          ZX
  --------------------------------------------------------------------------------------
  Alpha Z   831.91284   831.91284   831.91284
  Ewald   -3189.96101 -3052.10665 -9292.51441    88.54196   -54.63039    72.07589
  Hartree  3341.81174  3402.84753  -955.14244    20.33099   -18.53010    27.89302
  E(xc)   -1289.98633 -1289.65017 -1290.14811    -0.04049    -0.14077    -0.15722
  Local   -5199.70914 -5375.69960  5170.54708  -100.20308    66.06508   -95.46110
  n-local  -590.01113  -584.04881  -595.12123     3.66757    -1.99365     3.99207
  augment  2027.31924  2012.70301  2000.59307    -3.02718     3.97400    -1.19011
  Kinetic  4090.88023  4081.19268  4161.00153    -9.01227     3.64863     3.43108
  Fock        0.00000     0.00000     0.00000     0.00000     0.00000     0.00000
  vdW        -7.27097    -8.17804   -15.21244    -0.00609     0.22272     0.32798
  -------------------------------------------------------------------------------------
  Total      14.98546    18.97279    15.91589     0.25142    -1.38448    10.91161
  in kB      68.13086    86.25909    72.36101     1.14306    -6.29449    49.60925
  external pressure =       75.58 kB  Pullay stress =        0.00 kB


 VOLUME and BASIS-vectors are now :
 -----------------------------------------------------------------------------
  energy-cutoff  :      600.00
  volume of cell :      352.40
      direct lattice vectors                 reciprocal lattice vectors
     5.602703571  0.000000000  0.000000000     0.178485259  0.102545329  0.009050925
    -2.768760204  4.819165230  0.000000000     0.000000000  0.207504817 -0.001514046
    -0.716560781  0.095230974 13.051710129     0.000000000  0.000000000  0.076618312

  length of vectors
     5.602703571  5.557912070 13.071712419     0.206044780  0.207510341  0.076618312


 FORCES acting on ions:
    Electron-Ion                     Ewald-Force                    Non-Local-Force
 -----------------------------------------------------------------------------------------------
   -.357E+01 -.134E+01 -.804E+01   0.295E+01 0.130E+01 0.721E+01   0.204E+01 0.899E+00 0.230E+01
   0.206E+01 -.617E+01 -.655E+01   -.210E+01 0.570E+01 0.610E+01   -.564E-01 0.112E+01 0.230E+00
   -.200E+01 -.511E+01 0.122E+02   0.175E+01 0.517E+01 -.116E+02   0.298E+00 0.164E+01 -.103E+01
   0.704E+01 0.685E+01 -.322E+00   -.643E+01 -.675E+01 0.415E+00   -.588E+00 -.164E+01 0.463E+00
   0.100E+01 -.757E+01 0.100E+02   -.104E+01 0.733E+01 -.945E+01   -.104E+00 0.872E+00 -.764E+00
   0.897E+00 0.166E+01 0.129E+02   -.801E+00 -.197E+01 -.120E+02   -.117E+01 -.313E+00 -.148E+01
   -.391E+02 -.317E+02 -.132E+03   0.399E+02 0.322E+02 0.133E+03   -.178E-01 0.170E-01 0.585E+00
   -.212E+02 0.272E+01 -.715E+02   0.213E+02 -.282E+01 0.711E+02   0.130E+00 0.155E+00 0.298E+00
   0.175E+02 -.191E+02 -.273E+02   -.184E+02 0.210E+02 0.278E+02   0.602E+00 0.803E-01 -.868E+00
   0.293E+02 0.526E+02 -.263E+02   -.283E+02 -.554E+02 0.273E+02   0.149E+00 -.994E-01 -.537E-02
   -.544E+02 -.106E+02 -.116E+02   0.561E+02 0.107E+02 0.963E+01   0.442E+00 -.408E+00 0.201E+01
   -.492E+02 -.250E+02 -.613E+02   0.520E+02 0.265E+02 0.603E+02   -.588E-01 -.699E-01 0.599E+00
   0.178E+02 0.310E+02 -.263E+02   -.187E+02 -.330E+02 0.228E+02   0.437E+00 0.203E+00 -.359E-01
   0.640E+02 0.113E+02 -.413E+02   -.662E+02 -.112E+02 0.394E+02   -.393E+00 -.653E-01 0.161E+01
   -.159E+02 0.703E+01 0.107E+03   0.165E+02 -.619E+01 -.104E+03   0.884E+00 -.215E+00 -.207E+01
   -.116E+02 -.255E+02 0.106E+03   0.118E+02 0.256E+02 -.105E+03   0.844E+00 0.380E+00 -.234E+00
   0.469E+01 -.247E+02 0.887E+02   -.454E+01 0.259E+02 -.858E+02   0.200E+00 0.216E+00 -.246E+01
   -.295E+02 0.938E+01 0.748E+02   0.299E+02 -.962E+01 -.717E+02   0.867E+00 0.199E+00 -.310E+01
   -.186E+02 -.207E+01 -.327E+03   0.185E+02 0.237E+01 0.350E+03   0.449E+00 -.271E+00 -.218E+02
   -.779E+01 -.177E+01 -.286E+03   0.102E+02 -.313E+00 0.307E+03   -.248E+01 0.169E+01 -.235E+02
   0.274E+02 0.131E+02 -.320E+03   -.289E+02 -.155E+02 0.346E+03   0.103E+01 0.201E+01 -.261E+02
   0.245E+02 0.146E+02 -.291E+03   -.283E+02 -.153E+02 0.311E+03   0.267E+01 0.273E-01 -.210E+02
   -.145E+02 -.115E+02 0.224E+03   0.117E+02 0.130E+02 -.246E+03   0.372E+01 -.133E+01 0.231E+02
   0.149E+01 -.645E+01 0.228E+03   -.269E+01 0.528E+01 -.253E+03   0.134E+01 0.281E+01 0.232E+02
   0.918E+01 -.363E+02 0.239E+03   -.610E+01 0.411E+02 -.265E+03   -.451E+01 -.378E+01 0.262E+02
   -.910E+01 0.213E+02 0.219E+03   0.978E+01 -.221E+02 -.243E+03   -.569E+00 0.200E+00 0.264E+02
   0.382E+02 -.273E+02 -.276E+03   -.404E+02 0.299E+02 0.288E+03   0.127E+01 -.557E+00 -.124E+02
   -.235E+02 0.300E+02 -.275E+03   0.248E+02 -.328E+02 0.292E+03   -.546E+00 0.210E+01 -.169E+02
   -.349E+02 0.714E+01 -.317E+03   0.374E+02 -.781E+01 0.333E+03   -.127E+01 0.836E+00 -.139E+02
   0.863E+01 -.256E+02 -.314E+03   -.810E+01 0.283E+02 0.331E+03   -.238E+00 -.189E+01 -.148E+02
   -.342E+02 -.120E+02 0.238E+03   0.350E+02 0.150E+02 -.264E+03   -.827E+00 -.321E+01 0.270E+02
   -.873E+01 -.314E+02 0.244E+03   0.129E+02 0.350E+02 -.266E+03   -.530E+01 -.336E+01 0.221E+02
   0.337E+02 0.303E+02 0.260E+03   -.355E+02 -.380E+02 -.283E+03   0.857E+00 0.706E+01 0.232E+02
   0.358E+02 0.253E+02 0.248E+03   -.434E+02 -.255E+02 -.273E+03   0.686E+01 -.980E+00 0.254E+02
   0.544E+01 0.221E+02 -.218E+03   -.636E+01 -.245E+02 0.245E+03   0.599E+00 0.112E+01 -.258E+02
   0.200E+02 0.410E+01 -.189E+03   -.248E+02 -.708E+01 0.209E+03   0.335E+01 0.242E+01 -.209E+02
   0.274E+01 -.284E+01 -.176E+03   -.239E+01 0.448E+01 0.198E+03   -.484E+00 -.195E+01 -.240E+02
   -.106E+02 0.135E+02 -.187E+03   0.130E+02 -.152E+02 0.210E+03   -.240E+01 0.704E+00 -.247E+02
   -.649E+01 0.196E+02 0.314E+03   0.603E+01 -.217E+02 -.323E+03   0.101E+01 0.181E+01 0.933E+01
   0.559E+02 -.220E+01 0.320E+03   -.593E+02 0.284E+01 -.335E+03   0.128E+01 -.694E+00 0.140E+02
   0.487E+01 -.209E+02 0.318E+03   -.449E+01 0.210E+02 -.331E+03   -.719E+00 0.195E-01 0.129E+02
   -.258E+02 0.674E+01 0.328E+03   0.256E+02 -.693E+01 -.343E+03   -.714E-01 -.230E+00 0.151E+02
 -----------------------------------------------------------------------------------------------
   -.952E+01 -.748E+01 0.170E+01   -.675E-13 0.156E-12 -.682E-12   0.950E+01 0.752E+01 -.172E+01
 
 
 POSITION                                       TOTAL-FORCE (eV/Angst)
 -----------------------------------------------------------------------------------
     -0.90340      4.81598     13.04845         1.115613      0.669981      1.233915
      2.69986      3.12280      4.27732        -0.220199      0.482886     -0.276099
     -0.44335      1.42312      8.79034        -0.006098      1.280317     -0.284963
     -1.80443      4.34637      8.71724         0.046269     -1.090155      0.489513
      2.43000      1.60965      8.84275        -0.164047      0.492779     -0.112790
      1.15736      4.10262      8.79012        -0.820938     -0.404621     -0.306539
     -0.13118      1.45255      2.18477         0.670310      0.460688      0.916885
     -1.54813      3.84650      2.13176         0.143976      0.069734     -0.118318
      2.69425      1.45468      2.10300        -0.271713      1.754576     -0.115372
      1.26477      3.93373      2.03347         1.131556     -2.602288      1.037193
     -0.39822      0.20922      6.34249         1.875394     -0.396486      0.067843
     -1.76423      2.55717      6.45810         2.448473      1.278564     -0.214776
      2.44534      0.17517      6.53393        -0.385389     -1.667879     -2.897363
      1.10182      2.57097      6.43026        -2.190998      0.173378     -0.174530
      0.79130      0.91136     10.98868         1.358342      0.633802      0.083015
     -0.54611      3.34436     10.97338         0.844246      0.332938      0.412721
      3.61347      0.90805     11.03478         0.289038      1.218609      0.324624
      2.19746      3.31604     11.11398         1.090007     -0.050032     -0.108208
      2.63115      4.66100      3.01256         0.376746      0.128077      0.905836
      4.06413      2.26513      3.23635        -0.013945     -0.417271     -1.979713
     -0.07694      4.72058      3.02065        -0.496395     -0.462841      0.381899
      1.39438      2.36079      3.14937        -1.224237     -0.788212     -1.322112
      1.19500      0.65766      1.14883         0.898340      0.215872      0.643779
     -0.14372      2.95913      1.26794         0.147287      1.612017     -1.036440
      4.17936      0.66223      1.14220        -1.369647      1.059729     -0.175114
      2.66044      3.09682      1.05995         0.124100     -0.598576      1.810283
      1.04608      0.85022      7.50583        -0.968823      1.944478     -0.311122
     -0.40208      3.39604      7.52389         0.772665     -0.846290     -0.448611
      3.78736      0.97916      7.39097         1.247596      0.134921      2.196340
      2.44758      3.37282      7.31499         0.291632      0.675443      2.067289
     -0.34408      1.82828      5.47443        -0.012391     -0.269234      0.547592
     -1.62157      4.12833      5.46879        -1.065210      0.337264      0.411537
      2.52502      1.78603      5.53274        -0.983573     -0.623431     -0.410995
      1.11390      4.27208      5.44131        -0.707445     -1.178564      0.289040
     -0.54777      1.82127     11.83658        -0.334895     -1.266488      1.387802
     -1.91938      4.10865     11.97078        -1.477964     -0.561461     -1.590630
      2.20855      1.70023     12.08948        -0.119055     -0.202455     -1.984965
      0.77045      4.20573     12.08428         0.136527     -1.052081     -1.607912
      5.00482      0.07664      9.95628         0.505698     -0.276791      0.567047
     -1.79085      2.51426      9.94948        -2.120410      0.013659     -0.507097
      2.26400      0.10911      9.97018        -0.340951      0.190527      0.011286
      0.90597      2.56142      9.96548        -0.219492     -0.405084      0.198233
 -----------------------------------------------------------------------------------
    total drift:                               -0.021655      0.040941     -0.018267


--------------------------------------------------------------------------------------------------------



  FREE ENERGIE OF THE ION-ELECTRON SYSTEM (eV)
  ---------------------------------------------------
  free  energy   TOTEN  =      -232.07992568 eV

  energy  without entropy=     -232.07366961  energy(sigma->0) =     -232.07679765
 


--------------------------------------------------------------------------------------------------------


    POTLOK:  cpu time    0.0543: real time    0.0544


--------------------------------------------------------------------------------------------------------


     LOOP+:  cpu time 2369.6905: real time 2372.9002
    4ORBIT:  cpu time    0.0000: real time    0.0000
 


 total charge     
 
# of ion       s       p       d       tot
------------------------------------------
    1        0.143   0.336   0.000   0.479
    2        0.123   0.277   0.000   0.399
    3        0.117   0.259   0.000   0.375
    4        0.121   0.271   0.000   0.392
    5        0.104   0.224   0.000   0.328
    6        0.116   0.254   0.000   0.370
    7        0.478   0.790   7.251   8.518
    8        0.442   0.698   7.406   8.546
    9        0.452   0.709   7.218   8.379
   10        0.493   0.815   7.293   8.601
   11        0.465   0.726   7.279   8.469
   12        0.502   0.841   7.321   8.664
   13        0.464   0.760   7.448   8.672
   14        0.429   0.662   7.384   8.476
   15        0.435   0.673   7.401   8.508
   16        0.494   0.822   7.317   8.633
   17        0.436   0.683   7.403   8.522
   18        0.410   0.618   7.308   8.336
   19        1.575   3.456   0.000   5.031
   20        1.580   3.372   0.000   4.952
   21        1.584   3.390   0.000   4.975
   22        1.578   3.375   0.000   4.953
   23        1.580   3.389   0.000   4.968
   24        1.577   3.437   0.000   5.015
   25        1.589   3.394   0.000   4.983
   26        1.591   3.330   0.000   4.921
   27        1.555   3.509   0.000   5.064
   28        1.562   3.446   0.000   5.007
   29        1.561   3.521   0.000   5.082
   30        1.563   3.504   0.000   5.067
   31        1.587   3.367   0.000   4.953
   32        1.580   3.376   0.000   4.956
   33        1.578   3.453   0.000   5.031
   34        1.583   3.376   0.000   4.959
   35        1.582   3.416   0.000   4.998
   36        1.574   3.461   0.000   5.035
   37        1.575   3.385   0.000   4.960
   38        1.579   3.387   0.000   4.966
   39        1.551   3.541   0.000   5.091
   40        1.559   3.468   0.000   5.027
   41        1.555   3.522   0.000   5.077
   42        1.557   3.484   0.000   5.040
--------------------------------------------------
tot         43.977  92.774  88.027 224.778
 


 magnetization (x)
 
# of ion       s       p       d       tot
------------------------------------------
    1        0.000  -0.001   0.000  -0.001
    2        0.000  -0.003   0.000  -0.003
    3        0.000  -0.000   0.000   0.000
    4        0.001   0.000   0.000   0.001
    5        0.000  -0.002   0.000  -0.001
    6        0.000  -0.001   0.000  -0.000
    7        0.011   0.013   1.273   1.297
    8        0.007   0.010  -0.003   0.014
    9        0.014   0.017   1.417   1.449
   10        0.012   0.018   1.254   1.284
   11        0.013   0.009   1.525   1.547
   12        0.010   0.012   1.199   1.221
   13        0.003   0.004  -0.017  -0.010
   14        0.004   0.006   0.010   0.020
   15        0.002   0.002  -0.012  -0.009
   16        0.007   0.008   1.180   1.195
   17        0.003   0.003  -0.010  -0.004
   18        0.001   0.001  -0.013  -0.011
   19        0.001  -0.068   0.000  -0.067
   20        0.000  -0.137   0.000  -0.137
   21        0.002  -0.076   0.000  -0.074
   22        0.000  -0.173   0.000  -0.173
   23        0.001  -0.133   0.000  -0.132
   24        0.001  -0.070   0.000  -0.069
   25        0.002  -0.158   0.000  -0.156
   26        0.001  -0.142   0.000  -0.141
   27        0.001  -0.018   0.000  -0.018
   28        0.001  -0.026   0.000  -0.025
   29        0.002  -0.041   0.000  -0.039
   30        0.001  -0.043   0.000  -0.042
   31        0.001  -0.124   0.000  -0.123
   32        0.001  -0.165   0.000  -0.164
   33        0.001  -0.044   0.000  -0.043
   34        0.001  -0.087   0.000  -0.086
   35        0.001  -0.047   0.000  -0.046
   36       -0.000  -0.063   0.000  -0.063
   37       -0.002  -0.022   0.000  -0.024
   38       -0.000  -0.073   0.000  -0.074
   39       -0.001  -0.007   0.000  -0.007
   40        0.001  -0.023   0.000  -0.022
   41        0.000  -0.005   0.000  -0.004
   42       -0.000  -0.028   0.000  -0.028
--------------------------------------------------
tot          0.101  -1.673   7.802   6.231
 

 total amount of memory used by VASP MPI-rank0   146422. kBytes
=======================================================================

   base      :      30000. kBytes
   nonlr-proj:       4278. kBytes
   fftplans  :       1503. kBytes
   grid      :       4132. kBytes
   one-center:        342. kBytes
   wavefun   :     106167. kBytes
 
  
  
 General timing and accounting informations for this job:
 ========================================================
  
                  Total CPU time used (sec):     2393.469
                            User time (sec):     2234.035
                          System time (sec):      159.435
                         Elapsed time (sec):     2397.142
  
                   Maximum memory used (kb):      719072.
                   Average memory used (kb):           0.
  
                          Minor page faults:        67271
                          Major page faults:           59
                 Voluntary context switches:          592
