       N       E                     dE             d eps       ncg     rms          ort
DAV:   1     0.352256798797E+04    0.35226E+04   -0.14023E+05  5760   0.223E+03
DAV:   2     0.403552328898E+03   -0.31190E+04   -0.28750E+04  5760   0.546E+02
DAV:   3    -0.222768896001E+03   -0.62632E+03   -0.56555E+03  5760   0.256E+02
DAV:   4    -0.273119507983E+03   -0.50351E+02   -0.49429E+02  5760   0.751E+01
DAV:   5    -0.274780544010E+03   -0.16610E+01   -0.16580E+01  5760   0.134E+01
SDA:   6     0.156073644816E+03    0.43085E+03   -0.16580E+01  5760   0.339E+04 0.000E+00
CGA:   7     0.127428489304E+03   -0.28645E+02   -0.92766E+02  5760   0.423E+04 0.805E+03
CGA:   8     0.877546515693E+02   -0.39674E+02   -0.14489E+03  5760   0.429E+04 0.149E+04
CGA:   9    -0.572782534716E+02   -0.14503E+03   -0.16011E+03  5760   0.122E+04 0.370E+04
CGA:  10    -0.128845264544E+03   -0.71567E+02   -0.67725E+02  5760   0.749E+03 0.202E+03
CGA:  11    -0.174681041686E+03   -0.45836E+02   -0.56454E+02  5760   0.281E+03-0.492E+02
CGA:  12    -0.192253506971E+03   -0.17572E+02   -0.21933E+02  5760   0.382E+03-0.318E+02
CGA:  13    -0.207801508990E+03   -0.15548E+02   -0.18959E+02  5760   0.100E+03-0.431E+02
CGA:  14    -0.212468575127E+03   -0.46671E+01   -0.56746E+01  5760   0.524E+02-0.118E+02
CGA:  15    -0.214332048353E+03   -0.18635E+01   -0.20474E+01  5760   0.202E+02-0.388E+01
CGA:  16    -0.216170744821E+03   -0.18387E+01   -0.20483E+01  5760   0.195E+02 0.319E+01
CGA:  17    -0.217424518456E+03   -0.12538E+01   -0.14046E+01  5760   0.178E+02 0.748E+00
CGA:  18    -0.218854882515E+03   -0.14304E+01   -0.15756E+01  5760   0.620E+01 0.627E+00
CGA:  19    -0.219131837002E+03   -0.27695E+00   -0.30963E+00  5760   0.512E+01-0.490E+00
CGA:  20    -0.219507294070E+03   -0.37546E+00   -0.37361E+00  5760   0.289E+01-0.745E-01
CGA:  21    -0.219849614243E+03   -0.34232E+00   -0.34411E+00  5760   0.364E+01 0.422E-01
CGA:  22    -0.220048054579E+03   -0.19844E+00   -0.20787E+00  5760   0.200E+01-0.798E-01
CGA:  23    -0.220207241980E+03   -0.15919E+00   -0.16076E+00  5760   0.825E+00 0.340E-02
CGA:  24    -0.220284755306E+03   -0.77513E-01   -0.79021E-01  5760   0.953E+00 0.221E-03
CGA:  25    -0.220386155188E+03   -0.10140E+00   -0.10212E+00  5760   0.851E+00 0.285E-01
CGA:  26    -0.220442969682E+03   -0.56814E-01   -0.60860E-01  5760   0.389E+00-0.204E-02
CGA:  27    -0.220525077731E+03   -0.82108E-01   -0.88204E-01  5760   0.113E+01-0.479E-01
CGA:  28    -0.220601816467E+03   -0.76739E-01   -0.77826E-01  5760   0.816E+00 0.904E-02
CGA:  29    -0.220769689331E+03   -0.16787E+00   -0.16546E+00  5760   0.197E+01 0.521E-01
CGA:  30    -0.220956653235E+03   -0.18696E+00   -0.17290E+00  5760   0.200E+01-0.149E+00
CGA:  31    -0.221179731567E+03   -0.22308E+00   -0.22205E+00  5760   0.248E+01-0.129E+00
CGA:  32    -0.221309127556E+03   -0.12940E+00   -0.13444E+00  5760   0.227E+01-0.137E-01
CGA:  33    -0.221460181175E+03   -0.15105E+00   -0.15758E+00  5760   0.201E+01 0.144E-02
CGA:  34    -0.221601650347E+03   -0.14147E+00   -0.14781E+00  5760   0.144E+01 0.779E-02
CGA:  35    -0.221717009639E+03   -0.11536E+00   -0.11901E+00  5760   0.946E+00 0.200E-01
CGA:  36    -0.221822312702E+03   -0.10530E+00   -0.10544E+00  5760   0.851E+00 0.192E-01
CGA:  37    -0.221925271841E+03   -0.10296E+00   -0.10302E+00  5760   0.715E+00-0.443E-02
CGA:  38    -0.222002548742E+03   -0.77277E-01   -0.77265E-01  5760   0.548E+00 0.119E-03
CGA:  39    -0.222069143445E+03   -0.66595E-01   -0.66605E-01  5760   0.599E+00-0.279E-03
SDA:  40    -0.222140537098E+03   -0.71394E-01   -0.71387E-01  5760   0.588E+00 0.594E-02
CGA:  41    -0.222241595934E+03   -0.10106E+00   -0.10081E+00  5760   0.402E+00 0.362E-02
CGA:  42    -0.222294158176E+03   -0.52562E-01   -0.52701E-01  5760   0.633E+00-0.165E-01
CGA:  43    -0.222368010857E+03   -0.73853E-01   -0.73722E-01  5760   0.184E+00 0.182E-01
CGA:  44    -0.222405893196E+03   -0.37882E-01   -0.37518E-01  5760   0.273E+00 0.354E-02
CGA:  45    -0.222440590533E+03   -0.34697E-01   -0.34708E-01  5760   0.344E+00-0.214E-02
CGA:  46    -0.222485159718E+03   -0.44569E-01   -0.44597E-01  5760   0.171E+00-0.256E-02
CGA:  47    -0.222537099164E+03   -0.51939E-01   -0.52447E-01  5760   0.168E+00-0.381E-02
CGA:  48    -0.222562954454E+03   -0.25855E-01   -0.25744E-01  5760   0.321E+00 0.113E-02
CGA:  49    -0.222605782732E+03   -0.42828E-01   -0.42818E-01  5760   0.273E+00-0.106E-01
CGA:  50    -0.222679961283E+03   -0.74179E-01   -0.79548E-01  5760   0.333E+00-0.566E-01
CGA:  51    -0.222710122815E+03   -0.30162E-01   -0.29027E-01  5760   0.360E+00-0.688E-02
CGA:  52    -0.222743720703E+03   -0.33598E-01   -0.34848E-01  5760   0.334E+00 0.627E-02
CGA:  53    -0.222778724104E+03   -0.35003E-01   -0.30902E-01  5760   0.244E+00 0.397E-01
CGA:  54    -0.222804051131E+03   -0.25327E-01   -0.23801E-01  5760   0.180E+00 0.839E-01
CGA:  55    -0.222836299783E+03   -0.32249E-01   -0.32243E-01  5760   0.155E+00 0.316E-01
CGA:  56    -0.222863962168E+03   -0.27662E-01   -0.27887E-01  5760   0.158E+00-0.415E-02
CGA:  57    -0.222881016824E+03   -0.17055E-01   -0.17084E-01  5760   0.127E+00 0.924E-03
CGA:  58    -0.222896050292E+03   -0.15033E-01   -0.15033E-01  5760   0.120E+00-0.343E-03
CGA:  59    -0.222911615363E+03   -0.15565E-01   -0.15557E-01  5760   0.111E+00-0.357E-02
CGA:  60    -0.222924127919E+03   -0.12513E-01   -0.12440E-01  5760   0.850E-01-0.257E-02
CGA:  61    -0.222934887079E+03   -0.10759E-01   -0.10759E-01  5760   0.843E-01 0.220E-03
CGA:  62    -0.222947256438E+03   -0.12369E-01   -0.12371E-01  5760   0.932E-01-0.805E-04
CGA:  63    -0.222959745781E+03   -0.12489E-01   -0.12492E-01  5760   0.859E-01-0.824E-03
CGA:  64    -0.222969796609E+03   -0.10051E-01   -0.10039E-01  5760   0.666E-01-0.372E-03
CGA:  65    -0.222977801118E+03   -0.80045E-02   -0.80074E-02  5760   0.593E-01 0.138E-03
CGA:  66    -0.222986565564E+03   -0.87644E-02   -0.87580E-02  5760   0.672E-01 0.391E-03
CGA:  67    -0.222996115321E+03   -0.95498E-02   -0.95485E-02  5760   0.629E-01 0.523E-04
CGA:  68    -0.223004082339E+03   -0.79670E-02   -0.79509E-02  5760   0.538E-01-0.108E-02
CGA:  69    -0.223010375583E+03   -0.62932E-02   -0.62475E-02  5760   0.560E-01 0.352E-02
CGA:  70    -0.223017842764E+03   -0.74672E-02   -0.74904E-02  5760   0.656E-01 0.702E-02
SDA:  71    -0.223027754302E+03   -0.99115E-02   -0.99130E-02  5760   0.721E-01-0.384E-03
CGA:  72    -0.223046552238E+03   -0.18798E-01   -0.19138E-01  5760   0.573E-01-0.276E-02
CGA:  73    -0.223065208983E+03   -0.18657E-01   -0.19456E-01  5760   0.760E-01-0.975E-03
CGA:  74    -0.223086939771E+03   -0.21731E-01   -0.21885E-01  5760   0.852E-01-0.137E-02
CGA:  75    -0.223117738704E+03   -0.30799E-01   -0.29775E-01  5760   0.783E-01 0.509E-02
CGA:  76    -0.223153010403E+03   -0.35272E-01   -0.38040E-01  5760   0.192E+00-0.123E-01
CGA:  77    -0.223179734076E+03   -0.26724E-01   -0.26016E-01  5760   0.200E+00-0.141E-01
CGA:  78    -0.223196945374E+03   -0.17211E-01   -0.16983E-01  5760   0.143E+00 0.278E-02
CGA:  79    -0.223211876662E+03   -0.14931E-01   -0.15893E-01  5760   0.105E+00 0.532E-03
CGA:  80    -0.223226553545E+03   -0.14677E-01   -0.14947E-01  5760   0.856E-01 0.267E-02
CGA:  81    -0.223242475976E+03   -0.15922E-01   -0.15947E-01  5760   0.810E-01-0.139E-02
CGA:  82    -0.223253225939E+03   -0.10750E-01   -0.10463E-01  5760   0.628E-01 0.724E-03
CGA:  83    -0.223264625005E+03   -0.11399E-01   -0.11388E-01  5760   0.828E-01 0.212E-02
CGA:  84    -0.223276731466E+03   -0.12106E-01   -0.11992E-01  5760   0.460E-01-0.232E-02
CGA:  85    -0.223283393668E+03   -0.66622E-02   -0.66582E-02  5760   0.398E-01 0.151E-03
CGA:  86    -0.223289909668E+03   -0.65160E-02   -0.65143E-02  5760   0.344E-01-0.217E-03
CGA:  87    -0.223295274736E+03   -0.53651E-02   -0.53646E-02  5760   0.319E-01-0.146E-04
CGA:  88    -0.223300252160E+03   -0.49774E-02   -0.49806E-02  5760   0.263E-01 0.132E-03
CGA:  89    -0.223304549175E+03   -0.42970E-02   -0.42973E-02  5760   0.249E-01 0.279E-04
CGA:  90    -0.223308586460E+03   -0.40373E-02   -0.40352E-02  5760   0.209E-01-0.286E-03
CGA:  91    -0.223311727289E+03   -0.31408E-02   -0.31387E-02  5760   0.183E-01-0.392E-04
CGA:  92    -0.223314242240E+03   -0.25150E-02   -0.25197E-02  5760   0.126E-01 0.845E-04
CGA:  93    -0.223316309842E+03   -0.20676E-02   -0.20677E-02  5760   0.140E-01 0.152E-03
CGA:  94    -0.223318768883E+03   -0.24590E-02   -0.24644E-02  5760   0.112E-01-0.318E-03
CGA:  95    -0.223320091813E+03   -0.13229E-02   -0.12951E-02  5760   0.951E-02-0.990E-04
CGA:  96    -0.223321625253E+03   -0.15334E-02   -0.15334E-02  5760   0.111E-01 0.248E-04
CGA:  97    -0.223323003953E+03   -0.13787E-02   -0.13885E-02  5760   0.908E-02 0.759E-04
CGA:  98    -0.223324377779E+03   -0.13738E-02   -0.13748E-02  5760   0.886E-02 0.490E-04
CGA:  99    -0.223325540749E+03   -0.11630E-02   -0.11582E-02  5760   0.753E-02-0.455E-04
CGA: 100    -0.223326791855E+03   -0.12511E-02   -0.12525E-02  5760   0.106E-01-0.644E-04
CGA: 101    -0.223328062377E+03   -0.12705E-02   -0.12709E-02  5760   0.722E-02-0.105E-05
SDA: 102    -0.223329013334E+03   -0.95096E-03   -0.95412E-03  5760   0.828E-02 0.568E-04
CGA: 103    -0.223330222705E+03   -0.12094E-02   -0.12064E-02  5760   0.481E-02-0.925E-04
CGA: 104    -0.223331809779E+03   -0.15871E-02   -0.15894E-02  5760   0.439E-02 0.161E-04
CGA: 105    -0.223332983909E+03   -0.11741E-02   -0.11766E-02  5760   0.334E-02-0.203E-04
CGA: 106    -0.223334119036E+03   -0.11351E-02   -0.11384E-02  5760   0.192E-02-0.183E-04
CGA: 107    -0.223334778647E+03   -0.65961E-03   -0.66441E-03  5760   0.192E-02 0.488E-05
CGA: 108    -0.223335333392E+03   -0.55474E-03   -0.55500E-03  5760   0.185E-02-0.325E-05
CGA: 109    -0.223335922043E+03   -0.58865E-03   -0.59137E-03  5760   0.257E-02 0.915E-05
CGA: 110    -0.223336821657E+03   -0.89961E-03   -0.90460E-03  5760   0.362E-02-0.116E-04
CGA: 111    -0.223338209641E+03   -0.13880E-02   -0.14105E-02  5760   0.403E-02-0.710E-04
CGA: 112    -0.223340241096E+03   -0.20315E-02   -0.20197E-02  5760   0.545E-02 0.346E-04
CGA: 113    -0.223342355087E+03   -0.21140E-02   -0.22202E-02  5760   0.785E-02-0.272E-03
CGA: 114    -0.223344708755E+03   -0.23537E-02   -0.23849E-02  5760   0.103E-01-0.199E-03
CGA: 115    -0.223347285614E+03   -0.25769E-02   -0.25898E-02  5760   0.833E-02-0.270E-03
CGA: 116    -0.223351396586E+03   -0.41110E-02   -0.43960E-02  5760   0.139E-01-0.100E-02
CGA: 117    -0.223354701919E+03   -0.33053E-02   -0.33148E-02  5760   0.160E-01-0.287E-03
CGA: 118    -0.223358873416E+03   -0.41715E-02   -0.41792E-02  5760   0.176E-01-0.470E-03
CGA: 119    -0.223363691140E+03   -0.48177E-02   -0.48407E-02  5760   0.176E-01-0.570E-03
CGA: 120    -0.223367251531E+03   -0.35604E-02   -0.35443E-02  5760   0.174E-01-0.839E-04
CGA: 121    -0.223371171073E+03   -0.39195E-02   -0.39144E-02  5760   0.144E-01-0.469E-04
CGA: 122    -0.223374379584E+03   -0.32085E-02   -0.32084E-02  5760   0.138E-01 0.114E-04
CGA: 123    -0.223377265679E+03   -0.28861E-02   -0.28874E-02  5760   0.105E-01 0.239E-04
CGA: 124    -0.223379345066E+03   -0.20794E-02   -0.20767E-02  5760   0.612E-02-0.674E-05
CGA: 125    -0.223380669870E+03   -0.13248E-02   -0.13232E-02  5760   0.607E-02-0.224E-05
CGA: 126    -0.223381873627E+03   -0.12038E-02   -0.11992E-02  5760   0.342E-02-0.482E-04
CGA: 127    -0.223382550333E+03   -0.67671E-03   -0.67560E-03  5760   0.234E-02 0.342E-04
CGA: 128    -0.223382977442E+03   -0.42711E-03   -0.42637E-03  5760   0.175E-02 0.492E-06
CGA: 129    -0.223383432624E+03   -0.45518E-03   -0.45548E-03  5760   0.166E-02-0.404E-05
CGA: 130    -0.223383763984E+03   -0.33136E-03   -0.33188E-03  5760   0.147E-02 0.477E-04
CGA: 131    -0.223384122981E+03   -0.35900E-03   -0.35906E-03  5760   0.155E-02 0.165E-04
CGA: 132    -0.223384591228E+03   -0.46825E-03   -0.46985E-03  5760   0.210E-02-0.292E-04
SDA: 133    -0.223385036295E+03   -0.44507E-03   -0.44331E-03  5760   0.203E-02 0.460E-05
CGA: 134    -0.223385771653E+03   -0.73536E-03   -0.75064E-03  5760   0.363E-02-0.311E-05
CGA: 135    -0.223386713217E+03   -0.94156E-03   -0.94363E-03  5760   0.300E-02-0.152E-04
CGA: 136    -0.223387663866E+03   -0.95065E-03   -0.95855E-03  5760   0.237E-02-0.485E-04
CGA: 137    -0.223388486420E+03   -0.82255E-03   -0.82226E-03  5760   0.207E-02-0.103E-04
CGA: 138    -0.223389394041E+03   -0.90762E-03   -0.90079E-03  5760   0.286E-02 0.465E-04
CGA: 139    -0.223390697513E+03   -0.13035E-02   -0.13213E-02  5760   0.443E-02-0.518E-04
CGA: 140    -0.223392047946E+03   -0.13504E-02   -0.13520E-02  5760   0.475E-02-0.716E-05
CGA: 141    -0.223393448154E+03   -0.14002E-02   -0.14011E-02  5760   0.514E-02-0.174E-04
CGA: 142    -0.223394828578E+03   -0.13804E-02   -0.13804E-02  5760   0.247E-02 0.866E-06
CGA: 143    -0.223395899433E+03   -0.10709E-02   -0.10704E-02  5760   0.218E-02 0.200E-05
CGA: 144    -0.223396425416E+03   -0.52598E-03   -0.52481E-03  5760   0.144E-02-0.605E-05
CGA: 145    -0.223396753588E+03   -0.32817E-03   -0.32853E-03  5760   0.105E-02 0.594E-05
CGA: 146    -0.223397046790E+03   -0.29320E-03   -0.29320E-03  5760   0.609E-03 0.680E-06
CGA: 147    -0.223397241047E+03   -0.19426E-03   -0.19431E-03  5760   0.452E-03-0.141E-05
CGA: 148    -0.223397404127E+03   -0.16308E-03   -0.16281E-03  5760   0.403E-03 0.384E-05
CGA: 149    -0.223397492258E+03   -0.88131E-04   -0.87856E-04  5760   0.323E-03-0.182E-05
CGA: 150    -0.223397590227E+03   -0.97969E-04   -0.98041E-04  5760   0.228E-03-0.297E-05
CGA: 151    -0.223397652397E+03   -0.62170E-04   -0.62171E-04  5760   0.143E-03 0.117E-06
CGA: 152    -0.223397695763E+03   -0.43367E-04   -0.43355E-04  5760   0.952E-04 0.497E-06
CGA: 153    -0.223397721369E+03   -0.25606E-04   -0.25606E-04  5760   0.776E-04 0.760E-07
CGA: 154    -0.223397741387E+03   -0.20018E-04   -0.19993E-04  5760   0.697E-04-0.913E-06
CGA: 155    -0.223397758591E+03   -0.17203E-04   -0.17218E-04  5760   0.388E-04 0.433E-06
CGA: 156    -0.223397779685E+03   -0.21094E-04   -0.20513E-04  5760   0.517E-04 0.237E-05
CGA: 157    -0.223397798742E+03   -0.19058E-04   -0.19179E-04  5760   0.618E-04-0.212E-05
CGA: 158    -0.223397812389E+03   -0.13646E-04   -0.13644E-04  5760   0.585E-04-0.147E-06
CGA: 159    -0.223397833422E+03   -0.21033E-04   -0.20892E-04  5760   0.458E-04 0.214E-05
CGA: 160    -0.223397849340E+03   -0.15919E-04   -0.15993E-04  5760   0.486E-04-0.175E-05
CGA: 161    -0.223397861086E+03   -0.11746E-04   -0.11718E-04  5760   0.522E-04-0.667E-06
CGA: 162    -0.223397875262E+03   -0.14175E-04   -0.14189E-04  5760   0.389E-04 0.712E-06
CGA: 163    -0.223397886675E+03   -0.11413E-04   -0.11416E-04  5760   0.308E-04 0.584E-06
SDA: 164    -0.223397895343E+03   -0.86681E-05   -0.86600E-05  5760   0.309E-04-0.457E-06
CGA: 165    -0.223397899428E+03   -0.40852E-05   -0.40662E-05  5760   0.115E-04 0.280E-07
CGA: 166    -0.223397902792E+03   -0.33633E-05   -0.33617E-05  5760   0.898E-05 0.278E-06
CGA: 167    -0.223397906196E+03   -0.34049E-05   -0.34125E-05  5760   0.747E-05-0.934E-07
CGA: 168    -0.223397908731E+03   -0.25347E-05   -0.25351E-05  5760   0.610E-05-0.151E-07
CGA: 169    -0.223397911242E+03   -0.25111E-05   -0.24753E-05  5760   0.620E-05 0.363E-06
CGA: 170    -0.223397913331E+03   -0.20881E-05   -0.20943E-05  5760   0.590E-05-0.325E-06
CGA: 171    -0.223397914946E+03   -0.16151E-05   -0.16148E-05  5760   0.479E-05-0.204E-07
CGA: 172    -0.223397916133E+03   -0.11875E-05   -0.11892E-05  5760   0.404E-05 0.172E-07
CGA: 173    -0.223397917242E+03   -0.11091E-05   -0.11071E-05  5760   0.265E-05-0.405E-07
CGA: 174    -0.223397918595E+03   -0.13530E-05   -0.13968E-05  5760   0.309E-05-0.194E-06
CGA: 175    -0.223397919495E+03   -0.89992E-06   -0.89890E-06  5760   0.231E-05 0.145E-06
CGA: 176    -0.223397920566E+03   -0.10709E-05   -0.10533E-05  5760   0.239E-05 0.143E-06
CGA: 177    -0.223397921527E+03   -0.96110E-06   -0.98587E-06  5760   0.371E-05-0.336E-06
   1 F= -.23410621E+03 E0= -.23410506E+03  d E =-.230714E-02  mag=     6.0000
