       N       E                     dE             d eps       ncg     rms          ort
DAV:   1     0.349039396787E+04    0.34904E+04   -0.13958E+05  5760   0.219E+03
DAV:   2     0.406452111000E+03   -0.30839E+04   -0.28416E+04  5760   0.535E+02
DAV:   3    -0.221956867686E+03   -0.62841E+03   -0.57220E+03  5760   0.254E+02
DAV:   4    -0.272070871658E+03   -0.50114E+02   -0.49136E+02  5760   0.739E+01
DAV:   5    -0.273790374111E+03   -0.17195E+01   -0.17165E+01  5760   0.136E+01
SDA:   6     0.129102939845E+03    0.40289E+03   -0.17165E+01  5760   0.958E+04 0.000E+00
CGA:   7     0.162349585640E+03    0.33247E+02   -0.54594E+03  5760   0.605E+05-0.193E+05
CGA:   8     0.327828992502E+04    0.31159E+04   -0.44213E+04  5760   0.414E+05-0.891E+04
CGA:   9     0.500596915803E+04    0.17277E+04   -0.19617E+04  5760   0.231E+05-0.124E+05
CGA:  10     0.311016101013E+04   -0.18958E+04   -0.10701E+04  5760   0.757E+05 0.231E+05
CGA:  11     0.532634825980E+04    0.22162E+04   -0.47850E+04  5760   0.673E+05-0.395E+05
CGA:  12     0.329879723258E+04   -0.20276E+04   -0.46069E+04  5760   0.318E+05-0.246E+05
CGA:  13     0.336410290111E+04    0.65306E+02   -0.12812E+04  5760   0.590E+05 0.207E+04
CGA:  14     0.104058309305E+05    0.70417E+04   -0.29660E+04  5760   0.166E+06-0.211E+05
CGA:  15     0.109662209563E+05    0.56039E+03   -0.89692E+04  5760   0.184E+06 0.159E+05
CGA:  16     0.533344835853E+04   -0.56328E+04   -0.16745E+05  5760   0.777E+05 0.196E+05
CGA:  17     0.334512525630E+04   -0.19883E+04   -0.55350E+04  5760   0.237E+05 0.258E+05
CGA:  18     0.282437756229E+04   -0.52075E+03   -0.12139E+04  5760   0.939E+04 0.172E+05
CGA:  19     0.225869424609E+04   -0.56568E+03   -0.56122E+03  5760   0.376E+04 0.675E+03
CGA:  20     0.145784198399E+04   -0.80085E+03   -0.76524E+03  5760   0.242E+04 0.574E+03
CGA:  21     0.113991852993E+04   -0.31792E+03   -0.33010E+03  5760   0.229E+04 0.244E+03
CGA:  22     0.665513420801E+03   -0.47441E+03   -0.51579E+03  5760   0.383E+04-0.583E+03
CGA:  23     0.532177975051E+03   -0.13334E+03   -0.80737E+02  5760   0.244E+04 0.193E+04
CGA:  24     0.408533718583E+03   -0.12364E+03   -0.12603E+03  5760   0.473E+03-0.125E+01
CGA:  25     0.142028047846E+03   -0.26651E+03   -0.28900E+03  5760   0.189E+04-0.771E+02
CGA:  26     0.433463454129E+02   -0.98682E+02   -0.69520E+02  5760   0.913E+03 0.293E+03
CGA:  27    -0.915828073049E+01   -0.52505E+02   -0.40637E+02  5760   0.574E+03 0.254E+03
CGA:  28    -0.451948170250E+02   -0.36037E+02   -0.29955E+02  5760   0.461E+03 0.118E+03
CGA:  29    -0.647872901570E+02   -0.19592E+02   -0.17595E+02  5760   0.369E+03 0.514E+02
CGA:  30    -0.790075295739E+02   -0.14220E+02   -0.15571E+02  5760   0.495E+03-0.218E+02
CGA:  31    -0.966900777156E+02   -0.17683E+02   -0.19096E+02  5760   0.777E+03 0.856E+00
CGA:  32    -0.111667451494E+03   -0.14977E+02   -0.16031E+02  5760   0.542E+03 0.158E+03
CGA:  33    -0.122373504458E+03   -0.10706E+02   -0.14274E+02  5760   0.408E+03-0.474E+02
CGA:  34    -0.129584241824E+03   -0.72107E+01   -0.99432E+01  5760   0.470E+03-0.366E+02
CGA:  35    -0.139746593599E+03   -0.10162E+02   -0.11388E+02  5760   0.419E+03 0.235E+02
CGA:  36    -0.150605574905E+03   -0.10859E+02   -0.12792E+02  5760   0.243E+03-0.108E+02
CGA:  37    -0.156163432242E+03   -0.55579E+01   -0.66296E+01  5760   0.118E+03-0.150E+02
CGA:  38    -0.159814299348E+03   -0.36509E+01   -0.37948E+01  5760   0.109E+03 0.230E+00
CGA:  39    -0.165731226873E+03   -0.59169E+01   -0.59396E+01  5760   0.171E+03 0.123E+01
CGA:  40    -0.172480246300E+03   -0.67490E+01   -0.61877E+01  5760   0.160E+03 0.168E+02
CGA:  41    -0.179188126094E+03   -0.67079E+01   -0.64658E+01  5760   0.149E+03 0.434E+01
CGA:  42    -0.183999308849E+03   -0.48112E+01   -0.41430E+01  5760   0.117E+03 0.115E+02
CGA:  43    -0.188391666151E+03   -0.43924E+01   -0.44140E+01  5760   0.109E+03-0.309E+01
CGA:  44    -0.191863464552E+03   -0.34718E+01   -0.33345E+01  5760   0.100E+03 0.388E+01
CGA:  45    -0.195232483087E+03   -0.33690E+01   -0.34611E+01  5760   0.907E+02-0.873E+00
CGA:  46    -0.197657963762E+03   -0.24255E+01   -0.24438E+01  5760   0.913E+02 0.276E+01
CGA:  47    -0.199810126639E+03   -0.21522E+01   -0.22145E+01  5760   0.668E+02 0.772E+01
CGA:  48    -0.201061198503E+03   -0.12511E+01   -0.13681E+01  5760   0.505E+02 0.638E+01
CGA:  49    -0.202449280571E+03   -0.13881E+01   -0.15281E+01  5760   0.875E+02 0.206E+01
CGA:  50    -0.204518295062E+03   -0.20690E+01   -0.22740E+01  5760   0.125E+03 0.607E+01
CGA:  51    -0.206362875647E+03   -0.18446E+01   -0.22422E+01  5760   0.772E+02 0.642E+01
CGA:  52    -0.207191199676E+03   -0.82832E+00   -0.12679E+01  5760   0.394E+02-0.719E+01
CGA:  53    -0.207746154425E+03   -0.55495E+00   -0.71380E+00  5760   0.396E+02 0.193E+01
SDA:  54    -0.208571091767E+03   -0.82494E+00   -0.99935E+00  5760   0.356E+02 0.337E+01
CGA:  55    -0.210245841454E+03   -0.16747E+01   -0.16830E+01  5760   0.305E+02 0.284E+00
CGA:  56    -0.215471810530E+03   -0.52260E+01   -0.51988E+01  5760   0.207E+02 0.306E+00
CGA:  57    -0.219032799925E+03   -0.35610E+01   -0.33680E+01  5760   0.947E+01 0.203E+01
CGA:  58    -0.220527377282E+03   -0.14946E+01   -0.14997E+01  5760   0.480E+01-0.123E+00
CGA:  59    -0.221003838078E+03   -0.47646E+00   -0.48202E+00  5760   0.109E+02-0.162E+00
CGA:  60    -0.221803659874E+03   -0.79982E+00   -0.79671E+00  5760   0.280E+01 0.473E+00
CGA:  61    -0.222081928776E+03   -0.27827E+00   -0.27190E+00  5760   0.221E+01 0.206E+00
CGA:  62    -0.222273976286E+03   -0.19205E+00   -0.19250E+00  5760   0.116E+01-0.365E-01
CGA:  63    -0.222453767361E+03   -0.17979E+00   -0.17393E+00  5760   0.164E+01 0.579E-01
CGA:  64    -0.222662716832E+03   -0.20895E+00   -0.20031E+00  5760   0.164E+01 0.176E+00
CGA:  65    -0.222958968224E+03   -0.29625E+00   -0.29638E+00  5760   0.117E+01-0.548E-01
CGA:  66    -0.223175649159E+03   -0.21668E+00   -0.22091E+00  5760   0.220E+01 0.247E-01
CGA:  67    -0.223356533293E+03   -0.18088E+00   -0.17489E+00  5760   0.175E+01-0.856E-01
CGA:  68    -0.223446453028E+03   -0.89920E-01   -0.76563E-01  5760   0.215E+01-0.703E+00
CGA:  69    -0.223500161176E+03   -0.53708E-01   -0.21431E-01  5760   0.228E+01-0.559E+00
CGA:  70    -0.223595501656E+03   -0.95340E-01   -0.43252E-01  5760   0.250E+01-0.115E+01
CGA:  71    -0.223755823073E+03   -0.16032E+00   -0.17657E+00  5760   0.101E+01 0.115E+01
CGA:  72    -0.223908859080E+03   -0.15304E+00   -0.13769E+00  5760   0.511E+00 0.732E+00
CGA:  73    -0.224079204848E+03   -0.17035E+00   -0.12848E+00  5760   0.391E+00 0.207E+00
CGA:  74    -0.224274985621E+03   -0.19578E+00   -0.17720E+00  5760   0.502E+00 0.886E-01
CGA:  75    -0.224340757879E+03   -0.65772E-01   -0.66229E-01  5760   0.378E+00-0.382E-01
CGA:  76    -0.224392650252E+03   -0.51892E-01   -0.51032E-01  5760   0.210E+00 0.150E-01
CGA:  77    -0.224423201662E+03   -0.30551E-01   -0.30402E-01  5760   0.172E+00 0.382E-02
CGA:  78    -0.224449531497E+03   -0.26330E-01   -0.26758E-01  5760   0.208E+00-0.169E-01
CGA:  79    -0.224469096307E+03   -0.19565E-01   -0.19562E-01  5760   0.119E+00 0.938E-03
CGA:  80    -0.224485731419E+03   -0.16635E-01   -0.16542E-01  5760   0.735E-01 0.383E-02
CGA:  81    -0.224496054729E+03   -0.10323E-01   -0.10289E-01  5760   0.140E+00-0.854E-02
CGA:  82    -0.224514772452E+03   -0.18718E-01   -0.19024E-01  5760   0.115E+00-0.554E-02
CGA:  83    -0.224526309538E+03   -0.11537E-01   -0.11559E-01  5760   0.983E-01-0.197E-03
CGA:  84    -0.224534385029E+03   -0.80755E-02   -0.81406E-02  5760   0.491E-01-0.278E-03
CGA:  85    -0.224543576767E+03   -0.91917E-02   -0.91885E-02  5760   0.929E-01 0.387E-03
CGA:  86    -0.224549151645E+03   -0.55749E-02   -0.62619E-02  5760   0.343E-01 0.160E-02
CGA:  87    -0.224552712272E+03   -0.35606E-02   -0.35572E-02  5760   0.292E-01-0.106E-02
CGA:  88    -0.224555591722E+03   -0.28795E-02   -0.28675E-02  5760   0.397E-01-0.244E-03
CGA:  89    -0.224561296335E+03   -0.57046E-02   -0.55367E-02  5760   0.494E-01 0.521E-02
CGA:  90    -0.224565784308E+03   -0.44880E-02   -0.46853E-02  5760   0.509E-01-0.163E-02
CGA:  91    -0.224575877831E+03   -0.10094E-01   -0.10460E-01  5760   0.136E+00-0.396E-02
CGA:  92    -0.224588548298E+03   -0.12670E-01   -0.29602E-01  5760   0.422E+00-0.254E+00
CGA:  93    -0.224628206130E+03   -0.39658E-01   -0.40901E-01  5760   0.310E+00 0.317E-01
CGA:  94    -0.224669408938E+03   -0.41203E-01   -0.41100E-01  5760   0.297E+00 0.110E-01
CGA:  95    -0.224758156670E+03   -0.88748E-01   -0.94669E-01  5760   0.267E+00-0.260E-01
CGA:  96    -0.224829019244E+03   -0.70863E-01   -0.79806E-01  5760   0.349E+00-0.539E-01
CGA:  97    -0.224875437345E+03   -0.46418E-01   -0.45418E-01  5760   0.246E+00 0.246E-01
CGA:  98    -0.224921052873E+03   -0.45616E-01   -0.45106E-01  5760   0.181E+00 0.759E-02
CGA:  99    -0.224960222404E+03   -0.39170E-01   -0.38643E-01  5760   0.101E+00 0.623E-02
CGA: 100    -0.224982885745E+03   -0.22663E-01   -0.22582E-01  5760   0.820E-01 0.242E-02
CGA: 101    -0.224998530579E+03   -0.15645E-01   -0.15359E-01  5760   0.403E-01 0.566E-02
CGA: 102    -0.225007306375E+03   -0.87758E-02   -0.87029E-02  5760   0.409E-01 0.107E-02
CGA: 103    -0.225019114093E+03   -0.11808E-01   -0.11972E-01  5760   0.330E-01-0.794E-03
CGA: 104    -0.225025638769E+03   -0.65247E-02   -0.65276E-02  5760   0.235E-01-0.206E-04
CGA: 105    -0.225031554930E+03   -0.59162E-02   -0.59377E-02  5760   0.235E-01 0.760E-03
CGA: 106    -0.225035015325E+03   -0.34604E-02   -0.35999E-02  5760   0.149E-01 0.748E-02
CGA: 107    -0.225037601203E+03   -0.25859E-02   -0.27928E-02  5760   0.849E-02 0.509E-02
CGA: 108    -0.225039780593E+03   -0.21794E-02   -0.21400E-02  5760   0.632E-02 0.228E-03
CGA: 109    -0.225041483999E+03   -0.17034E-02   -0.18920E-02  5760   0.603E-02-0.149E-02
CGA: 110    -0.225042291895E+03   -0.80790E-03   -0.80990E-03  5760   0.468E-02-0.678E-03
CGA: 111    -0.225043248070E+03   -0.95617E-03   -0.98049E-03  5760   0.529E-02-0.282E-03
CGA: 112    -0.225044262912E+03   -0.10148E-02   -0.10169E-02  5760   0.380E-02-0.616E-04
CGA: 113    -0.225044940745E+03   -0.67783E-03   -0.67742E-03  5760   0.266E-02 0.134E-03
CGA: 114    -0.225045477089E+03   -0.53634E-03   -0.53214E-03  5760   0.227E-02 0.215E-03
CGA: 115    -0.225046027808E+03   -0.55072E-03   -0.54033E-03  5760   0.180E-02 0.157E-03
CGA: 116    -0.225046438480E+03   -0.41067E-03   -0.41099E-03  5760   0.164E-02-0.123E-04
CGA: 117    -0.225046859923E+03   -0.42144E-03   -0.42375E-03  5760   0.181E-02-0.124E-03
CGA: 118    -0.225047269050E+03   -0.40913E-03   -0.42118E-03  5760   0.197E-02-0.195E-03
CGA: 119    -0.225047643341E+03   -0.37429E-03   -0.37480E-03  5760   0.182E-02-0.225E-04
CGA: 120    -0.225048023183E+03   -0.37984E-03   -0.37752E-03  5760   0.175E-02 0.851E-04
CGA: 121    -0.225048477766E+03   -0.45458E-03   -0.45044E-03  5760   0.157E-02 0.125E-04
CGA: 122    -0.225048802239E+03   -0.32447E-03   -0.32472E-03  5760   0.136E-02-0.183E-04
SDA: 123    -0.225049150878E+03   -0.34864E-03   -0.34623E-03  5760   0.137E-02 0.306E-04
CGA: 124    -0.225049456349E+03   -0.30547E-03   -0.30574E-03  5760   0.869E-03-0.608E-05
CGA: 125    -0.225049732979E+03   -0.27663E-03   -0.26167E-03  5760   0.362E-03 0.109E-03
CGA: 126    -0.225049846703E+03   -0.11372E-03   -0.11266E-03  5760   0.260E-03 0.185E-04
CGA: 127    -0.225049926815E+03   -0.80112E-04   -0.79409E-04  5760   0.220E-03-0.710E-05
CGA: 128    -0.225049983084E+03   -0.56269E-04   -0.57165E-04  5760   0.212E-03-0.102E-04
CGA: 129    -0.225050031405E+03   -0.48322E-04   -0.48329E-04  5760   0.127E-03 0.157E-05
CGA: 130    -0.225050078473E+03   -0.47068E-04   -0.46556E-04  5760   0.127E-03 0.267E-05
CGA: 131    -0.225050142360E+03   -0.63887E-04   -0.65035E-04  5760   0.149E-03-0.561E-05
CGA: 132    -0.225050200877E+03   -0.58517E-04   -0.58677E-04  5760   0.228E-03 0.179E-05
CGA: 133    -0.225050266273E+03   -0.65396E-04   -0.65496E-04  5760   0.223E-03 0.142E-06
CGA: 134    -0.225050321601E+03   -0.55327E-04   -0.55329E-04  5760   0.161E-03-0.319E-05
CGA: 135    -0.225050379517E+03   -0.57916E-04   -0.58680E-04  5760   0.145E-03 0.138E-05
CGA: 136    -0.225050414773E+03   -0.35256E-04   -0.35617E-04  5760   0.692E-04 0.229E-04
CGA: 137    -0.225050443058E+03   -0.28285E-04   -0.27873E-04  5760   0.703E-04-0.677E-06
CGA: 138    -0.225050472622E+03   -0.29564E-04   -0.31078E-04  5760   0.102E-03-0.722E-05
CGA: 139    -0.225050495223E+03   -0.22602E-04   -0.22501E-04  5760   0.923E-04-0.317E-05
CGA: 140    -0.225050519078E+03   -0.23854E-04   -0.23853E-04  5760   0.718E-04 0.240E-05
CGA: 141    -0.225050542873E+03   -0.23795E-04   -0.23832E-04  5760   0.628E-04-0.171E-05
CGA: 142    -0.225050558806E+03   -0.15933E-04   -0.15931E-04  5760   0.471E-04 0.130E-05
CGA: 143    -0.225050567999E+03   -0.91937E-05   -0.92221E-05  5760   0.260E-04 0.117E-05
CGA: 144    -0.225050574795E+03   -0.67951E-05   -0.68032E-05  5760   0.159E-04-0.142E-06
CGA: 145    -0.225050578822E+03   -0.40274E-05   -0.40210E-05  5760   0.939E-05-0.518E-06
CGA: 146    -0.225050580978E+03   -0.21562E-05   -0.21656E-05  5760   0.723E-05 0.431E-06
CGA: 147    -0.225050582700E+03   -0.17218E-05   -0.17393E-05  5760   0.531E-05 0.423E-06
CGA: 148    -0.225050584411E+03   -0.17108E-05   -0.17328E-05  5760   0.375E-05-0.384E-06
CGA: 149    -0.225050585976E+03   -0.15654E-05   -0.16147E-05  5760   0.487E-05-0.236E-06
CGA: 150    -0.225050587182E+03   -0.12061E-05   -0.12076E-05  5760   0.358E-05 0.199E-06
CGA: 151    -0.225050588277E+03   -0.10952E-05   -0.10918E-05  5760   0.459E-05 0.150E-06
CGA: 152    -0.225050589736E+03   -0.14581E-05   -0.14685E-05  5760   0.291E-05-0.171E-06
CGA: 153    -0.225050590550E+03   -0.81459E-06   -0.81329E-06  5760   0.205E-05 0.505E-07
   1 F= -.23476915E+03 E0= -.23476868E+03  d E =-.953146E-03  mag=     6.0000
