 vasp.5.4.4.18Apr17-6-g9f103f2a35 (build Nov 22 2021 14:44:17) complex          
  
 executed on             LinuxIFC date 2022.08.05  13:35:21
 running on   64 total cores
 distrk:  each k-point on   64 cores,    1 groups
 distr:  one band on NCORES_PER_BAND=   4 cores,   16 groups


--------------------------------------------------------------------------------------------------------


 INCAR:
 POTCAR:    PAW_PBE Li 17Jan2003                  
 POTCAR:    PAW_PBE Co 02Aug2007                  
 POTCAR:    PAW_PBE O 08Apr2002                   
 POTCAR:    PAW_PBE Li 17Jan2003                  
   VRHFIN =Li: s1p0                                                             
   LEXCH  = PE                                                                  
   EATOM  =     5.3001 eV,    0.3895 Ry                                         
                                                                                
   TITEL  = PAW_PBE Li 17Jan2003                                                
   LULTRA =        F    use ultrasoft PP ?                                      
   IUNSCR =        1    unscreen: 0-lin 1-nonlin 2-no                           
   RPACOR =    1.500    partial core radius                                     
   POMASS =    7.010; ZVAL   =    1.000    mass and valenz                      
   RCORE  =    2.050    outmost cutoff radius                                   
   RWIGS  =    2.600; RWIGS  =    1.376    wigner-seitz radius (au A)           
   ENMAX  =  140.000; ENMIN  =  100.000 eV                                      
   ICORE  =        2    local potential                                         
   LCOR   =        T    correct aug charges                                     
   LPAW   =        T    paw PP                                                  
   EAUG   =  331.638                                                            
   DEXC   =    0.000                                                            
   RMAX   =    2.098    core radius for proj-oper                               
   RAUG   =    1.300    factor for augmentation sphere                          
   RDEP   =    2.094    radius for radial grids                                 
   RDEPT  =    1.810    core radius for aug-charge                              
                                                                                
   Atomic configuration                                                         
    4 entries                                                                   
     n  l   j            E        occ.                                          
     1  0  0.50       -51.8549   2.0000                                         
     2  0  0.50        -2.8742   1.0000                                         
     2  1  0.50        -1.3606   0.0000                                         
     3  2  1.50        -1.3606   0.0000                                         
   Description                                                                  
     l       E           TYP  RCUT    TYP  RCUT                                 
     0     -2.8742052     23  2.050                                             
     0     27.2116520     23  2.050                                             
     1     -1.3605826     23  2.050                                             
     2     -1.3605826     23  2.050                                             
  local pseudopotential read in
  partial core-charges read in
  partial kinetic energy density read in
  atomic valenz-charges read in
  non local Contribution for L=           0  read in
    real space projection operators read in
  non local Contribution for L=           0  read in
    real space projection operators read in
  non local Contribution for L=           1  read in
    real space projection operators read in
    PAW grid and wavefunctions read in
 
   number of l-projection  operators is LMAX  =           3
   number of lm-projection operators is LMMAX =           5
 
 POTCAR:    PAW_PBE Co 02Aug2007                  
   VRHFIN =Co: d8 s1                                                            
   LEXCH  = PE                                                                  
   EATOM  =   813.3670 eV,   59.7808 Ry                                         
                                                                                
   TITEL  = PAW_PBE Co 02Aug2007                                                
   LULTRA =        F    use ultrasoft PP ?                                      
   IUNSCR =        1    unscreen: 0-lin 1-nonlin 2-no                           
   RPACOR =    2.000    partial core radius                                     
   POMASS =   58.933; ZVAL   =    9.000    mass and valenz                      
   RCORE  =    2.300    outmost cutoff radius                                   
   RWIGS  =    2.460; RWIGS  =    1.302    wigner-seitz radius (au A)           
   ENMAX  =  267.968; ENMIN  =  200.976 eV                                      
   RCLOC  =    1.203    cutoff for local pot                                    
   LCOR   =        T    correct aug charges                                     
   LPAW   =        T    paw PP                                                  
   EAUG   =  477.818                                                            
   DEXC   =    0.000                                                            
   RMAX   =    2.360    core radius for proj-oper                               
   RAUG   =    1.300    factor for augmentation sphere                          
   RDEP   =    2.393    radius for radial grids                                 
   RDEPT  =    1.864    core radius for aug-charge                              
                                                                                
   Atomic configuration                                                         
    9 entries                                                                   
     n  l   j            E        occ.                                          
     1  0  0.50     -7587.6674   2.0000                                         
     2  0  0.50      -893.6084   2.0000                                         
     2  1  1.50      -764.5805   6.0000                                         
     3  0  0.50       -97.5973   2.0000                                         
     3  1  1.50       -60.9648   6.0000                                         
     3  2  2.50        -4.2382   8.0000                                         
     4  0  0.50        -4.3746   1.0000                                         
     4  1  1.50        -4.0817   0.0000                                         
     4  3  2.50        -1.3606   0.0000                                         
   Description                                                                  
     l       E           TYP  RCUT    TYP  RCUT                                 
     2     -4.2382362     23  2.300                                             
     2     -5.5988188     23  2.300                                             
     0     -4.3745797     23  2.300                                             
     0      5.7660125     23  2.300                                             
     1     -2.7211652     23  2.300                                             
     1     16.9860234     23  2.300                                             
  local pseudopotential read in
  partial core-charges read in
  partial kinetic energy density read in
  atomic valenz-charges read in
  non local Contribution for L=           2  read in
    real space projection operators read in
  non local Contribution for L=           2  read in
    real space projection operators read in
  non local Contribution for L=           0  read in
    real space projection operators read in
  non local Contribution for L=           0  read in
    real space projection operators read in
  non local Contribution for L=           1  read in
    real space projection operators read in
  non local Contribution for L=           1  read in
    real space projection operators read in
    PAW grid and wavefunctions read in
 
   number of l-projection  operators is LMAX  =           6
   number of lm-projection operators is LMMAX =          18
 
 POTCAR:    PAW_PBE O 08Apr2002                   
   VRHFIN =O: s2p4                                                              
   LEXCH  = PE                                                                  
   EATOM  =   432.3788 eV,   31.7789 Ry                                         
                                                                                
   TITEL  = PAW_PBE O 08Apr2002                                                 
   LULTRA =        F    use ultrasoft PP ?                                      
   IUNSCR =        1    unscreen: 0-lin 1-nonlin 2-no                           
   RPACOR =    1.200    partial core radius                                     
   POMASS =   16.000; ZVAL   =    6.000    mass and valenz                      
   RCORE  =    1.520    outmost cutoff radius                                   
   RWIGS  =    1.550; RWIGS  =    0.820    wigner-seitz radius (au A)           
   ENMAX  =  400.000; ENMIN  =  300.000 eV                                      
   ICORE  =        2    local potential                                         
   LCOR   =        T    correct aug charges                                     
   LPAW   =        T    paw PP                                                  
   EAUG   =  605.392                                                            
   DEXC   =    0.000                                                            
   RMAX   =    1.553    core radius for proj-oper                               
   RAUG   =    1.300    factor for augmentation sphere                          
   RDEP   =    1.550    radius for radial grids                                 
   RDEPT  =    1.329    core radius for aug-charge                              
                                                                                
   Atomic configuration                                                         
    4 entries                                                                   
     n  l   j            E        occ.                                          
     1  0  0.50      -514.6923   2.0000                                         
     2  0  0.50       -23.9615   2.0000                                         
     2  1  0.50        -9.0305   4.0000                                         
     3  2  1.50        -9.5241   0.0000                                         
   Description                                                                  
     l       E           TYP  RCUT    TYP  RCUT                                 
     0    -23.9615318     23  1.200                                             
     0     -9.5240782     23  1.200                                             
     1     -9.0304911     23  1.520                                             
     1      8.1634956     23  1.520                                             
     2     -9.5240782      7  1.500                                             
  local pseudopotential read in
  partial core-charges read in
  partial kinetic energy density read in
  kinetic energy density of atom read in
  atomic valenz-charges read in
  non local Contribution for L=           0  read in
    real space projection operators read in
  non local Contribution for L=           0  read in
    real space projection operators read in
  non local Contribution for L=           1  read in
    real space projection operators read in
  non local Contribution for L=           1  read in
    real space projection operators read in
    PAW grid and wavefunctions read in
 
   number of l-projection  operators is LMAX  =           4
   number of lm-projection operators is LMMAX =           8
 
 Optimization of the real space projectors (new method)

 maximal supplied QI-value         = 18.33
 optimisation between [QCUT,QGAM] = [ 12.46, 24.93] = [ 43.51,174.03] Ry 
 Optimized for a Real-space Cutoff    1.13 Angstroem

   l    n(q)    QCUT    max X(q) W(low)/X(q) W(high)/X(q)  e(spline) 
   0      8    12.465    33.825    0.12E-03    0.29E-03    0.99E-07
   0      8    12.465     8.944    0.86E-04    0.22E-03    0.72E-07
   1      8    12.465     4.214    0.27E-03    0.11E-03    0.82E-07
 Optimization of the real space projectors (new method)

 maximal supplied QI-value         = 16.25
 optimisation between [QCUT,QGAM] = [ 12.51, 25.03] = [ 43.85,175.40] Ry 
 Optimized for a Real-space Cutoff    1.31 Angstroem

   l    n(q)    QCUT    max X(q) W(low)/X(q) W(high)/X(q)  e(spline) 
   2      9    12.514    65.824    0.30E-03    0.46E-03    0.43E-06
   2      9    12.514    61.429    0.31E-03    0.46E-03    0.44E-06
   0     10    12.514    56.174    0.90E-04    0.33E-03    0.30E-06
   0     10    12.514    31.263    0.81E-04    0.30E-03    0.28E-06
   1      9    12.514    19.828    0.38E-03    0.65E-04    0.24E-06
   1      9    12.514    15.139    0.32E-03    0.60E-04    0.20E-06
 Optimization of the real space projectors (new method)

 maximal supplied QI-value         = 24.76
 optimisation between [QCUT,QGAM] = [ 12.38, 25.00] = [ 42.90,175.06] Ry 
 Optimized for a Real-space Cutoff    1.13 Angstroem

   l    n(q)    QCUT    max X(q) W(low)/X(q) W(high)/X(q)  e(spline) 
   0      8    12.378    20.381    0.16E-03    0.54E-05    0.27E-06
   0      8    12.378    15.268    0.17E-03    0.61E-05    0.29E-06
   1      8    12.378     5.964    0.38E-03    0.23E-03    0.28E-06
   1      8    12.378     5.382    0.33E-03    0.20E-03    0.25E-06
  PAW_PBE Li 17Jan2003                  :
 energy of atom  1       EATOM=   -5.3001
 kinetic energy error for atom=    0.0000 (will be added to EATOM!!)
  PAW_PBE Co 02Aug2007                  :
 energy of atom  2       EATOM= -813.3670
 kinetic energy error for atom=    0.0018 (will be added to EATOM!!)
  PAW_PBE O 08Apr2002                   :
 energy of atom  3       EATOM= -432.3788
 kinetic energy error for atom=    0.0168 (will be added to EATOM!!)
 
 
 POSCAR: Li6 Co12 O24                            
  positions in cartesian coordinates
  No initial velocities read in
 exchange correlation table for  LEXCH =        8
   RHO(1)=    0.500       N(1)  =     2000
   RHO(2)=  100.500       N(2)  =     4000
 


--------------------------------------------------------------------------------------------------------


 ion  position               nearest neighbor table
   1  0.523  0.189  0.999-  26 2.00  37 2.08  23 2.21  38 2.22  36 2.23   9 2.48  25 2.51  15 2.87
                            17 3.03  16 3.10
   2  0.467  0.153  0.339-  33 2.00  32 2.03  21 2.09  22 2.22  31 2.31  20 2.40   9 2.51  13 2.79
                             3 2.80   3 2.83  11 2.94  14 2.96
   3  0.931  0.685  0.344-  34 1.96  19 2.08  33 2.11  20 2.18  32 2.22  21 2.49   8 2.55  14 2.74
                            11 2.80   2 2.80   2 2.83  12 2.87
   4  0.270  0.443  0.676-  40 1.98  42 2.00  39 2.09  28 2.09  27 2.18  29 2.33  16 2.65   5 2.66
                            15 2.71   6 2.73  17 2.82   6 2.89   5 2.96  14 2.97  12 3.03  11 3.10
   5  0.236  0.898  0.672-  41 1.99  40 2.05  39 2.12  28 2.14  30 2.18  27 2.24   4 2.66  16 2.75
                             6 2.80  18 2.82  15 2.82   6 2.84  12 2.88  13 2.92   4 2.96  11 3.05
   6  0.752  0.930  0.661-  29 1.97  39 2.08  30 2.08  41 2.13  42 2.16  28 2.19   4 2.73  13 2.78
                            11 2.80   5 2.80   5 2.84  17 2.86  14 2.87   4 2.89  16 2.95  18 2.97
   7  0.012  0.160  0.170-  23 1.82  20 1.85  19 1.85  25 1.88  24 1.90  22 1.97  10 2.75   9 2.77
                             8 2.77   8 2.83  10 2.84   9 2.85
   8  0.024  0.661  0.171-  20 1.82  24 1.82  21 1.84  19 1.90  26 1.94  23 1.96   3 2.55   9 2.77
                             7 2.77  10 2.80  10 2.82   9 2.82   7 2.83
   9  0.524  0.170  0.167-  25 1.87  22 1.87  23 1.93  26 1.96  21 1.98  20 1.99   1 2.48   2 2.51
                            10 2.74   8 2.77   7 2.77   8 2.82   7 2.85  10 2.86
  10  0.526  0.661  0.169-  25 1.86  22 1.87  26 1.88  19 1.88  24 1.90  21 1.90   9 2.74   7 2.75
                             8 2.80   8 2.82   7 2.84   9 2.86
  11  0.087  0.050  0.500-  34 1.81  32 1.85  31 1.87  29 1.87  30 1.89  27 1.95  14 2.75  13 2.79
                             3 2.80   6 2.80  12 2.80  12 2.81  13 2.83  14 2.84   2 2.94   5 3.05
  12  0.082  0.550  0.505-  28 1.86  30 1.86  29 1.93  33 1.94  32 1.95  31 1.99  14 2.71  13 2.77
                            11 2.80  11 2.81  13 2.83   3 2.87   5 2.88  14 2.91   4 3.03
  13  0.590  0.053  0.506-  32 1.84  33 1.89  29 1.89  27 1.89  28 1.95  34 2.03  12 2.77  14 2.77
                             6 2.78   2 2.79  11 2.79  11 2.83  12 2.83  14 2.83   5 2.92
  14  0.602  0.552  0.501-  34 1.88  30 1.88  33 1.93  27 1.93  31 1.93  28 1.95  12 2.71   3 2.74
                            11 2.75  13 2.77  13 2.83  11 2.84   6 2.87  12 2.91   2 2.96   4 2.97
  15  0.386  0.280  0.827-  35 1.85  36 1.89  41 1.93  39 1.93  42 1.96  37 1.98   4 2.71  18 2.78
                            17 2.78  16 2.78  18 2.82   5 2.82  16 2.82  17 2.84   1 2.87
  16  0.388  0.777  0.828-  41 1.82  35 1.89  38 1.89  42 1.92  36 1.93  40 1.98   4 2.65   5 2.75
                            15 2.78  18 2.79  17 2.79  17 2.80  15 2.82  18 2.83   6 2.95   1 3.10
  17  0.890  0.276  0.828-  37 1.82  40 1.84  38 1.86  39 1.87  35 1.93  41 1.99  15 2.78  18 2.79
                            16 2.79  16 2.80   4 2.82  18 2.82  15 2.84   6 2.86   1 3.03
  18  0.883  0.777  0.830-  42 1.80  36 1.86  37 1.88  39 1.97  40 2.00  38 2.07  15 2.78  16 2.79
                            17 2.79   5 2.82  15 2.82  17 2.82  16 2.83   6 2.97
  19  0.849  0.847  0.236-   7 1.85  10 1.88   8 1.90   3 2.08
  20  0.867  0.358  0.238-   8 1.82   7 1.85   9 1.99   3 2.18   2 2.40
  21  0.340  0.832  0.236-   8 1.84  10 1.90   9 1.98   2 2.09   3 2.49
  22  0.356  0.348  0.238-  10 1.87   9 1.87   7 1.97   2 2.22
  23  0.184  0.996  0.103-   7 1.82   9 1.93   8 1.96   1 2.21
  24  0.191  0.488  0.106-   8 1.82   7 1.90  10 1.90
  25  0.688  0.979  0.104-  10 1.86   9 1.87   7 1.88   1 2.51
  26  0.703  0.498  0.096-  10 1.88   8 1.94   9 1.96   1 2.00
  27  0.416  0.233  0.574-  13 1.89  14 1.93  11 1.95   4 2.18   5 2.24
  28  0.401  0.713  0.571-  12 1.86  14 1.95  13 1.95   4 2.09   5 2.14   6 2.19
  29  0.916  0.221  0.573-  11 1.87  13 1.89  12 1.93   6 1.97   4 2.33
  30  0.920  0.737  0.571-  12 1.86  14 1.88  11 1.89   6 2.08   5 2.18
  31  0.268  0.366  0.433-  11 1.87  14 1.93  12 1.99   2 2.31
  32  0.276  0.888  0.440-  13 1.84  11 1.85  12 1.95   2 2.03   3 2.22
  33  0.761  0.354  0.431-  13 1.89  14 1.93  12 1.94   2 2.00   3 2.11
  34  0.783  0.868  0.433-  11 1.81  14 1.88   3 1.96  13 2.03
  35  0.223  0.458  0.895-  15 1.85  16 1.89  17 1.93
  36  0.206  0.960  0.894-  18 1.86  15 1.89  16 1.93   1 2.23
  37  0.731  0.455  0.895-  17 1.82  18 1.88  15 1.98   1 2.08
  38  0.697  0.980  0.902-  17 1.86  16 1.89  18 2.07   1 2.22
  39  0.058  0.102  0.756-  17 1.87  15 1.93  18 1.97   6 2.08   4 2.09   5 2.12
  40  0.050  0.574  0.756-  17 1.84   4 1.98  16 1.98  18 2.00   5 2.05
  41  0.543  0.075  0.759-  16 1.82  15 1.93   5 1.99  17 1.99   6 2.13
  42  0.586  0.618  0.760-  18 1.80  16 1.92  15 1.96   4 2.00   6 2.16
 

IMPORTANT INFORMATION: All symmetrisations will be switched off!
NOSYMM: (Re-)initialisation of all symmetry stuff for point group C_1.

 
 

Automatic generation of k-mesh.
 generate k-points for:    6    6    2
Space group operators:
 irot       det(A)        alpha          n_x          n_y          n_z        tau_x        tau_y        tau_z
    1     1.000000     0.000000     1.000000     0.000000     0.000000     0.000000     0.000000     0.000000
 
 Subroutine IBZKPT returns following result:
 ===========================================
 
 Found     36 irreducible k-points:
 
 Following reciprocal coordinates:
            Coordinates               Weight
  0.083333  0.083333  0.250000      2.000000
  0.250000  0.083333  0.250000      2.000000
  0.416667  0.083333  0.250000      2.000000
 -0.416667  0.083333  0.250000      2.000000
 -0.250000  0.083333  0.250000      2.000000
 -0.083333  0.083333  0.250000      2.000000
  0.083333  0.250000  0.250000      2.000000
  0.250000  0.250000  0.250000      2.000000
  0.416667  0.250000  0.250000      2.000000
 -0.416667  0.250000  0.250000      2.000000
 -0.250000  0.250000  0.250000      2.000000
 -0.083333  0.250000  0.250000      2.000000
  0.083333  0.416667  0.250000      2.000000
  0.250000  0.416667  0.250000      2.000000
  0.416667  0.416667  0.250000      2.000000
 -0.416667  0.416667  0.250000      2.000000
 -0.250000  0.416667  0.250000      2.000000
 -0.083333  0.416667  0.250000      2.000000
  0.083333 -0.416667  0.250000      2.000000
  0.250000 -0.416667  0.250000      2.000000
  0.416667 -0.416667  0.250000      2.000000
 -0.416667 -0.416667  0.250000      2.000000
 -0.250000 -0.416667  0.250000      2.000000
 -0.083333 -0.416667  0.250000      2.000000
  0.083333 -0.250000  0.250000      2.000000
  0.250000 -0.250000  0.250000      2.000000
  0.416667 -0.250000  0.250000      2.000000
 -0.416667 -0.250000  0.250000      2.000000
 -0.250000 -0.250000  0.250000      2.000000
 -0.083333 -0.250000  0.250000      2.000000
  0.083333 -0.083333  0.250000      2.000000
  0.250000 -0.083333  0.250000      2.000000
  0.416667 -0.083333  0.250000      2.000000
 -0.416667 -0.083333  0.250000      2.000000
 -0.250000 -0.083333  0.250000      2.000000
 -0.083333 -0.083333  0.250000      2.000000
 
 Following cartesian coordinates:
            Coordinates               Weight
  0.014835  0.025853  0.017630      2.000000
  0.044504  0.043141  0.016279      2.000000
  0.074173  0.060429  0.014928      2.000000
 -0.074173 -0.026011  0.021684      2.000000
 -0.044504 -0.008723  0.020333      2.000000
 -0.014835  0.008565  0.018982      2.000000
  0.014835  0.060271  0.019932      2.000000
  0.044504  0.077559  0.018581      2.000000
  0.074173  0.094847  0.017229      2.000000
 -0.074173  0.008406  0.023985      2.000000
 -0.044504  0.025694  0.022634      2.000000
 -0.014835  0.042983  0.021283      2.000000
  0.014835  0.094688  0.022233      2.000000
  0.044504  0.111976  0.020882      2.000000
  0.074173  0.129264  0.019531      2.000000
 -0.074173  0.042824  0.026287      2.000000
 -0.044504  0.060112  0.024935      2.000000
 -0.014835  0.077400  0.023584      2.000000
  0.014835 -0.077400  0.010726      2.000000
  0.044504 -0.060112  0.009375      2.000000
  0.074173 -0.042824  0.008024      2.000000
 -0.074173 -0.129264  0.014780      2.000000
 -0.044504 -0.111976  0.013429      2.000000
 -0.014835 -0.094688  0.012078      2.000000
  0.014835 -0.042983  0.013028      2.000000
  0.044504 -0.025694  0.011677      2.000000
  0.074173 -0.008406  0.010325      2.000000
 -0.074173 -0.094847  0.017081      2.000000
 -0.044504 -0.077559  0.015730      2.000000
 -0.014835 -0.060271  0.014379      2.000000
  0.014835 -0.008565  0.015329      2.000000
  0.044504  0.008723  0.013978      2.000000
  0.074173  0.026011  0.012627      2.000000
 -0.074173 -0.060429  0.019383      2.000000
 -0.044504 -0.043141  0.018031      2.000000
 -0.014835 -0.025853  0.016680      2.000000
 


--------------------------------------------------------------------------------------------------------




 Dimension of arrays:
   k-points           NKPTS =     36   k-points in BZ     NKDIM =     36   number of bands    NBANDS=    160
   number of dos      NEDOS =    301   number of ions     NIONS =     42
   non local maximal  LDIM  =      6   non local SUM 2l+1 LMDIM =     18
   total plane-waves  NPLWV = 116640
   max r-space proj   IRMAX =   2800   max aug-charges    IRDMAX=  11803
   dimension x,y,z NGX =    36 NGY =   36 NGZ =   90
   dimension x,y,z NGXF=    72 NGYF=   72 NGZF=  180
   support grid    NGXF=    72 NGYF=   72 NGZF=  180
   ions per type =               6  12  24
   NGX,Y,Z   is equivalent  to a cutoff of  10.65, 10.68, 10.21 a.u.
   NGXF,Y,Z  is equivalent  to a cutoff of  21.31, 21.36, 20.42 a.u.

 SYSTEM =  LiCoO2                                  
 POSCAR =  Li6 Co12 O24                            

 Startparameter for this run:
   NWRITE =      2    write-flag & timer
   PREC   = normal    normal or accurate (medium, high low for compatibility)
   ISTART =      0    job   : 0-new  1-cont  2-samecut
   ICHARG =      2    charge: 1-file 2-atom 10-const
   ISPIN  =      2    spin polarized calculation?
   LNONCOLLINEAR =      F non collinear calculations
   LSORBIT =      F    spin-orbit coupling
   INIWAV =      1    electr: 0-lowe 1-rand  2-diag
   LASPH  =      F    aspherical Exc in radial PAW
   METAGGA=      F    non-selfconsistent MetaGGA calc.

 Electronic Relaxation 1
   ENCUT  =  600.0 eV  44.10 Ry    6.64 a.u.  11.22 11.19 29.27*2*pi/ulx,y,z
   ENINI  =  600.0     initial cutoff
   ENAUG  =  605.4 eV  augmentation charge cutoff
   NELM   =    600;   NELMIN=  2; NELMDL= -5     # of ELM steps 
   EDIFF  = 0.1E-05   stopping-criterion for ELM
   LREAL  =      T    real-space projection
   NLSPLINE    = F    spline interpolate recip. space projectors
   LCOMPAT=      F    compatible to vasp.4.4
   GGA_COMPAT  = T    GGA compatible to vasp.4.4-vasp.4.6
   LMAXPAW     = -100 max onsite density
   LMAXMIX     =    2 max onsite mixed and CHGCAR
   VOSKOWN=      0    Vosko Wilk Nusair interpolation
   ROPT   =   -0.00050  -0.00050  -0.00050
 Ionic relaxation
   EDIFFG = 0.1E-04   stopping-criterion for IOM
   NSW    =      0    number of steps for IOM
   NBLOCK =      1;   KBLOCK =      1    inner block; outer block 
   IBRION =     -1    ionic relax: 0-MD 1-quasi-New 2-CG
   NFREE  =      0    steps in history (QN), initial steepest desc. (CG)
   ISIF   =      2    stress and relaxation
   IWAVPR =     10    prediction:  0-non 1-charg 2-wave 3-comb
   ISYM   =      0    0-nonsym 1-usesym 2-fastsym
   LCORR  =      T    Harris-Foulkes like correction to forces

   POTIM  = 0.5000    time-step for ionic-motion
   TEIN   =    0.0    initial temperature
   TEBEG  =    0.0;   TEEND  =   0.0 temperature during run
   SMASS  =  -3.00    Nose mass-parameter (am)
   estimated Nose-frequenzy (Omega)   =  0.10E-29 period in steps =****** mass=  -0.721E-27a.u.
   SCALEE = 1.0000    scale energy and forces
   NPACO  =    256;   APACO  = 16.0  distance and # of slots for P.C.
   PSTRESS=    0.0 pullay stress

  Mass of Ions in am
   POMASS =   7.01 58.93 16.00
  Ionic Valenz
   ZVAL   =   1.00  9.00  6.00
  Atomic Wigner-Seitz radii
   RWIGS  =  -1.00 -1.00 -1.00
  virtual crystal weights 
   VCA    =   1.00  1.00  1.00
   NELECT =     258.0000    total number of electrons
   NUPDOWN=       6.0000    fix difference up-down

 DOS related values:
   EMIN   =  10.00;   EMAX   =-10.00  energy-range for DOS
   EFERMI =   0.00
   ISMEAR =     0;   SIGMA  =   0.05  broadening in eV -4-tet -1-fermi 0-gaus

 Electronic relaxation 2 (details)
   IALGO  =     58    algorithm
   LDIAG  =      T    sub-space diagonalisation (order eigenvalues)
   LSUBROT=      F    optimize rotation matrix (better conditioning)
   TURBO    =      0    0=normal 1=particle mesh
   IRESTART =      0    0=no restart 2=restart with 2 vectors
   NREBOOT  =      0    no. of reboots
   NMIN     =      0    reboot dimension
   EREF     =   0.00    reference energy to select bands
   IMIX   =      4    mixing-type and parameters
     AMIX     =   0.40;   BMIX     =  1.00
     AMIX_MAG =   1.60;   BMIX_MAG =  1.00
     AMIN     =   0.10
     WC   =   100.;   INIMIX=   1;  MIXPRE=   1;  MAXMIX= -45

 Intra band minimization:
   WEIMIN = 0.0000     energy-eigenvalue tresh-hold
   EBREAK =  0.16E-08  absolut break condition
   DEPER  =   0.30     relativ break condition  

   TIME   =   0.40     timestep for ELM

  volume/ion in A,a.u.               =       9.44        63.69
  Fermi-wavevector in a.u.,A,eV,Ry     =   1.418724  2.681000 27.385510  2.012778
  Thomas-Fermi vector in A             =   2.539820
 
 Write flags
   LWAVE        =      F    write WAVECAR
   LDOWNSAMPLE  =      F    k-point downsampling of WAVECAR
   LCHARG       =      F    write CHGCAR
   LVTOT        =      F    write LOCPOT, total local potential
   LVHAR        =      F    write LOCPOT, Hartree potential only
   LELF         =      F    write electronic localiz. function (ELF)
   LORBIT       =     11    0 simple, 1 ext, 2 COOP (PROOUT), +10 PAW based schemes


 Dipole corrections
   LMONO  =      F    monopole corrections only (constant potential shift)
   LDIPOL =      F    correct potential (dipole corrections)
   IDIPOL =      0    1-x, 2-y, 3-z, 4-all directions 
   EPSILON=  1.0000000 bulk dielectric constant

 LDA+U is selected, type is set to LDAUTYPE =  2
   angular momentum for each species LDAUL =    -1    2   -1
   U (eV)           for each species LDAUU =   0.0  5.1  0.0
   J (eV)           for each species LDAUJ =   0.0  0.0  0.0
 Exchange correlation treatment:
   GGA     =    --    GGA type
   LEXCH   =     8    internal setting for exchange type
   VOSKOWN=      0    Vosko Wilk Nusair interpolation
   LHFCALC =     F    Hartree Fock is set to
   LHFONE  =     F    Hartree Fock one center treatment
   AEXX    =    0.0000 exact exchange contribution

 Linear response parameters
   LEPSILON=     F    determine dielectric tensor
   LRPA    =     F    only Hartree local field effects (RPA)
   LNABLA  =     F    use nabla operator in PAW spheres
   LVEL    =     F    velocity operator in full k-point grid
   LINTERFAST=   F  fast interpolation
   KINTER  =     0    interpolate to denser k-point grid
   CSHIFT  =0.1000    complex shift for real part using Kramers Kronig
   OMEGAMAX=  -1.0    maximum frequency
   DEG_THRESHOLD= 0.2000000E-02 threshold for treating states as degnerate
   RTIME   =   -0.100 relaxation time in fs
  (WPLASMAI=    0.000 imaginary part of plasma frequency in eV, 0.658/RTIME)
   DFIELD  = 0.0000000 0.0000000 0.0000000 field for delta impulse in time
 
 Orbital magnetization related:
   ORBITALMAG=     F  switch on orbital magnetization
   LCHIMAG   =     F  perturbation theory with respect to B field
   DQ        =  0.001000  dq finite difference perturbation B field
   LLRAUG    =     F  two centre corrections for induced B field



--------------------------------------------------------------------------------------------------------


 Static calculation
 charge density and potential will be updated during run
 spin polarized calculation
 Conjugate gradient for all bands (Freysoldt, et al. PRB 79, 241103 (2009))
 preconditioned conjugated gradient                                        
 perform sub-space diagonalisation
    before iterative eigenvector-optimisation
 modified Broyden-mixing scheme, WC =      100.0
 initial mixing is a Kerker type mixing with AMIX =  0.4000 and BMIX =      1.0000
 Hartree-type preconditioning will be used
 using additional bands           31
 real space projection scheme for non local part
 use partial core corrections
 no Harris-corrections to forces 
 use gradient corrections 
 use of overlap-Matrix (Vanderbilt PP)
 Gauss-broadening in eV      SIGMA  =   0.05


--------------------------------------------------------------------------------------------------------


  energy-cutoff  :      600.00
  volume of cell :      396.42
      direct lattice vectors                 reciprocal lattice vectors
     5.617487431  0.000000000  0.000000000     0.178015530  0.103728266 -0.008106993
    -2.821670294  4.842471123  0.000000000     0.000000000  0.206506136  0.013808073
     1.231436610 -0.974408984 14.572738647     0.000000000  0.000000000  0.068621281

  length of vectors
     5.617487431  5.604582930 14.657101374     0.206191186  0.206967261  0.068621281


 
 k-points in units of 2pi/SCALE and weight: read from INCAR                         
   0.01483463  0.02585287  0.01763041       0.028
   0.04450388  0.04314091  0.01627924       0.028
   0.07417314  0.06042896  0.01492808       0.028
  -0.07417314 -0.02601127  0.02168391       0.028
  -0.04450388 -0.00872322  0.02033274       0.028
  -0.01483463  0.00856482  0.01898158       0.028
   0.01483463  0.06027056  0.01993176       0.028
   0.04450388  0.07755860  0.01858059       0.028
   0.07417314  0.09484664  0.01722942       0.028
  -0.07417314  0.00840642  0.02398525       0.028
  -0.04450388  0.02569447  0.02263409       0.028
  -0.01483463  0.04298251  0.02128292       0.028
   0.01483463  0.09468825  0.02223310       0.028
   0.04450388  0.11197629  0.02088194       0.028
   0.07417314  0.12926433  0.01953077       0.028
  -0.07417314  0.04282411  0.02628660       0.028
  -0.04450388  0.06011216  0.02493543       0.028
  -0.01483463  0.07740020  0.02358427       0.028
   0.01483463 -0.07740020  0.01072637       0.028
   0.04450388 -0.06011216  0.00937521       0.028
   0.07417314 -0.04282411  0.00802404       0.028
  -0.07417314 -0.12926433  0.01477987       0.028
  -0.04450388 -0.11197629  0.01342870       0.028
  -0.01483463 -0.09468825  0.01207754       0.028
   0.01483463 -0.04298251  0.01302772       0.028
   0.04450388 -0.02569447  0.01167655       0.028
   0.07417314 -0.00840642  0.01032539       0.028
  -0.07417314 -0.09484664  0.01708122       0.028
  -0.04450388 -0.07755860  0.01573005       0.028
  -0.01483463 -0.06027056  0.01437888       0.028
   0.01483463 -0.00856482  0.01532906       0.028
   0.04450388  0.00872322  0.01397790       0.028
   0.07417314  0.02601127  0.01262673       0.028
  -0.07417314 -0.06042896  0.01938256       0.028
  -0.04450388 -0.04314091  0.01803140       0.028
  -0.01483463 -0.02585287  0.01668023       0.028
 
 k-points in reciprocal lattice and weights: read from INCAR                         
   0.08333333  0.08333333  0.25000000       0.028
   0.25000000  0.08333333  0.25000000       0.028
   0.41666667  0.08333333  0.25000000       0.028
  -0.41666667  0.08333333  0.25000000       0.028
  -0.25000000  0.08333333  0.25000000       0.028
  -0.08333333  0.08333333  0.25000000       0.028
   0.08333333  0.25000000  0.25000000       0.028
   0.25000000  0.25000000  0.25000000       0.028
   0.41666667  0.25000000  0.25000000       0.028
  -0.41666667  0.25000000  0.25000000       0.028
  -0.25000000  0.25000000  0.25000000       0.028
  -0.08333333  0.25000000  0.25000000       0.028
   0.08333333  0.41666667  0.25000000       0.028
   0.25000000  0.41666667  0.25000000       0.028
   0.41666667  0.41666667  0.25000000       0.028
  -0.41666667  0.41666667  0.25000000       0.028
  -0.25000000  0.41666667  0.25000000       0.028
  -0.08333333  0.41666667  0.25000000       0.028
   0.08333333 -0.41666667  0.25000000       0.028
   0.25000000 -0.41666667  0.25000000       0.028
   0.41666667 -0.41666667  0.25000000       0.028
  -0.41666667 -0.41666667  0.25000000       0.028
  -0.25000000 -0.41666667  0.25000000       0.028
  -0.08333333 -0.41666667  0.25000000       0.028
   0.08333333 -0.25000000  0.25000000       0.028
   0.25000000 -0.25000000  0.25000000       0.028
   0.41666667 -0.25000000  0.25000000       0.028
  -0.41666667 -0.25000000  0.25000000       0.028
  -0.25000000 -0.25000000  0.25000000       0.028
  -0.08333333 -0.25000000  0.25000000       0.028
   0.08333333 -0.08333333  0.25000000       0.028
   0.25000000 -0.08333333  0.25000000       0.028
   0.41666667 -0.08333333  0.25000000       0.028
  -0.41666667 -0.08333333  0.25000000       0.028
  -0.25000000 -0.08333333  0.25000000       0.028
  -0.08333333 -0.08333333  0.25000000       0.028
 
 position of ions in fractional coordinates (direct lattice) 
   0.52347264  0.18886767  0.99948405
   0.46664035  0.15307717  0.33889444
   0.93076864  0.68463318  0.34393808
   0.26950713  0.44250682  0.67649881
   0.23638740  0.89809437  0.67244466
   0.75187017  0.93016498  0.66078728
   0.01152449  0.16020664  0.17031459
   0.02355828  0.66127094  0.17081690
   0.52407421  0.17033118  0.16746955
   0.52596860  0.66092689  0.16938408
   0.08736468  0.05042818  0.50039256
   0.08205715  0.54997668  0.50520496
   0.59012710  0.05291573  0.50635095
   0.60235857  0.55237205  0.50113025
   0.38629626  0.27991627  0.82672311
   0.38779485  0.77735095  0.82779362
   0.88965155  0.27633249  0.82753970
   0.88270376  0.77651246  0.83001008
   0.84934736  0.84665324  0.23637287
   0.86706779  0.35830161  0.23799576
   0.34011740  0.83184295  0.23645659
   0.35586559  0.34771059  0.23750648
   0.18448349  0.99569277  0.10306093
   0.19123175  0.48787675  0.10588881
   0.68772526  0.97884412  0.10424191
   0.70308956  0.49803401  0.09584815
   0.41572383  0.23314604  0.57365334
   0.40108957  0.71304436  0.57127628
   0.91601823  0.22050876  0.57283675
   0.92005759  0.73677643  0.57094965
   0.26841306  0.36643050  0.43314370
   0.27646883  0.88782696  0.43959615
   0.76098643  0.35396124  0.43082226
   0.78288851  0.86790622  0.43278619
   0.22327513  0.45800746  0.89520716
   0.20569879  0.96021052  0.89420530
   0.73146120  0.45480919  0.89491208
   0.69686692  0.98014645  0.90203496
   0.05785088  0.10160358  0.75619418
   0.04975789  0.57355238  0.75567948
   0.54306837  0.07544219  0.75881548
   0.58641932  0.61791657  0.75992028
 
 position of ions in cartesian coordinates  (Angst):
   3.63847995 -0.05932000 14.56521988
   2.60674000  0.41104999  4.93862009
   3.72030997  2.98018003  5.01211977
   1.09841001  1.48363996  9.85844040
  -0.37814999  3.69375992  9.79936028
   2.41271996  3.86041999  9.62948036
  -0.17758000  0.60983998  2.48195004
  -1.52320004  3.03573990  2.48926997
   2.66959000  0.66163999  2.44049001
   1.29829001  3.03547001  2.46838999
   0.96468002 -0.24338999  7.29208994
  -0.46877000  2.17096996  7.36221981
   3.78925991 -0.23715000  7.37892008
   2.44224000  2.18653989  7.30284023
   2.39824009  0.54992002 12.04761982
   1.00437999  2.95769000 12.06322002
   5.23694992  0.53176999 12.05951977
   3.78961992  2.95146990 12.09552002
   2.67330003  3.86957002  3.44460011
   4.15281010  1.50316000  3.46825004
  -0.14540000  3.79777002  3.44582009
   1.31042004  1.45235002  3.46111989
  -1.64627004  4.72118998  1.50188005
  -0.17199001  2.25935006  1.54308999
   1.22967994  4.63845015  1.51909006
   2.66233993  2.31832004  1.39677000
   2.38387990  0.57002997  8.35970020
   0.94463003  2.89624000  8.32505989
   5.22893000  0.50963002  8.34780025
   3.79256010  3.01148009  8.32030010
   1.00724995  1.35237002  6.31208992
  -0.41075999  3.87092996  6.40611982
   3.80660009  1.29425001  6.27826023
   2.48186994  3.78110003  6.30688000
   1.06429005  1.34559000 13.04561996
  -0.45273000  3.77847004 13.03102016
   3.92768002  1.33038998 13.04131985
   2.25978994  3.86737990 13.14511967
   0.96948999 -0.24483000 11.01982021
  -0.40829000  2.04106998 11.01231956
   3.77223992 -0.37406999 11.05801964
   2.48643994  2.25177002 11.07411957
 


--------------------------------------------------------------------------------------------------------


 k-point  1 :   0.0833 0.0833 0.2500  plane waves:   13223
 k-point  2 :   0.2500 0.0833 0.2500  plane waves:   13229
 k-point  3 :   0.4167 0.0833 0.2500  plane waves:   13250
 k-point  4 :  -0.4167 0.0833 0.2500  plane waves:   13236
 k-point  5 :  -0.2500 0.0833 0.2500  plane waves:   13201
 k-point  6 :  -0.0833 0.0833 0.2500  plane waves:   13228
 k-point  7 :   0.0833 0.2500 0.2500  plane waves:   13234
 k-point  8 :   0.2500 0.2500 0.2500  plane waves:   13241
 k-point  9 :   0.4167 0.2500 0.2500  plane waves:   13241
 k-point 10 :  -0.4167 0.2500 0.2500  plane waves:   13235
 k-point 11 :  -0.2500 0.2500 0.2500  plane waves:   13209
 k-point 12 :  -0.0833 0.2500 0.2500  plane waves:   13215
 k-point 13 :   0.0833 0.4167 0.2500  plane waves:   13240
 k-point 14 :   0.2500 0.4167 0.2500  plane waves:   13236
 k-point 15 :   0.4167 0.4167 0.2500  plane waves:   13230
 k-point 16 :  -0.4167 0.4167 0.2500  plane waves:   13233
 k-point 17 :  -0.2500 0.4167 0.2500  plane waves:   13212
 k-point 18 :  -0.0833 0.4167 0.2500  plane waves:   13250
 k-point 19 :   0.0833-0.4167 0.2500  plane waves:   13227
 k-point 20 :   0.2500-0.4167 0.2500  plane waves:   13229
 k-point 21 :   0.4167-0.4167 0.2500  plane waves:   13227
 k-point 22 :  -0.4167-0.4167 0.2500  plane waves:   13251
 k-point 23 :  -0.2500-0.4167 0.2500  plane waves:   13254
 k-point 24 :  -0.0833-0.4167 0.2500  plane waves:   13240
 k-point 25 :   0.0833-0.2500 0.2500  plane waves:   13212
 k-point 26 :   0.2500-0.2500 0.2500  plane waves:   13217
 k-point 27 :   0.4167-0.2500 0.2500  plane waves:   13220
 k-point 28 :  -0.4167-0.2500 0.2500  plane waves:   13245
 k-point 29 :  -0.2500-0.2500 0.2500  plane waves:   13243
 k-point 30 :  -0.0833-0.2500 0.2500  plane waves:   13230
 k-point 31 :   0.0833-0.0833 0.2500  plane waves:   13243
 k-point 32 :   0.2500-0.0833 0.2500  plane waves:   13207
 k-point 33 :   0.4167-0.0833 0.2500  plane waves:   13236
 k-point 34 :  -0.4167-0.0833 0.2500  plane waves:   13233
 k-point 35 :  -0.2500-0.0833 0.2500  plane waves:   13215
 k-point 36 :  -0.0833-0.0833 0.2500  plane waves:   13201

 maximum and minimum number of plane-waves per node :      3350     3277

 maximum number of plane-waves:     13254
 maximum index in each direction: 
   IXMAX=   11   IYMAX=   11   IZMAX=   29
   IXMIN=  -11   IYMIN=  -11   IZMIN=  -29


 real space projection operators:
  total allocation   :       7488.22 KBytes
  max/ min on nodes  :       1875.09       1867.48


 parallel 3D FFT for wavefunctions:
    minimum data exchange during FFTs selected (reduces bandwidth)
 parallel 3D FFT for charge:
    minimum data exchange during FFTs selected (reduces bandwidth)


 total amount of memory used by VASP MPI-rank0   160958. kBytes
=======================================================================

   base      :      30000. kBytes
   nonlr-proj:       4292. kBytes
   fftplans  :       1689. kBytes
   grid      :       4644. kBytes
   one-center:        342. kBytes
   wavefun   :     119991. kBytes
 
     INWAV:  cpu time    0.0000: real time    0.0002
 Broyden mixing: mesh for mixing (old mesh)
   NGX = 23   NGY = 23   NGZ = 59
  (NGX  = 72   NGY  = 72   NGZ  =180)
  gives a total of  31211 points

 initial charge density was supplied:
 charge density of overlapping atoms calculated
 number of electron     258.0000000 magnetization       6.0000000
 keeping initial charge density in first step


--------------------------------------------------------------------------------------------------------


 Maximum index for non-local projection operator          687
 Maximum index for augmentation-charges          945 (set IRDMAX)


--------------------------------------------------------------------------------------------------------


 First call to EWALD:  gamma=   0.241
 Maximum number of real-space cells 4x 4x 2
 Maximum number of reciprocal cells 2x 2x 5

    FEWALD:  cpu time    0.0053: real time    0.0053


--------------------------------------- Iteration      1(   1)  ---------------------------------------


    POTLOK:  cpu time    0.0707: real time    0.0840
    SETDIJ:  cpu time    0.0184: real time    0.0196
    TRIAL :  cpu time   26.1897: real time   26.2697
    CORREC:  cpu time    0.0045: real time    0.0045
    --------------------------------------------
      LOOP:  cpu time   26.5129: real time   26.6082

 eigenvalue-minimisations  : 23040
 total energy-change (2. order) : 0.3482682E+04  (-0.1396681E+05)
 number of electron     258.0000000 magnetization       6.0000000
 augmentation part      258.0000000 magnetization       6.0000000

 Free energy of the ion-electron system (eV)
  ---------------------------------------------------
  alpha Z        PSCENC =       739.54462131
  Ewald energy   TEWEN  =    -13574.13172356
  -Hartree energ DENC   =     -7410.49586039
  -exchange      EXHF   =         0.00000000
  -V(xc)+E(xc)   XCENC  =       842.98762409
  PAW double counting   =     17015.18481625   -17491.61297812
  entropy T*S    EENTRO =        -0.00575571
  eigenvalues    EBANDS =      3192.33994478
  atomic energy  EATOM  =     20168.87094289
  ---------------------------------------------------
  free energy    TOTEN  =      3482.68163153 eV

  energy without entropy =     3482.68738725  energy(sigma->0) =     3482.68450939


--------------------------------------------------------------------------------------------------------




--------------------------------------- Iteration      1(   2)  ---------------------------------------


    TRIAL :  cpu time   27.0330: real time   27.1119
    CORREC:  cpu time    0.0042: real time    0.0042
    --------------------------------------------
      LOOP:  cpu time   27.0748: real time   27.1537

 eigenvalue-minimisations  : 24976
 total energy-change (2. order) :-0.3074226E+04  (-0.2832137E+04)
 number of electron     258.0000000 magnetization       6.0000000
 augmentation part      258.0000000 magnetization       6.0000000

 Free energy of the ion-electron system (eV)
  ---------------------------------------------------
  alpha Z        PSCENC =       739.54462131
  Ewald energy   TEWEN  =    -13574.13172356
  -Hartree energ DENC   =     -7410.49586039
  -exchange      EXHF   =         0.00000000
  -V(xc)+E(xc)   XCENC  =       842.98762409
  PAW double counting   =     17015.18481625   -17491.61297812
  entropy T*S    EENTRO =        -0.02207628
  eigenvalues    EBANDS =       118.12990577
  atomic energy  EATOM  =     20168.87094289
  ---------------------------------------------------
  free energy    TOTEN  =       408.45527196 eV

  energy without entropy =      408.47734824  energy(sigma->0) =      408.46631010


--------------------------------------------------------------------------------------------------------




--------------------------------------- Iteration      1(   3)  ---------------------------------------


    TRIAL :  cpu time   27.9492: real time   28.0200
    CORREC:  cpu time    0.0042: real time    0.0042
    --------------------------------------------
      LOOP:  cpu time   27.9537: real time   28.0245

 eigenvalue-minimisations  : 25664
 total energy-change (2. order) :-0.6280977E+03  (-0.5734160E+03)
 number of electron     258.0000000 magnetization       6.0000000
 augmentation part      258.0000000 magnetization       6.0000000

 Free energy of the ion-electron system (eV)
  ---------------------------------------------------
  alpha Z        PSCENC =       739.54462131
  Ewald energy   TEWEN  =    -13574.13172356
  -Hartree energ DENC   =     -7410.49586039
  -exchange      EXHF   =         0.00000000
  -V(xc)+E(xc)   XCENC  =       842.98762409
  PAW double counting   =     17015.18481625   -17491.61297812
  entropy T*S    EENTRO =        -0.03542617
  eigenvalues    EBANDS =      -509.95439778
  atomic energy  EATOM  =     20168.87094289
  ---------------------------------------------------
  free energy    TOTEN  =      -219.64238148 eV

  energy without entropy =     -219.60695531  energy(sigma->0) =     -219.62466839


--------------------------------------------------------------------------------------------------------




--------------------------------------- Iteration      1(   4)  ---------------------------------------


    TRIAL :  cpu time   27.4388: real time   27.5267
    CORREC:  cpu time    0.0033: real time    0.0033
    --------------------------------------------
      LOOP:  cpu time   27.4424: real time   27.5303

 eigenvalue-minimisations  : 25328
 total energy-change (2. order) :-0.5037986E+02  (-0.4933612E+02)
 number of electron     258.0000000 magnetization       6.0000000
 augmentation part      258.0000000 magnetization       6.0000000

 Free energy of the ion-electron system (eV)
  ---------------------------------------------------
  alpha Z        PSCENC =       739.54462131
  Ewald energy   TEWEN  =    -13574.13172356
  -Hartree energ DENC   =     -7410.49586039
  -exchange      EXHF   =         0.00000000
  -V(xc)+E(xc)   XCENC  =       842.98762409
  PAW double counting   =     17015.18481625   -17491.61297812
  entropy T*S    EENTRO =        -0.04071640
  eigenvalues    EBANDS =      -560.32896399
  atomic energy  EATOM  =     20168.87094289
  ---------------------------------------------------
  free energy    TOTEN  =      -270.02223792 eV

  energy without entropy =     -269.98152153  energy(sigma->0) =     -270.00187973


--------------------------------------------------------------------------------------------------------




--------------------------------------- Iteration      1(   5)  ---------------------------------------


    TRIAL :  cpu time   30.1642: real time   30.2366
    CORREC:  cpu time    0.0045: real time    0.0045
    CHARGE:  cpu time    0.4926: real time    0.4934
    --------------------------------------------
      LOOP:  cpu time   30.6617: real time   30.7350

 eigenvalue-minimisations  : 28528
 total energy-change (2. order) :-0.1762843E+01  (-0.1759494E+01)
 number of electron     257.9999928 magnetization       6.0000007
 augmentation part       68.0780681 magnetization       4.3099424

 Free energy of the ion-electron system (eV)
  ---------------------------------------------------
  alpha Z        PSCENC =       739.54462131
  Ewald energy   TEWEN  =    -13574.13172356
  -Hartree energ DENC   =     -7410.49586039
  -exchange      EXHF   =         0.00000000
  -V(xc)+E(xc)   XCENC  =       842.98762409
  PAW double counting   =     17015.18481625   -17491.61297812
  entropy T*S    EENTRO =        -0.04069957
  eigenvalues    EBANDS =      -562.09182352
  atomic energy  EATOM  =     20168.87094289
  ---------------------------------------------------
  free energy    TOTEN  =      -271.78508063 eV

  energy without entropy =     -271.74438106  energy(sigma->0) =     -271.76473084


--------------------------------------------------------------------------------------------------------




--------------------------------------- Iteration      1(   6)  ---------------------------------------


    POTLOK:  cpu time    0.0487: real time    0.0489
    SETDIJ:  cpu time    0.0134: real time    0.0134
    TRIAL :  cpu time   14.7300: real time   14.7707
    CORREC:  cpu time    4.6816: real time    4.6913
    CHARGE:  cpu time    0.5021: real time    0.5027
    --------------------------------------------
      LOOP:  cpu time   19.9764: real time   20.0276

 eigenvalue-minimisations  :     0
 total energy-change (2. order) : 0.3908064E+03  (-0.4228276E+03)
 number of electron     257.9999946 magnetization       5.9999993
 augmentation part       70.9600696 magnetization       4.4407543

 Free energy of the ion-electron system (eV)
  ---------------------------------------------------
  alpha Z        PSCENC =       739.54462131
  Ewald energy   TEWEN  =    -13574.13172356
  -Hartree energ DENC   =     -7161.77471606
  -exchange      EXHF   =         0.00000000
  -V(xc)+E(xc)   XCENC  =       877.80291818
  PAW double counting   =     23756.48192613   -23966.69544406
  entropy T*S    EENTRO =        -0.07542174
  eigenvalues    EBANDS =      -721.03654063
  atomic energy  EATOM  =     20168.87094289
  ---------------------------------------------------
  free energy    TOTEN  =       119.02128462 eV

  energy without entropy =      119.09670636  energy(sigma->0) =      119.05899549


--------------------------------------------------------------------------------------------------------




--------------------------------------- Iteration      1(   7)  ---------------------------------------


    POTLOK:  cpu time    0.0484: real time    0.0485
    SETDIJ:  cpu time    0.0133: real time    0.0134
    TRIAL :  cpu time   14.4307: real time   14.4648
    CORREC:  cpu time    4.7338: real time    4.7428
    CHARGE:  cpu time    0.5030: real time    0.5039
    --------------------------------------------
      LOOP:  cpu time   19.7299: real time   19.7745

 eigenvalue-minimisations  :     0
 total energy-change (2. order) :-0.8081531E+02  (-0.3458533E+03)
 number of electron     257.9999956 magnetization       5.9999997
 augmentation part       72.6761992 magnetization       3.8130552

 Free energy of the ion-electron system (eV)
  ---------------------------------------------------
  alpha Z        PSCENC =       739.54462131
  Ewald energy   TEWEN  =    -13574.13172356
  -Hartree energ DENC   =     -7066.73914906
  -exchange      EXHF   =         0.00000000
  -V(xc)+E(xc)   XCENC  =       866.81801119
  PAW double counting   =     23806.03115036   -24135.15838446
  entropy T*S    EENTRO =        -0.04738172
  eigenvalues    EBANDS =      -766.95407425
  atomic energy  EATOM  =     20168.87094289
  ---------------------------------------------------
  free energy    TOTEN  =        38.20597267 eV

  energy without entropy =       38.25335438  energy(sigma->0) =       38.22966353


--------------------------------------------------------------------------------------------------------




--------------------------------------- Iteration      1(   8)  ---------------------------------------


    POTLOK:  cpu time    0.0483: real time    0.0485
    SETDIJ:  cpu time    0.0134: real time    0.0134
    TRIAL :  cpu time   14.6248: real time   14.6560
    CORREC:  cpu time    4.9334: real time    4.9449
    CHARGE:  cpu time    0.4895: real time    0.4901
    --------------------------------------------
      LOOP:  cpu time   20.1098: real time   20.1534

 eigenvalue-minimisations  :     0
 total energy-change (2. order) : 0.3575701E+03  (-0.2642125E+04)
 number of electron     257.9999981 magnetization       5.9999998
 augmentation part       53.2838512 magnetization       1.1751468

 Free energy of the ion-electron system (eV)
  ---------------------------------------------------
  alpha Z        PSCENC =       739.54462131
  Ewald energy   TEWEN  =    -13574.13172356
  -Hartree energ DENC   =     -7433.61426074
  -exchange      EXHF   =         0.00000000
  -V(xc)+E(xc)   XCENC  =       851.31022995
  PAW double counting   =     23794.11899069   -24220.22556426
  entropy T*S    EENTRO =        -0.02965047
  eigenvalues    EBANDS =        69.95022699
  atomic energy  EATOM  =     20168.87094289
  ---------------------------------------------------
  free energy    TOTEN  =       395.77608154 eV

  energy without entropy =      395.80573201  energy(sigma->0) =      395.79090677


--------------------------------------------------------------------------------------------------------




--------------------------------------- Iteration      1(   9)  ---------------------------------------


    POTLOK:  cpu time    0.0476: real time    0.0477
    SETDIJ:  cpu time    0.0134: real time    0.0134
    TRIAL :  cpu time   14.8323: real time   14.8624
    CORREC:  cpu time    4.7799: real time    4.7901
    CHARGE:  cpu time    0.5025: real time    0.5030
    --------------------------------------------
      LOOP:  cpu time   20.1763: real time   20.2176

 eigenvalue-minimisations  :     0
 total energy-change (2. order) : 0.2397001E+04  (-0.1530472E+04)
 number of electron     257.9999972 magnetization       5.9999999
 augmentation part       60.0967180 magnetization       1.0563546

 Free energy of the ion-electron system (eV)
  ---------------------------------------------------
  alpha Z        PSCENC =       739.54462131
  Ewald energy   TEWEN  =    -13574.13172356
  -Hartree energ DENC   =     -5800.03647212
  -exchange      EXHF   =         0.00000000
  -V(xc)+E(xc)   XCENC  =       734.36369755
  PAW double counting   =    281476.26571025  -281206.29216182
  entropy T*S    EENTRO =        -0.03158253
  eigenvalues    EBANDS =       254.22226922
  atomic energy  EATOM  =     20168.87094289
  ---------------------------------------------------
  free energy    TOTEN  =      2792.77723325 eV

  energy without entropy =     2792.80881578  energy(sigma->0) =     2792.79302452


--------------------------------------------------------------------------------------------------------




--------------------------------------- Iteration      1(  10)  ---------------------------------------


    POTLOK:  cpu time    0.0491: real time    0.0500
    SETDIJ:  cpu time    0.0133: real time    0.0136
    TRIAL :  cpu time   14.2687: real time   14.5603
    CORREC:  cpu time    4.6151: real time    4.7445
    CHARGE:  cpu time    0.4890: real time    0.5061
    --------------------------------------------
      LOOP:  cpu time   19.4358: real time   19.8750

 eigenvalue-minimisations  :     0
 total energy-change (2. order) : 0.5053755E+03  (-0.6456577E+04)
 number of electron     257.9999958 magnetization       5.9999999
 augmentation part       63.0092380 magnetization       1.1515288

 Free energy of the ion-electron system (eV)
  ---------------------------------------------------
  alpha Z        PSCENC =       739.54462131
  Ewald energy   TEWEN  =    -13574.13172356
  -Hartree energ DENC   =     -6453.09531425
  -exchange      EXHF   =         0.00000000
  -V(xc)+E(xc)   XCENC  =       735.42104140
  PAW double counting   =    122116.59090707  -122154.88944789
  entropy T*S    EENTRO =        -0.01332791
  eigenvalues    EBANDS =      1719.87331937
  atomic energy  EATOM  =     20168.87094289
  ---------------------------------------------------
  free energy    TOTEN  =      3298.15276380 eV

  energy without entropy =     3298.16609172  energy(sigma->0) =     3298.15942776


--------------------------------------------------------------------------------------------------------




--------------------------------------- Iteration      1(  11)  ---------------------------------------


    POTLOK:  cpu time    0.1218: real time    0.1232
    SETDIJ:  cpu time    0.0131: real time    0.0134
    TRIAL :  cpu time   14.4904: real time   14.6457
    CORREC:  cpu time    4.7417: real time    4.8462
    CHARGE:  cpu time    0.4778: real time    0.4945
    --------------------------------------------
      LOOP:  cpu time   19.8454: real time   20.1235

 eigenvalue-minimisations  :     0
 total energy-change (2. order) : 0.6915543E+03  (-0.3753922E+04)
 number of electron     257.9999984 magnetization       6.0000000
 augmentation part       71.6762286 magnetization       1.2355952

 Free energy of the ion-electron system (eV)
  ---------------------------------------------------
  alpha Z        PSCENC =       739.54462131
  Ewald energy   TEWEN  =    -13574.13172356
  -Hartree energ DENC   =     -7781.65645630
  -exchange      EXHF   =         0.00000000
  -V(xc)+E(xc)   XCENC  =       745.49076255
  PAW double counting   =    105490.47295678  -105627.37578912
  entropy T*S    EENTRO =        -0.03019915
  eigenvalues    EBANDS =      3828.50503723
  atomic energy  EATOM  =     20168.87094289
  ---------------------------------------------------
  free energy    TOTEN  =      3989.70702387 eV

  energy without entropy =     3989.73722302  energy(sigma->0) =     3989.72212344


--------------------------------------------------------------------------------------------------------




--------------------------------------- Iteration      1(  12)  ---------------------------------------


    POTLOK:  cpu time    0.0478: real time    0.0487
    SETDIJ:  cpu time    0.0132: real time    0.0134
    TRIAL :  cpu time   14.8270: real time   15.0496
    CORREC:  cpu time    4.7047: real time    4.7205
    CHARGE:  cpu time    0.5001: real time    0.5015
    --------------------------------------------
      LOOP:  cpu time   20.0934: real time   20.3344

 eigenvalue-minimisations  :     0
 total energy-change (2. order) :-0.2260990E+04  (-0.3363607E+03)
 number of electron     257.9999975 magnetization       5.9999998
 augmentation part       71.9216412 magnetization       1.2571312

 Free energy of the ion-electron system (eV)
  ---------------------------------------------------
  alpha Z        PSCENC =       739.54462131
  Ewald energy   TEWEN  =    -13574.13172356
  -Hartree energ DENC   =     -6203.45522254
  -exchange      EXHF   =         0.00000000
  -V(xc)+E(xc)   XCENC  =       762.50295818
  PAW double counting   =     89527.10970766   -89932.75694456
  entropy T*S    EENTRO =        -0.02564706
  eigenvalues    EBANDS =       241.06252725
  atomic energy  EATOM  =     20168.87094289
  ---------------------------------------------------
  free energy    TOTEN  =      1728.71666748 eV

  energy without entropy =     1728.74231455  energy(sigma->0) =     1728.72949102


--------------------------------------------------------------------------------------------------------




--------------------------------------- Iteration      1(  13)  ---------------------------------------


    POTLOK:  cpu time    0.0487: real time    0.0487
    SETDIJ:  cpu time    0.0135: real time    0.0135
    TRIAL :  cpu time   14.4986: real time   14.6747
    CORREC:  cpu time    4.8219: real time    4.8275
    CHARGE:  cpu time    0.4870: real time    0.4875
    --------------------------------------------
      LOOP:  cpu time   19.8703: real time   20.0533

 eigenvalue-minimisations  :     0
 total energy-change (2. order) :-0.2234704E+03  (-0.7350029E+03)
 number of electron     257.9999952 magnetization       5.9999998
 augmentation part       75.4733661 magnetization       1.2639930

 Free energy of the ion-electron system (eV)
  ---------------------------------------------------
  alpha Z        PSCENC =       739.54462131
  Ewald energy   TEWEN  =    -13574.13172356
  -Hartree energ DENC   =     -6328.61124810
  -exchange      EXHF   =         0.00000000
  -V(xc)+E(xc)   XCENC  =       767.13080810
  PAW double counting   =     80050.03964519   -80460.98110308
  entropy T*S    EENTRO =        -0.02710462
  eigenvalues    EBANDS =       143.40995523
  atomic energy  EATOM  =     20168.87094289
  ---------------------------------------------------
  free energy    TOTEN  =      1505.24625091 eV

  energy without entropy =     1505.27335553  energy(sigma->0) =     1505.25980322


--------------------------------------------------------------------------------------------------------




--------------------------------------- Iteration      1(  14)  ---------------------------------------


    POTLOK:  cpu time    0.0482: real time    0.0482
    SETDIJ:  cpu time    0.0135: real time    0.0135
    TRIAL :  cpu time   14.5391: real time   14.5562
    CORREC:  cpu time    4.9060: real time    4.9113
    CHARGE:  cpu time    0.4913: real time    0.4917
    --------------------------------------------
      LOOP:  cpu time   19.9986: real time   20.0214

 eigenvalue-minimisations  :     0
 total energy-change (2. order) :-0.6073644E+03  (-0.5216114E+03)
 number of electron     257.9999954 magnetization       5.9999999
 augmentation part       77.4282576 magnetization       1.3554927

 Free energy of the ion-electron system (eV)
  ---------------------------------------------------
  alpha Z        PSCENC =       739.54462131
  Ewald energy   TEWEN  =    -13574.13172356
  -Hartree energ DENC   =     -7187.71642919
  -exchange      EXHF   =         0.00000000
  -V(xc)+E(xc)   XCENC  =       811.50948824
  PAW double counting   =     38176.20451124   -38658.48068876
  entropy T*S    EENTRO =        -0.02506944
  eigenvalues    EBANDS =       422.10825307
  atomic energy  EATOM  =     20168.87094289
  ---------------------------------------------------
  free energy    TOTEN  =       897.88187061 eV

  energy without entropy =      897.90694006  energy(sigma->0) =      897.89440534


--------------------------------------------------------------------------------------------------------




--------------------------------------- Iteration      1(  15)  ---------------------------------------


    POTLOK:  cpu time    0.0481: real time    0.0481
    SETDIJ:  cpu time    0.0135: real time    0.0135
    TRIAL :  cpu time   14.7431: real time   14.9677
    CORREC:  cpu time    4.6830: real time    4.7496
    CHARGE:  cpu time    0.4839: real time    0.4845
    --------------------------------------------
      LOOP:  cpu time   19.9722: real time   20.2645

 eigenvalue-minimisations  :     0
 total energy-change (2. order) :-0.2212911E+03  (-0.6195271E+03)
 number of electron     257.9999945 magnetization       5.9999998
 augmentation part       70.4247638 magnetization       2.0340697

 Free energy of the ion-electron system (eV)
  ---------------------------------------------------
  alpha Z        PSCENC =       739.54462131
  Ewald energy   TEWEN  =    -13574.13172356
  -Hartree energ DENC   =     -7354.74424721
  -exchange      EXHF   =         0.00000000
  -V(xc)+E(xc)   XCENC  =       843.89966054
  PAW double counting   =     31038.40024591   -31533.15847062
  entropy T*S    EENTRO =        -0.01683716
  eigenvalues    EBANDS =       347.93481389
  atomic energy  EATOM  =     20168.87094289
  ---------------------------------------------------
  free energy    TOTEN  =       676.59077370 eV

  energy without entropy =      676.60761086  energy(sigma->0) =      676.59919228


--------------------------------------------------------------------------------------------------------




--------------------------------------- Iteration      1(  16)  ---------------------------------------


    POTLOK:  cpu time    0.0489: real time    0.0490
    SETDIJ:  cpu time    0.0134: real time    0.0134
    TRIAL :  cpu time   14.2988: real time   14.5383
    CORREC:  cpu time    4.7487: real time    4.7546
    CHARGE:  cpu time    0.4697: real time    0.4818
    --------------------------------------------
      LOOP:  cpu time   19.5801: real time   19.8384

 eigenvalue-minimisations  :     0
 total energy-change (2. order) : 0.1857031E+03  (-0.3991680E+03)
 number of electron     257.9999941 magnetization       5.9999998
 augmentation part       77.6155398 magnetization       2.5295809

 Free energy of the ion-electron system (eV)
  ---------------------------------------------------
  alpha Z        PSCENC =       739.54462131
  Ewald energy   TEWEN  =    -13574.13172356
  -Hartree energ DENC   =     -6746.00497731
  -exchange      EXHF   =         0.00000000
  -V(xc)+E(xc)   XCENC  =       852.46308139
  PAW double counting   =     48614.97506241   -48908.06947388
  entropy T*S    EENTRO =        -0.01075731
  eigenvalues    EBANDS =      -285.33678095
  atomic energy  EATOM  =     20168.87094289
  ---------------------------------------------------
  free energy    TOTEN  =       862.29391514 eV

  energy without entropy =      862.30467245  energy(sigma->0) =      862.29929380


--------------------------------------------------------------------------------------------------------




--------------------------------------- Iteration      1(  17)  ---------------------------------------


    POTLOK:  cpu time    0.0486: real time    0.0494
    SETDIJ:  cpu time    0.0133: real time    0.0134
    TRIAL :  cpu time   14.4925: real time   14.8811
    CORREC:  cpu time    4.7884: real time    4.8834
    CHARGE:  cpu time    0.4723: real time    0.4727
    --------------------------------------------
      LOOP:  cpu time   19.8155: real time   20.3011

 eigenvalue-minimisations  :     0
 total energy-change (2. order) :-0.2670633E+03  (-0.3477296E+03)
 number of electron     257.9999944 magnetization       5.9999998
 augmentation part       82.2537416 magnetization       3.2796398

 Free energy of the ion-electron system (eV)
  ---------------------------------------------------
  alpha Z        PSCENC =       739.54462131
  Ewald energy   TEWEN  =    -13574.13172356
  -Hartree energ DENC   =     -7763.21016133
  -exchange      EXHF   =         0.00000000
  -V(xc)+E(xc)   XCENC  =       882.33388031
  PAW double counting   =     38719.45944228   -39186.85577948
  entropy T*S    EENTRO =        -0.00965332
  eigenvalues    EBANDS =       609.23013898
  atomic energy  EATOM  =     20168.87094289
  ---------------------------------------------------
  free energy    TOTEN  =       595.23060407 eV

  energy without entropy =      595.24025740  energy(sigma->0) =      595.23543073


--------------------------------------------------------------------------------------------------------




--------------------------------------- Iteration      1(  18)  ---------------------------------------


    POTLOK:  cpu time    0.0631: real time    0.0631
    SETDIJ:  cpu time    0.0137: real time    0.0137
    TRIAL :  cpu time   14.6744: real time   14.8551
    CORREC:  cpu time    4.7641: real time    4.7715
    CHARGE:  cpu time    0.4770: real time    0.4773
    --------------------------------------------
      LOOP:  cpu time   19.9930: real time   20.1814

 eigenvalue-minimisations  :     0
 total energy-change (2. order) :-0.2908197E+03  (-0.1835689E+03)
 number of electron     257.9999949 magnetization       5.9999997
 augmentation part       80.8273613 magnetization       3.8964181

 Free energy of the ion-electron system (eV)
  ---------------------------------------------------
  alpha Z        PSCENC =       739.54462131
  Ewald energy   TEWEN  =    -13574.13172356
  -Hartree energ DENC   =     -7876.74506336
  -exchange      EXHF   =         0.00000000
  -V(xc)+E(xc)   XCENC  =       888.33855469
  PAW double counting   =     38800.23895160   -39445.22795292
  entropy T*S    EENTRO =        -0.00901597
  eigenvalues    EBANDS =       603.53222958
  atomic energy  EATOM  =     20168.87094289
  ---------------------------------------------------
  free energy    TOTEN  =       304.41090692 eV

  energy without entropy =      304.41992289  energy(sigma->0) =      304.41541491


--------------------------------------------------------------------------------------------------------




--------------------------------------- Iteration      1(  19)  ---------------------------------------


    POTLOK:  cpu time    0.0485: real time    0.0485
    SETDIJ:  cpu time    0.0134: real time    0.0134
    TRIAL :  cpu time   14.8373: real time   14.9687
    CORREC:  cpu time    4.6457: real time    4.7141
    CHARGE:  cpu time    0.5037: real time    0.5195
    --------------------------------------------
      LOOP:  cpu time   20.0490: real time   20.2647

 eigenvalue-minimisations  :     0
 total energy-change (2. order) :-0.1840186E+03  (-0.8333900E+02)
 number of electron     257.9999952 magnetization       5.9999997
 augmentation part       79.1768562 magnetization       4.0293414

 Free energy of the ion-electron system (eV)
  ---------------------------------------------------
  alpha Z        PSCENC =       739.54462131
  Ewald energy   TEWEN  =    -13574.13172356
  -Hartree energ DENC   =     -7566.88987912
  -exchange      EXHF   =         0.00000000
  -V(xc)+E(xc)   XCENC  =       863.20972904
  PAW double counting   =     33930.48756501   -34603.49112679
  entropy T*S    EENTRO =        -0.00873290
  eigenvalues    EBANDS =       162.80114639
  atomic energy  EATOM  =     20168.87094289
  ---------------------------------------------------
  free energy    TOTEN  =       120.39225921 eV

  energy without entropy =      120.40099211  energy(sigma->0) =      120.39662566


--------------------------------------------------------------------------------------------------------




--------------------------------------- Iteration      1(  20)  ---------------------------------------


    POTLOK:  cpu time    0.0481: real time    0.0489
    SETDIJ:  cpu time    0.0132: real time    0.0133
    TRIAL :  cpu time   14.0751: real time   14.5201
    CORREC:  cpu time    4.7528: real time    4.7583
    CHARGE:  cpu time    0.4731: real time    0.4735
    --------------------------------------------
      LOOP:  cpu time   19.3628: real time   19.8153

 eigenvalue-minimisations  :     0
 total energy-change (2. order) :-0.7717751E+02  (-0.4601147E+02)
 number of electron     257.9999955 magnetization       5.9999997
 augmentation part       77.1675238 magnetization       4.1558767

 Free energy of the ion-electron system (eV)
  ---------------------------------------------------
  alpha Z        PSCENC =       739.54462131
  Ewald energy   TEWEN  =    -13574.13172356
  -Hartree energ DENC   =     -7356.07952726
  -exchange      EXHF   =         0.00000000
  -V(xc)+E(xc)   XCENC  =       847.50357837
  PAW double counting   =     31765.34353635   -32413.84096939
  entropy T*S    EENTRO =        -0.01033776
  eigenvalues    EBANDS =      -133.98697379
  atomic energy  EATOM  =     20168.87094289
  ---------------------------------------------------
  free energy    TOTEN  =        43.21475202 eV

  energy without entropy =       43.22508979  energy(sigma->0) =       43.21992091


--------------------------------------------------------------------------------------------------------




--------------------------------------- Iteration      1(  21)  ---------------------------------------


    POTLOK:  cpu time    0.0476: real time    0.0485
    SETDIJ:  cpu time    0.0132: real time    0.0134
    TRIAL :  cpu time   14.3432: real time   14.7925
    CORREC:  cpu time    4.6395: real time    4.6538
    CHARGE:  cpu time    0.4676: real time    0.4845
    --------------------------------------------
      LOOP:  cpu time   19.5115: real time   19.9938

 eigenvalue-minimisations  :     0
 total energy-change (2. order) :-0.4857245E+02  (-0.4768028E+02)
 number of electron     257.9999954 magnetization       5.9999996
 augmentation part       74.5654144 magnetization       4.3014828

 Free energy of the ion-electron system (eV)
  ---------------------------------------------------
  alpha Z        PSCENC =       739.54462131
  Ewald energy   TEWEN  =    -13574.13172356
  -Hartree energ DENC   =     -7133.69276975
  -exchange      EXHF   =         0.00000000
  -V(xc)+E(xc)   XCENC  =       839.12480158
  PAW double counting   =     29696.15119040   -30288.77073221
  entropy T*S    EENTRO =        -0.01130567
  eigenvalues    EBANDS =      -452.44369045
  atomic energy  EATOM  =     20168.87094289
  ---------------------------------------------------
  free energy    TOTEN  =        -5.35769756 eV

  energy without entropy =       -5.34639189  energy(sigma->0) =       -5.35204472


--------------------------------------------------------------------------------------------------------




--------------------------------------- Iteration      1(  22)  ---------------------------------------


    POTLOK:  cpu time    0.0479: real time    0.0487
    SETDIJ:  cpu time    0.0132: real time    0.0134
    TRIAL :  cpu time   14.2223: real time   14.5210
    CORREC:  cpu time    4.7726: real time    4.8481
    CHARGE:  cpu time    0.4723: real time    0.4727
    --------------------------------------------
      LOOP:  cpu time   19.5289: real time   19.9045

 eigenvalue-minimisations  :     0
 total energy-change (2. order) :-0.4726930E+02  (-0.2507045E+02)
 number of electron     257.9999955 magnetization       5.9999996
 augmentation part       73.6865551 magnetization       4.3873486

 Free energy of the ion-electron system (eV)
  ---------------------------------------------------
  alpha Z        PSCENC =       739.54462131
  Ewald energy   TEWEN  =    -13574.13172356
  -Hartree energ DENC   =     -7046.86912207
  -exchange      EXHF   =         0.00000000
  -V(xc)+E(xc)   XCENC  =       835.92249357
  PAW double counting   =     27112.61689745   -27615.97263777
  entropy T*S    EENTRO =        -0.01246490
  eigenvalues    EBANDS =      -672.59716483
  atomic energy  EATOM  =     20168.87094289
  ---------------------------------------------------
  free energy    TOTEN  =       -52.62699868 eV

  energy without entropy =      -52.61453378  energy(sigma->0) =      -52.62076623


--------------------------------------------------------------------------------------------------------




--------------------------------------- Iteration      1(  23)  ---------------------------------------


    POTLOK:  cpu time    0.0482: real time    0.0483
    SETDIJ:  cpu time    0.0134: real time    0.0134
    TRIAL :  cpu time   14.3432: real time   14.8115
    CORREC:  cpu time    4.9073: real time    5.0074
    CHARGE:  cpu time    0.4715: real time    0.4872
    --------------------------------------------
      LOOP:  cpu time   19.7841: real time   20.3684

 eigenvalue-minimisations  :     0
 total energy-change (2. order) :-0.2751558E+02  (-0.1850524E+02)
 number of electron     257.9999956 magnetization       5.9999996
 augmentation part       74.3124458 magnetization       4.4474900

 Free energy of the ion-electron system (eV)
  ---------------------------------------------------
  alpha Z        PSCENC =       739.54462131
  Ewald energy   TEWEN  =    -13574.13172356
  -Hartree energ DENC   =     -7037.14270276
  -exchange      EXHF   =         0.00000000
  -V(xc)+E(xc)   XCENC  =       837.14804511
  PAW double counting   =     26095.75580872   -26563.93261795
  entropy T*S    EENTRO =        -0.01566260
  eigenvalues    EBANDS =      -746.24248622
  atomic energy  EATOM  =     20168.87094289
  ---------------------------------------------------
  free energy    TOTEN  =       -80.14257738 eV

  energy without entropy =      -80.12691478  energy(sigma->0) =      -80.13474608


--------------------------------------------------------------------------------------------------------




--------------------------------------- Iteration      1(  24)  ---------------------------------------


    POTLOK:  cpu time    0.0480: real time    0.0488
    SETDIJ:  cpu time    0.0132: real time    0.0133
    TRIAL :  cpu time   14.2003: real time   14.6693
    CORREC:  cpu time    4.7689: real time    4.7933
    CHARGE:  cpu time    0.4744: real time    0.4914
    --------------------------------------------
      LOOP:  cpu time   19.5055: real time   20.0169

 eigenvalue-minimisations  :     0
 total energy-change (2. order) :-0.1917867E+02  (-0.1710342E+02)
 number of electron     257.9999953 magnetization       5.9999996
 augmentation part       75.6890584 magnetization       4.4802941

 Free energy of the ion-electron system (eV)
  ---------------------------------------------------
  alpha Z        PSCENC =       739.54462131
  Ewald energy   TEWEN  =    -13574.13172356
  -Hartree energ DENC   =     -7142.95905186
  -exchange      EXHF   =         0.00000000
  -V(xc)+E(xc)   XCENC  =       842.55225152
  PAW double counting   =     25567.62436158   -26046.35828845
  entropy T*S    EENTRO =        -0.02091270
  eigenvalues    EBANDS =      -654.44869771
  atomic energy  EATOM  =     20168.87094289
  ---------------------------------------------------
  free energy    TOTEN  =       -99.32124688 eV

  energy without entropy =      -99.30033419  energy(sigma->0) =      -99.31079053


--------------------------------------------------------------------------------------------------------




--------------------------------------- Iteration      1(  25)  ---------------------------------------


    POTLOK:  cpu time    0.0478: real time    0.0486
    SETDIJ:  cpu time    0.0132: real time    0.0134
    TRIAL :  cpu time   14.2769: real time   14.5466
    CORREC:  cpu time    4.7473: real time    4.7562
    CHARGE:  cpu time    0.4822: real time    0.4827
    --------------------------------------------
      LOOP:  cpu time   19.5680: real time   19.8479

 eigenvalue-minimisations  :     0
 total energy-change (2. order) :-0.2516230E+02  (-0.1865543E+02)
 number of electron     257.9999952 magnetization       5.9999996
[...]
   20        1.574   3.418   0.000   4.993
   21        1.572   3.406   0.000   4.978
   22        1.579   3.381   0.000   4.960
   23        1.576   3.384   0.000   4.960
   24        1.586   3.360   0.000   4.946
   25        1.579   3.387   0.000   4.966
   26        1.576   3.379   0.000   4.955
   27        1.563   3.420   0.000   4.983
   28        1.551   3.478   0.000   5.029
   29        1.562   3.452   0.000   5.013
   30        1.562   3.461   0.000   5.024
   31        1.572   3.374   0.000   4.946
   32        1.562   3.465   0.000   5.027
   33        1.559   3.453   0.000   5.012
   34        1.569   3.427   0.000   4.996
   35        1.583   3.353   0.000   4.936
   36        1.573   3.396   0.000   4.968
   37        1.572   3.408   0.000   4.980
   38        1.578   3.358   0.000   4.936
   39        1.558   3.472   0.000   5.031
   40        1.567   3.430   0.000   4.997
   41        1.567   3.444   0.000   5.011
   42        1.565   3.456   0.000   5.022
--------------------------------------------------
tot         43.572  91.545  87.577 222.694
 


 magnetization (x)
 
# of ion       s       p       d       tot
------------------------------------------
    1        0.001  -0.001   0.000   0.000
    2        0.001  -0.000   0.000   0.001
    3        0.001  -0.000   0.000   0.000
    4        0.001   0.000   0.000   0.001
    5        0.000  -0.001   0.000  -0.001
    6        0.001   0.000   0.000   0.001
    7        0.013   0.017   1.409   1.438
    8        0.012   0.016   1.327   1.354
    9        0.006   0.009   0.021   0.036
   10        0.012   0.016   1.341   1.370
   11        0.009   0.008   1.227   1.244
   12        0.002   0.001  -0.019  -0.017
   13        0.002   0.001  -0.026  -0.023
   14        0.002   0.001  -0.055  -0.052
   15        0.004   0.005   0.003   0.011
   16        0.012   0.015   1.358   1.384
   17        0.011   0.012   1.316   1.340
   18        0.003   0.004   0.005   0.012
   19        0.002  -0.121   0.000  -0.119
   20        0.002  -0.076   0.000  -0.075
   21        0.001  -0.090   0.000  -0.089
   22        0.002  -0.115   0.000  -0.113
   23        0.001  -0.102   0.000  -0.101
   24        0.001  -0.184   0.000  -0.182
   25        0.002  -0.102   0.000  -0.101
   26        0.001  -0.102   0.000  -0.101
   27       -0.000  -0.054   0.000  -0.054
   28       -0.000  -0.006   0.000  -0.006
   29        0.000  -0.043   0.000  -0.043
   30        0.000  -0.046   0.000  -0.046
   31       -0.000  -0.075   0.000  -0.076
   32       -0.000  -0.038   0.000  -0.039
   33       -0.001  -0.016   0.000  -0.017
   34       -0.000  -0.047   0.000  -0.047
   35        0.000  -0.156   0.000  -0.155
   36        0.000  -0.086   0.000  -0.086
   37        0.000  -0.059   0.000  -0.059
   38        0.000  -0.132   0.000  -0.132
   39        0.001  -0.018   0.000  -0.018
   40        0.000  -0.072   0.000  -0.071
   41        0.001  -0.068   0.000  -0.067
   42        0.001  -0.050   0.000  -0.049
--------------------------------------------------
tot          0.104  -1.754   7.907   6.257
 
    FORLOC:  cpu time    0.0080: real time    0.0080
    FORNL :  cpu time    4.6329: real time    4.8238
    STRESS:  cpu time   14.1659: real time   14.3709
    FORCOR:  cpu time    0.0506: real time    0.0506
    OFIELD:  cpu time    0.0005: real time    0.0005

  DFT-D2 method for vdW energy calculation
  -------------------------------------------------------------------

  Parameters of vdW forcefield:
         C6(Jnm^6/mol)     R0(A)
   -----------------------------
   Li       1.610          0.825
   Co      10.800          1.562
   O        0.700          1.342

  IVDW =   1
  VDW_RADIUS =    50.000 A
  VDW_S6 =     0.750
  VDW_SR =     1.000
  VDW_D =    20.000
  LVDW_EWALD = F

  Number of pair interactions contributing to vdW energy: 1192715
  Edisp (eV):   -9.47968
    FORVDW:  cpu time    0.1756: real time    0.1767

  FORCE on cell =-STRESS in cart. coord.  units (eV):
  Direction    XX          YY          ZZ          XY          YZ          ZX
  --------------------------------------------------------------------------------------
  Alpha Z   739.54462   739.54462   739.54462
  Ewald   -1308.39695 -1262.11084-11003.68996   -21.17052   -23.62692   -17.25077
  Hartree  4906.69512  4921.52260 -2459.87212    -7.29629   -11.16615    -7.34785
  E(xc)   -1285.27085 -1285.01732 -1285.88388    -0.06581    -0.13657    -0.06908
  Local   -8553.39786 -8602.76964  8488.55808    26.25209    31.25845    23.09989
  n-local  -593.69500  -591.45446  -597.48861    -0.65819    -0.44382    -0.06878
  augment  2027.25855  2019.44831  1995.45793     1.96769     2.23333     1.27059
  Kinetic  4072.62491  4068.50191  4130.54451     1.71542     1.96752    -1.06336
  Fock        0.00000     0.00000     0.00000     0.00000     0.00000     0.00000
  vdW        -6.15933    -5.69906   -11.47505    -0.24054    -0.01479     0.04085
  -------------------------------------------------------------------------------------
  Total      -0.79679     1.96613    -4.30448     0.50385     0.07104    -1.38849
  in kB      -3.22037     7.94645   -17.39727     2.03641     0.28711    -5.61183
  external pressure =       -4.22 kB  Pullay stress =        0.00 kB


 VOLUME and BASIS-vectors are now :
 -----------------------------------------------------------------------------
  energy-cutoff  :      600.00
  volume of cell :      396.42
      direct lattice vectors                 reciprocal lattice vectors
     5.617487431  0.000000000  0.000000000     0.178015530  0.103728266 -0.008106993
    -2.821670294  4.842471123  0.000000000     0.000000000  0.206506136  0.013808073
     1.231436610 -0.974408984 14.572738647     0.000000000  0.000000000  0.068621281

  length of vectors
     5.617487431  5.604582930 14.657101374     0.206191186  0.206967261  0.068621281


 FORCES acting on ions:
    Electron-Ion                     Ewald-Force                    Non-Local-Force
 -----------------------------------------------------------------------------------------------
   0.222E+01 0.345E+01 -.247E+01   -.218E+01 -.309E+01 0.197E+01   -.984E-01 -.559E+00 -.177E+00
   0.759E+00 -.357E+00 0.133E+02   -.552E+00 0.206E+00 -.123E+02   -.223E+00 0.253E+00 -.524E+00
   -.354E+01 0.520E+00 0.155E+02   0.308E+01 -.531E+00 -.145E+02   0.669E+00 -.182E+00 -.496E+00
   -.173E+01 0.113E+01 0.761E+01   0.176E+01 -.115E+01 -.812E+01   0.941E-01 -.453E+00 -.609E+00
   0.160E+01 -.765E+00 0.317E+01   -.154E+01 0.834E+00 -.358E+01   -.393E+00 0.866E-01 -.433E+00
   0.197E+01 0.268E+01 -.772E+01   -.176E+01 -.241E+01 0.734E+01   -.203E+00 -.444E+00 0.309E+00
   -.704E+01 -.931E+01 0.488E+02   0.804E+01 0.993E+01 -.490E+02   0.192E+00 0.595E+00 0.271E+00
   0.215E+02 -.274E+02 0.779E+02   -.219E+02 0.287E+02 -.804E+02   -.604E+00 0.188E+00 0.500E+00
   -.621E+01 0.809E+01 0.663E+02   0.562E+01 -.862E+01 -.666E+02   0.459E+00 0.976E-01 0.694E+00
   0.730E+01 0.340E+01 0.581E+02   -.802E+01 -.338E+01 -.582E+02   -.246E+00 0.981E-01 0.884E-01
   -.462E+01 -.260E+02 0.694E+02   0.526E+01 0.277E+02 -.693E+02   0.612E+00 -.299E+00 0.783E+00
   -.139E+02 0.147E+02 0.809E+02   0.157E+02 -.157E+02 -.819E+02   -.149E+00 0.374E-01 -.672E+00
   -.287E+02 0.247E+02 0.379E+02   0.288E+02 -.245E+02 -.382E+02   0.795E+00 -.936E+00 -.194E+00
   0.262E+02 0.487E+01 0.733E+02   -.280E+02 -.617E+01 -.737E+02   0.106E+00 0.625E-01 0.411E+00
   -.186E+02 -.155E+02 -.107E+03   0.192E+02 0.152E+02 0.109E+03   0.512E+00 0.271E+00 -.122E+01
   0.165E+02 0.305E+02 -.136E+03   -.168E+02 -.305E+02 0.139E+03   -.395E+00 -.453E+00 -.984E+00
   -.682E+01 0.969E+01 -.117E+03   0.644E+01 -.953E+01 0.118E+03   -.138E+00 -.470E+00 -.584E+00
   -.139E+01 -.182E+02 -.165E+03   0.234E+01 0.179E+02 0.167E+03   -.646E-01 0.111E+01 -.880E+00
   0.224E+01 -.629E+00 -.303E+03   -.403E+01 0.179E+01 0.326E+03   0.198E+01 -.185E+01 -.219E+02
   0.169E+02 0.246E+02 -.303E+03   -.164E+02 -.278E+02 0.325E+03   -.191E+01 0.259E+01 -.219E+02
   -.153E+02 -.242E+02 -.296E+03   0.184E+02 0.240E+02 0.315E+03   -.304E+01 0.123E+01 -.198E+02
   0.540E+01 0.883E+01 -.299E+03   -.931E+01 -.892E+01 0.322E+03   0.381E+01 -.418E-01 -.229E+02
   -.161E+02 0.973E+01 0.374E+03   0.153E+02 -.131E+02 -.397E+03   0.200E+01 0.278E+01 0.227E+02
   -.115E+02 0.986E+00 0.390E+03   0.128E+02 -.148E+01 -.415E+03   -.597E+00 0.804E-01 0.257E+02
   0.893E+01 -.101E+01 0.378E+03   -.784E+01 0.518E-01 -.402E+03   -.105E+01 0.122E+01 0.245E+02
   -.713E+01 0.234E+01 0.376E+03   0.900E+01 0.158E+01 -.398E+03   -.160E+01 -.466E+01 0.232E+02
   0.345E+00 -.942E+01 -.302E+03   -.162E+00 0.115E+02 0.320E+03   -.572E+00 -.233E+01 -.171E+02
   -.154E+02 -.249E+01 -.278E+03   0.171E+02 0.142E+01 0.290E+03   -.999E+00 0.213E+01 -.109E+02
   0.777E+01 -.108E+02 -.296E+03   -.889E+01 0.142E+02 0.313E+03   0.110E+01 -.309E+01 -.176E+02
   0.270E+01 0.853E+01 -.310E+03   -.304E+01 -.105E+02 0.329E+03   0.197E+00 0.234E+01 -.179E+02
   0.149E+02 -.304E+02 0.375E+03   -.179E+02 0.344E+02 -.395E+03   0.301E+01 -.397E+01 0.207E+02
   -.214E+02 0.282E+02 0.380E+03   0.250E+02 -.317E+02 -.397E+03   -.441E+01 0.240E+01 0.158E+02
   -.150E+02 0.104E+01 0.379E+03   0.189E+02 -.293E+01 -.396E+03   -.429E+01 0.299E+01 0.175E+02
   0.473E+02 -.200E+01 0.385E+03   -.551E+02 0.446E+01 -.405E+03   0.691E+01 -.255E+01 0.200E+02
   0.709E+00 -.416E+01 -.425E+03   -.151E+01 0.389E+01 0.451E+03   0.211E-01 0.481E+00 -.265E+02
   0.394E+01 0.501E+01 -.412E+03   -.497E+01 -.619E+01 0.434E+03   0.185E+01 0.109E+01 -.222E+02
   0.244E+02 -.129E+02 -.409E+03   -.258E+02 0.155E+02 0.431E+03   0.128E+00 -.295E+01 -.219E+02
   -.256E+02 0.230E+02 -.418E+03   0.291E+02 -.255E+02 0.441E+03   -.253E+01 0.183E+01 -.234E+02
   -.140E+02 0.124E+02 0.246E+03   0.149E+02 -.144E+02 -.262E+03   -.689E+00 0.176E+01 0.159E+02
   0.126E+02 -.222E+02 0.250E+03   -.178E+02 0.229E+02 -.268E+03   0.584E+01 0.731E+00 0.181E+02
   0.355E+01 -.279E+02 0.257E+03   -.294E+01 0.340E+02 -.275E+03   -.117E+00 -.521E+01 0.173E+02
   0.299E+01 0.201E+02 0.254E+03   -.294E+00 -.222E+02 -.273E+03   -.443E+01 0.118E+01 0.187E+02
 -----------------------------------------------------------------------------------------------
   -.155E+01 0.282E+01 0.780E+01   -.316E-14 0.959E-13 -.739E-12   0.154E+01 -.284E+01 -.781E+01
 
 
 POSITION                                       TOTAL-FORCE (eV/Angst)
 -----------------------------------------------------------------------------------
      3.63848     -0.05932     14.56522        -0.037675     -0.223239     -0.780110
      2.60674      0.41105      4.93862        -0.014415      0.192623      0.738359
      3.72031      2.98018      5.01212         0.224581     -0.127577      0.674786
      1.09841      1.48364      9.85844         0.047013     -0.384905     -0.997505
     -0.37815      3.69376      9.79936        -0.244433      0.160583     -0.782698
      2.41272      3.86042      9.62948        -0.032480     -0.129297     -0.179193
     -0.17758      0.60984      2.48195         1.129218      1.083042      0.029852
     -1.52320      3.03574      2.48927        -0.781662      1.241190     -1.799165
      2.66959      0.66164      2.44049        -0.194839     -0.397609      0.452855
      1.29829      3.03547      2.46839        -0.873914      0.100311     -0.064930
      0.96468     -0.24339      7.29209         1.157106      1.210638      0.862776
     -0.46877      2.17097      7.36222         1.510785     -0.756044     -1.342397
      3.78926     -0.23715      7.37892         0.671160     -0.625969     -0.442925
      2.44224      2.18654      7.30284        -1.481257     -1.114766      0.025576
      2.39824      0.54992     12.04762         0.989681     -0.160136     -0.035243
      1.00438      2.95769     12.06322        -0.618980     -0.221932      1.242666
      5.23695      0.53177     12.05952        -0.499451     -0.235692      0.532788
      3.78962      2.95147     12.09552         0.869940      0.766448      0.490364
      2.67330      3.86957      3.44460         0.137440     -0.632638      0.204218
      4.15281      1.50316      3.46825        -1.462140     -0.741892      0.238997
     -0.14540      3.79777      3.44582        -0.008186      0.896995      0.139228
      1.31042      1.45235      3.46112        -0.092732     -0.121170     -0.367036
     -1.64627      4.72119      1.50188         1.202918     -0.573795      0.077722
     -0.17199      2.25935      1.54309         0.687117     -0.409726     -0.313789
      1.22968      4.63845      1.51909        -0.021338      0.304047     -0.272529
      2.66234      2.31832      1.39677         0.282071     -0.678302      1.260986
      2.38388      0.57003      8.35970        -0.334087     -0.232986     -0.025305
      0.94463      2.89624      8.32506         0.686681      1.085486      1.039152
      5.22893      0.50963      8.34780        -0.011823      0.369903     -0.004843
      3.79256      3.01148      8.32030        -0.114894      0.255774      0.605204
      1.00725      1.35237      6.31209        -0.009075      0.026038      0.551782
     -0.41076      3.87093      6.40612        -0.795891     -1.142056     -1.033416
      3.80660      1.29425      6.27826        -0.267220      1.076302      0.567008
      2.48187      3.78110      6.30688        -1.020762     -0.057255      0.097309
      1.06429      1.34559     13.04562        -0.764464      0.223408     -0.538796
     -0.45273      3.77847     13.03102         0.801564     -0.107059     -0.111495
      3.92768      1.33039     13.04132        -1.268189     -0.258537     -0.159810
      2.25979      3.86738     13.14512         0.923978     -0.702804     -0.910744
      0.96949     -0.24483     11.01982         0.243710     -0.274258      0.300619
     -0.40829      2.04107     11.01232         0.566851      1.349142      0.415224
      3.77224     -0.37407     11.05802         0.486995      0.881775     -0.167191
      2.48644      2.25177     11.07412        -1.668904     -0.914063     -0.218352
 -----------------------------------------------------------------------------------
    total drift:                               -0.002125     -0.011065     -0.006243


--------------------------------------------------------------------------------------------------------



  FREE ENERGIE OF THE ION-ELECTRON SYSTEM (eV)
  ---------------------------------------------------
  free  energy   TOTEN  =      -234.24013137 eV

  energy  without entropy=     -234.23369512  energy(sigma->0) =     -234.23691325
 


--------------------------------------------------------------------------------------------------------


    POTLOK:  cpu time    0.0664: real time    0.0664


--------------------------------------------------------------------------------------------------------


     LOOP+:  cpu time 5339.8434: real time 5375.7258
    4ORBIT:  cpu time    0.0000: real time    0.0000
 


 total charge     
 
# of ion       s       p       d       tot
------------------------------------------
    1        0.070   0.139   0.000   0.209
    2        0.082   0.163   0.000   0.244
    3        0.081   0.165   0.000   0.247
    4        0.092   0.194   0.000   0.286
    5        0.086   0.177   0.000   0.264
    6        0.090   0.187   0.000   0.277
    7        0.471   0.764   7.234   8.470
    8        0.477   0.772   7.253   8.502
    9        0.427   0.654   7.382   8.463
   10        0.465   0.753   7.214   8.431
   11        0.485   0.790   7.270   8.545
   12        0.423   0.654   7.339   8.417
   13        0.430   0.671   7.361   8.462
   14        0.431   0.670   7.365   8.465
   15        0.426   0.656   7.366   8.448
   16        0.462   0.735   7.230   8.426
   17        0.470   0.764   7.234   8.468
   18        0.423   0.663   7.329   8.416
   19        1.576   3.409   0.000   4.986
   20        1.574   3.418   0.000   4.993
   21        1.572   3.406   0.000   4.978
   22        1.579   3.381   0.000   4.960
   23        1.576   3.384   0.000   4.960
   24        1.586   3.360   0.000   4.946
   25        1.579   3.387   0.000   4.966
   26        1.576   3.379   0.000   4.955
   27        1.563   3.420   0.000   4.983
   28        1.551   3.478   0.000   5.029
   29        1.562   3.452   0.000   5.013
   30        1.562   3.461   0.000   5.024
   31        1.572   3.374   0.000   4.946
   32        1.562   3.465   0.000   5.027
   33        1.559   3.453   0.000   5.012
   34        1.569   3.427   0.000   4.996
   35        1.583   3.353   0.000   4.936
   36        1.573   3.396   0.000   4.968
   37        1.572   3.408   0.000   4.980
   38        1.578   3.358   0.000   4.936
   39        1.558   3.472   0.000   5.031
   40        1.567   3.430   0.000   4.997
   41        1.567   3.444   0.000   5.011
   42        1.565   3.456   0.000   5.022
--------------------------------------------------
tot         43.572  91.545  87.577 222.694
 


 magnetization (x)
 
# of ion       s       p       d       tot
------------------------------------------
    1        0.001  -0.001   0.000   0.000
    2        0.001  -0.000   0.000   0.001
    3        0.001  -0.000   0.000   0.000
    4        0.001   0.000   0.000   0.001
    5        0.000  -0.001   0.000  -0.001
    6        0.001   0.000   0.000   0.001
    7        0.013   0.017   1.409   1.438
    8        0.012   0.016   1.327   1.354
    9        0.006   0.009   0.021   0.036
   10        0.012   0.016   1.341   1.370
   11        0.009   0.008   1.227   1.244
   12        0.002   0.001  -0.019  -0.017
   13        0.002   0.001  -0.026  -0.023
   14        0.002   0.001  -0.055  -0.052
   15        0.004   0.005   0.003   0.011
   16        0.012   0.015   1.358   1.384
   17        0.011   0.012   1.316   1.340
   18        0.003   0.004   0.005   0.012
   19        0.002  -0.121   0.000  -0.119
   20        0.002  -0.076   0.000  -0.075
   21        0.001  -0.090   0.000  -0.089
   22        0.002  -0.115   0.000  -0.113
   23        0.001  -0.102   0.000  -0.101
   24        0.001  -0.184   0.000  -0.182
   25        0.002  -0.102   0.000  -0.101
   26        0.001  -0.102   0.000  -0.101
   27       -0.000  -0.054   0.000  -0.054
   28       -0.000  -0.006   0.000  -0.006
   29        0.000  -0.043   0.000  -0.043
   30        0.000  -0.046   0.000  -0.046
   31       -0.000  -0.075   0.000  -0.076
   32       -0.000  -0.038   0.000  -0.039
   33       -0.001  -0.016   0.000  -0.017
   34       -0.000  -0.047   0.000  -0.047
   35        0.000  -0.156   0.000  -0.155
   36        0.000  -0.086   0.000  -0.086
   37        0.000  -0.059   0.000  -0.059
   38        0.000  -0.132   0.000  -0.132
   39        0.001  -0.018   0.000  -0.018
   40        0.000  -0.072   0.000  -0.071
   41        0.001  -0.068   0.000  -0.067
   42        0.001  -0.050   0.000  -0.049
--------------------------------------------------
tot          0.104  -1.754   7.907   6.257
 

 total amount of memory used by VASP MPI-rank0   160958. kBytes
=======================================================================

   base      :      30000. kBytes
   nonlr-proj:       4292. kBytes
   fftplans  :       1689. kBytes
   grid      :       4644. kBytes
   one-center:        342. kBytes
   wavefun   :     119991. kBytes
 
  
  
 General timing and accounting informations for this job:
 ========================================================
  
                  Total CPU time used (sec):     5367.556
                            User time (sec):     4990.172
                          System time (sec):      377.384
                         Elapsed time (sec):     5403.971
  
                   Maximum memory used (kb):     1051524.
                   Average memory used (kb):           0.
  
                          Minor page faults:        71718
                          Major page faults:           68
                 Voluntary context switches:          625
