       N       E                     dE             d eps       ncg     rms          ort
DAV:   1     0.356481711178E+04    0.35648E+04   -0.14048E+05  5760   0.227E+03
DAV:   2     0.401422515851E+03   -0.31634E+04   -0.29114E+04  5760   0.559E+02
DAV:   3    -0.222202699198E+03   -0.62363E+03   -0.56043E+03  5760   0.259E+02
DAV:   4    -0.271089349205E+03   -0.48887E+02   -0.47968E+02  5760   0.748E+01
DAV:   5    -0.272556378212E+03   -0.14670E+01   -0.14647E+01  5760   0.129E+01
SDA:   6     0.861870684706E+02    0.35874E+03   -0.14647E+01  5760   0.339E+04 0.000E+00
CGA:   7     0.422322855688E+02   -0.43955E+02   -0.12197E+03  5760   0.940E+04-0.751E+03
CGA:   8     0.112735982169E+03    0.70504E+02   -0.25999E+03  5760   0.299E+04 0.638E+04
CGA:   9     0.139263525518E+02   -0.98810E+02   -0.76909E+02  5760   0.164E+04 0.226E+04
CGA:  10    -0.123414588415E+03   -0.13734E+03   -0.14374E+03  5760   0.101E+04-0.193E+02
CGA:  11    -0.148522389704E+03   -0.25108E+02   -0.34533E+02  5760   0.273E+03 0.206E+03
CGA:  12    -0.191346865451E+03   -0.42824E+02   -0.43211E+02  5760   0.467E+03-0.258E+01
CGA:  13    -0.201829876648E+03   -0.10483E+02   -0.18867E+02  5760   0.113E+03-0.191E+02
CGA:  14    -0.209181066962E+03   -0.73512E+01   -0.81454E+01  5760   0.298E+02-0.462E+01
CGA:  15    -0.211604732288E+03   -0.24237E+01   -0.25245E+01  5760   0.372E+02 0.366E+00
CGA:  16    -0.215097731065E+03   -0.34930E+01   -0.35171E+01  5760   0.136E+02 0.336E+01
CGA:  17    -0.216134356970E+03   -0.10366E+01   -0.11897E+01  5760   0.159E+02 0.145E+01
CGA:  18    -0.217101149094E+03   -0.96679E+00   -0.10736E+01  5760   0.736E+01-0.176E+00
CGA:  19    -0.217663959303E+03   -0.56281E+00   -0.56770E+00  5760   0.826E+01 0.972E-01
CGA:  20    -0.218212242245E+03   -0.54828E+00   -0.49631E+00  5760   0.411E+01 0.696E+00
CGA:  21    -0.218696660818E+03   -0.48442E+00   -0.49338E+00  5760   0.387E+01 0.958E-01
CGA:  22    -0.218864242673E+03   -0.16758E+00   -0.16694E+00  5760   0.180E+01-0.706E-01
CGA:  23    -0.219092226128E+03   -0.22798E+00   -0.22785E+00  5760   0.171E+01 0.383E-01
CGA:  24    -0.219186412545E+03   -0.94186E-01   -0.10237E+00  5760   0.132E+01-0.119E+00
CGA:  25    -0.219286878244E+03   -0.10047E+00   -0.10074E+00  5760   0.517E+00 0.874E-03
CGA:  26    -0.219333802978E+03   -0.46925E-01   -0.47703E-01  5760   0.736E+00 0.181E-02
CGA:  27    -0.219386384412E+03   -0.52581E-01   -0.54135E-01  5760   0.367E+00 0.160E-02
CGA:  28    -0.219450052014E+03   -0.63668E-01   -0.62495E-01  5760   0.539E+00 0.248E-01
CGA:  29    -0.219516876774E+03   -0.66825E-01   -0.67185E-01  5760   0.101E+01 0.550E-01
CGA:  30    -0.219633388843E+03   -0.11651E+00   -0.11628E+00  5760   0.941E+00-0.847E-01
CGA:  31    -0.219763385454E+03   -0.13000E+00   -0.13462E+00  5760   0.145E+01-0.101E+00
CGA:  32    -0.219889144381E+03   -0.12576E+00   -0.12059E+00  5760   0.188E+01-0.354E-01
CGA:  33    -0.220015501002E+03   -0.12636E+00   -0.12287E+00  5760   0.183E+01 0.415E-01
CGA:  34    -0.220123747074E+03   -0.10825E+00   -0.11017E+00  5760   0.146E+01-0.578E-02
CGA:  35    -0.220216947071E+03   -0.93200E-01   -0.98334E-01  5760   0.133E+01-0.786E-02
CGA:  36    -0.220318145731E+03   -0.10120E+00   -0.10480E+00  5760   0.106E+01 0.185E-01
CGA:  37    -0.220409935376E+03   -0.91790E-01   -0.93112E-01  5760   0.693E+00 0.153E-01
CGA:  38    -0.220480330246E+03   -0.70395E-01   -0.70467E-01  5760   0.649E+00 0.422E-02
CGA:  39    -0.220552091776E+03   -0.71762E-01   -0.71769E-01  5760   0.576E+00-0.213E-02
SDA:  40    -0.220614999755E+03   -0.62908E-01   -0.62923E-01  5760   0.582E+00-0.804E-02
CGA:  41    -0.220689710324E+03   -0.74711E-01   -0.74862E-01  5760   0.694E+00-0.110E-01
CGA:  42    -0.220770250024E+03   -0.80540E-01   -0.80401E-01  5760   0.459E+00 0.580E-02
CGA:  43    -0.220858359571E+03   -0.88110E-01   -0.89084E-01  5760   0.317E+00-0.110E-01
CGA:  44    -0.220906072644E+03   -0.47713E-01   -0.47492E-01  5760   0.354E+00 0.271E-02
CGA:  45    -0.220972574015E+03   -0.66501E-01   -0.65221E-01  5760   0.466E+00 0.223E-01
CGA:  46    -0.221036682338E+03   -0.64108E-01   -0.64302E-01  5760   0.344E+00-0.215E-01
CGA:  47    -0.221064397920E+03   -0.27716E-01   -0.27447E-01  5760   0.209E+00-0.644E-03
CGA:  48    -0.221104239873E+03   -0.39842E-01   -0.39246E-01  5760   0.149E+00 0.415E-02
CGA:  49    -0.221136494146E+03   -0.32254E-01   -0.30080E-01  5760   0.249E+00 0.250E-01
CGA:  50    -0.221168033795E+03   -0.31540E-01   -0.31444E-01  5760   0.234E+00-0.696E-02
CGA:  51    -0.221192876429E+03   -0.24843E-01   -0.24641E-01  5760   0.322E+00-0.137E-02
CGA:  52    -0.221246641375E+03   -0.53765E-01   -0.51105E-01  5760   0.334E+00 0.502E-01
CGA:  53    -0.221297199132E+03   -0.50558E-01   -0.57560E-01  5760   0.881E+00-0.214E+00
CGA:  54    -0.221345247711E+03   -0.48049E-01   -0.61002E-01  5760   0.262E+00-0.545E-01
CGA:  55    -0.221397342869E+03   -0.52095E-01   -0.53357E-01  5760   0.238E+00-0.159E-01
CGA:  56    -0.221435081066E+03   -0.37738E-01   -0.36861E-01  5760   0.161E+00 0.165E-01
CGA:  57    -0.221462227254E+03   -0.27146E-01   -0.27191E-01  5760   0.123E+00-0.707E-02
CGA:  58    -0.221485490153E+03   -0.23263E-01   -0.22883E-01  5760   0.922E-01 0.674E-02
CGA:  59    -0.221503714058E+03   -0.18224E-01   -0.17867E-01  5760   0.988E-01-0.221E-02
CGA:  60    -0.221525902613E+03   -0.22189E-01   -0.21689E-01  5760   0.733E-01 0.599E-02
CGA:  61    -0.221541218796E+03   -0.15316E-01   -0.15024E-01  5760   0.797E-01 0.293E-03
CGA:  62    -0.221569370306E+03   -0.28152E-01   -0.27824E-01  5760   0.172E+00 0.220E-02
CGA:  63    -0.221601442213E+03   -0.32072E-01   -0.44560E-01  5760   0.378E+00-0.116E+00
CGA:  64    -0.221646841406E+03   -0.45399E-01   -0.46756E-01  5760   0.141E+00 0.105E-01
CGA:  65    -0.221702438014E+03   -0.55597E-01   -0.56745E-01  5760   0.166E+00-0.540E-02
CGA:  66    -0.221760242135E+03   -0.57804E-01   -0.55411E-01  5760   0.132E+00 0.123E-01
CGA:  67    -0.221800415993E+03   -0.40174E-01   -0.40479E-01  5760   0.114E+00-0.260E-02
CGA:  68    -0.221829247698E+03   -0.28832E-01   -0.28721E-01  5760   0.616E-01 0.102E-02
CGA:  69    -0.221846524132E+03   -0.17276E-01   -0.17104E-01  5760   0.361E-01 0.156E-02
CGA:  70    -0.221857161374E+03   -0.10637E-01   -0.10653E-01  5760   0.248E-01-0.141E-03
CGA:  71    -0.221864441481E+03   -0.72801E-02   -0.72667E-02  5760   0.175E-01 0.111E-03
CGA:  72    -0.221872070530E+03   -0.76290E-02   -0.76031E-02  5760   0.261E-01 0.113E-03
CGA:  73    -0.221879678935E+03   -0.76084E-02   -0.76110E-02  5760   0.175E-01-0.366E-04
CGA:  74    -0.221885583450E+03   -0.59045E-02   -0.58977E-02  5760   0.121E-01 0.459E-04
CGA:  75    -0.221888665525E+03   -0.30821E-02   -0.30833E-02  5760   0.936E-02-0.295E-04
CGA:  76    -0.221892822426E+03   -0.41569E-02   -0.41596E-02  5760   0.987E-02-0.129E-04
CGA:  77    -0.221896820897E+03   -0.39985E-02   -0.39966E-02  5760   0.110E-01 0.173E-04
CGA:  78    -0.221901030557E+03   -0.42097E-02   -0.42120E-02  5760   0.150E-01-0.227E-04
CGA:  79    -0.221906886563E+03   -0.58560E-02   -0.58538E-02  5760   0.163E-01 0.177E-04
CGA:  80    -0.221911931267E+03   -0.50447E-02   -0.50470E-02  5760   0.151E-01-0.239E-04
CGA:  81    -0.221917799195E+03   -0.58679E-02   -0.58668E-02  5760   0.128E-01 0.422E-05
CGA:  82    -0.221923287536E+03   -0.54883E-02   -0.55141E-02  5760   0.146E-01-0.142E-03
CGA:  83    -0.221928926905E+03   -0.56394E-02   -0.56455E-02  5760   0.159E-01-0.473E-04
CGA:  84    -0.221933168523E+03   -0.42416E-02   -0.42409E-02  5760   0.954E-02-0.325E-04
CGA:  85    -0.221935852877E+03   -0.26844E-02   -0.26844E-02  5760   0.611E-02-0.248E-04
CGA:  86    -0.221937868024E+03   -0.20151E-02   -0.20144E-02  5760   0.358E-02 0.137E-04
CGA:  87    -0.221938981036E+03   -0.11130E-02   -0.11126E-02  5760   0.277E-02 0.147E-04
CGA:  88    -0.221940060258E+03   -0.10792E-02   -0.10789E-02  5760   0.273E-02 0.350E-05
CGA:  89    -0.221940908874E+03   -0.84862E-03   -0.84854E-03  5760   0.247E-02 0.369E-05
CGA:  90    -0.221941904927E+03   -0.99605E-03   -0.99606E-03  5760   0.267E-02 0.180E-06
CGA:  91    -0.221942868446E+03   -0.96352E-03   -0.96404E-03  5760   0.260E-02-0.744E-05
CGA:  92    -0.221943732802E+03   -0.86436E-03   -0.86451E-03  5760   0.239E-02-0.507E-05
CGA:  93    -0.221945045852E+03   -0.13130E-02   -0.13147E-02  5760   0.351E-02-0.635E-05
SDA:  94    -0.221946585150E+03   -0.15393E-02   -0.15403E-02  5760   0.490E-02-0.903E-05
CGA:  95    -0.221947685901E+03   -0.11008E-02   -0.11013E-02  5760   0.355E-02 0.506E-05
CGA:  96    -0.221948908804E+03   -0.12229E-02   -0.12227E-02  5760   0.213E-02 0.626E-05
CGA:  97    -0.221949634818E+03   -0.72601E-03   -0.72610E-03  5760   0.224E-02-0.176E-05
CGA:  98    -0.221950511773E+03   -0.87695E-03   -0.87565E-03  5760   0.180E-02 0.145E-04
CGA:  99    -0.221951395462E+03   -0.88369E-03   -0.88395E-03  5760   0.247E-02-0.105E-05
CGA: 100    -0.221952579057E+03   -0.11836E-02   -0.11848E-02  5760   0.339E-02-0.811E-05
CGA: 101    -0.221954264501E+03   -0.16854E-02   -0.16891E-02  5760   0.523E-02-0.196E-04
CGA: 102    -0.221956366867E+03   -0.21024E-02   -0.21085E-02  5760   0.640E-02-0.670E-04
CGA: 103    -0.221960571867E+03   -0.42050E-02   -0.42963E-02  5760   0.116E-01-0.287E-03
CGA: 104    -0.221964956079E+03   -0.43842E-02   -0.44093E-02  5760   0.122E-01-0.456E-03
CGA: 105    -0.221969600545E+03   -0.46445E-02   -0.46694E-02  5760   0.163E-01-0.465E-03
CGA: 106    -0.221973783375E+03   -0.41828E-02   -0.41171E-02  5760   0.117E-01-0.585E-04
CGA: 107    -0.221978357307E+03   -0.45739E-02   -0.45819E-02  5760   0.176E-01-0.152E-03
CGA: 108    -0.221983861424E+03   -0.55041E-02   -0.54484E-02  5760   0.182E-01-0.347E-03
CGA: 109    -0.221988368091E+03   -0.45067E-02   -0.44207E-02  5760   0.156E-01-0.139E-04
CGA: 110    -0.221993269373E+03   -0.49013E-02   -0.48859E-02  5760   0.182E-01-0.131E-03
CGA: 111    -0.221997283506E+03   -0.40141E-02   -0.39497E-02  5760   0.127E-01 0.680E-04
CGA: 112    -0.222000431106E+03   -0.31476E-02   -0.31136E-02  5760   0.113E-01-0.211E-04
CGA: 113    -0.222003067379E+03   -0.26363E-02   -0.26222E-02  5760   0.971E-02-0.949E-05
CGA: 114    -0.222005215020E+03   -0.21476E-02   -0.21542E-02  5760   0.724E-02-0.164E-04
CGA: 115    -0.222006977341E+03   -0.17623E-02   -0.17691E-02  5760   0.627E-02 0.814E-05
CGA: 116    -0.222008408643E+03   -0.14313E-02   -0.14353E-02  5760   0.500E-02 0.110E-04
CGA: 117    -0.222009890064E+03   -0.14814E-02   -0.14827E-02  5760   0.546E-02 0.262E-04
CGA: 118    -0.222011188910E+03   -0.12988E-02   -0.13045E-02  5760   0.407E-02 0.981E-05
CGA: 119    -0.222012375393E+03   -0.11865E-02   -0.11876E-02  5760   0.453E-02 0.185E-04
CGA: 120    -0.222013821405E+03   -0.14460E-02   -0.14459E-02  5760   0.496E-02 0.185E-04
CGA: 121    -0.222015226957E+03   -0.14056E-02   -0.14057E-02  5760   0.487E-02 0.662E-05
CGA: 122    -0.222016879990E+03   -0.16530E-02   -0.16526E-02  5760   0.635E-02 0.526E-05
CGA: 123    -0.222018726186E+03   -0.18462E-02   -0.18453E-02  5760   0.537E-02-0.215E-04
CGA: 124    -0.222020155797E+03   -0.14296E-02   -0.14286E-02  5760   0.533E-02-0.505E-05
SDA: 125    -0.222021741958E+03   -0.15862E-02   -0.15859E-02  5760   0.550E-02-0.720E-05
CGA: 126    -0.222023658078E+03   -0.19161E-02   -0.19169E-02  5760   0.626E-02-0.176E-04
CGA: 127    -0.222026830400E+03   -0.31723E-02   -0.31683E-02  5760   0.906E-02 0.207E-04
CGA: 128    -0.222030127022E+03   -0.32966E-02   -0.32962E-02  5760   0.667E-02 0.163E-04
CGA: 129    -0.222032803335E+03   -0.26763E-02   -0.26773E-02  5760   0.775E-02-0.149E-04
CGA: 130    -0.222036147692E+03   -0.33444E-02   -0.33492E-02  5760   0.738E-02-0.363E-04
CGA: 131    -0.222038720808E+03   -0.25731E-02   -0.25728E-02  5760   0.871E-02 0.144E-04
CGA: 132    -0.222042102025E+03   -0.33812E-02   -0.33823E-02  5760   0.686E-02-0.198E-04
CGA: 133    -0.222044754704E+03   -0.26527E-02   -0.26549E-02  5760   0.563E-02-0.358E-04
CGA: 134    -0.222046937798E+03   -0.21831E-02   -0.21825E-02  5760   0.463E-02 0.161E-04
CGA: 135    -0.222049187803E+03   -0.22500E-02   -0.22488E-02  5760   0.360E-02 0.574E-05
CGA: 136    -0.222050552040E+03   -0.13642E-02   -0.13642E-02  5760   0.340E-02 0.221E-05
CGA: 137    -0.222051699826E+03   -0.11478E-02   -0.11478E-02  5760   0.271E-02 0.592E-05
CGA: 138    -0.222052391780E+03   -0.69195E-03   -0.69203E-03  5760   0.134E-02-0.133E-05
CGA: 139    -0.222052945982E+03   -0.55420E-03   -0.55470E-03  5760   0.106E-02-0.700E-05
CGA: 140    -0.222053259469E+03   -0.31349E-03   -0.31352E-03  5760   0.415E-03 0.117E-05
CGA: 141    -0.222053402409E+03   -0.14294E-03   -0.14293E-03  5760   0.345E-03-0.232E-05
CGA: 142    -0.222053516240E+03   -0.11383E-03   -0.11381E-03  5760   0.192E-03-0.174E-05
CGA: 143    -0.222053580680E+03   -0.64440E-04   -0.64453E-04  5760   0.148E-03 0.172E-05
CGA: 144    -0.222053642963E+03   -0.62283E-04   -0.62312E-04  5760   0.954E-04-0.417E-06
CGA: 145    -0.222053694103E+03   -0.51140E-04   -0.51252E-04  5760   0.881E-04-0.592E-06
CGA: 146    -0.222053730244E+03   -0.36142E-04   -0.36061E-04  5760   0.707E-04 0.149E-05
CGA: 147    -0.222053764547E+03   -0.34303E-04   -0.34448E-04  5760   0.577E-04-0.123E-05
CGA: 148    -0.222053782534E+03   -0.17987E-04   -0.17984E-04  5760   0.506E-04-0.582E-07
CGA: 149    -0.222053799624E+03   -0.17090E-04   -0.17091E-04  5760   0.431E-04 0.434E-07
CGA: 150    -0.222053814339E+03   -0.14716E-04   -0.14691E-04  5760   0.328E-04-0.110E-05
CGA: 151    -0.222053829163E+03   -0.14824E-04   -0.14839E-04  5760   0.281E-04-0.137E-06
CGA: 152    -0.222053841085E+03   -0.11922E-04   -0.11871E-04  5760   0.249E-04 0.878E-06
CGA: 153    -0.222053851673E+03   -0.10588E-04   -0.10603E-04  5760   0.199E-04-0.370E-06
CGA: 154    -0.222053859477E+03   -0.78035E-05   -0.77787E-05  5760   0.172E-04 0.967E-06
CGA: 155    -0.222053865799E+03   -0.63225E-05   -0.63271E-05  5760   0.136E-04 0.220E-06
SDA: 156    -0.222053870793E+03   -0.49936E-05   -0.49895E-05  5760   0.163E-04-0.393E-06
CGA: 157    -0.222053873639E+03   -0.28464E-05   -0.29194E-05  5760   0.724E-05 0.375E-06
CGA: 158    -0.222053876655E+03   -0.30156E-05   -0.30181E-05  5760   0.801E-05-0.470E-07
CGA: 159    -0.222053880321E+03   -0.36658E-05   -0.37603E-05  5760   0.932E-05-0.869E-06
CGA: 160    -0.222053883141E+03   -0.28208E-05   -0.28251E-05  5760   0.693E-05 0.149E-06
CGA: 161    -0.222053885843E+03   -0.27013E-05   -0.26988E-05  5760   0.613E-05 0.139E-06
CGA: 162    -0.222053888527E+03   -0.26841E-05   -0.27079E-05  5760   0.667E-05-0.377E-06
CGA: 163    -0.222053890426E+03   -0.18991E-05   -0.19284E-05  5760   0.485E-05 0.456E-06
CGA: 164    -0.222053893002E+03   -0.25761E-05   -0.25168E-05  5760   0.476E-05 0.508E-06
CGA: 165    -0.222053895144E+03   -0.21421E-05   -0.21637E-05  5760   0.622E-05-0.584E-06
CGA: 166    -0.222053896994E+03   -0.18500E-05   -0.18578E-05  5760   0.509E-05 0.215E-06
CGA: 167    -0.222053898309E+03   -0.13150E-05   -0.13614E-05  5760   0.309E-05 0.403E-06
CGA: 168    -0.222053899768E+03   -0.14590E-05   -0.15040E-05  5760   0.391E-05-0.541E-06
CGA: 169    -0.222053900587E+03   -0.81836E-06   -0.80597E-06  5760   0.261E-05-0.101E-06
   1 F= -.23334782E+03 E0= -.23334782E+03  d E =-.159415E-05  mag=     6.0000
