 vasp.5.4.4.18Apr17-6-g9f103f2a35 (build Nov 22 2021 14:44:17) complex          
  
 executed on             LinuxIFC date 2022.08.05  13:33:18
 running on   64 total cores
 distrk:  each k-point on   64 cores,    1 groups
 distr:  one band on NCORES_PER_BAND=   4 cores,   16 groups


--------------------------------------------------------------------------------------------------------


 INCAR:
 POTCAR:    PAW_PBE Li 17Jan2003                  
 POTCAR:    PAW_PBE Co 02Aug2007                  
 POTCAR:    PAW_PBE O 08Apr2002                   
 POTCAR:    PAW_PBE Li 17Jan2003                  
   VRHFIN =Li: s1p0                                                             
   LEXCH  = PE                                                                  
   EATOM  =     5.3001 eV,    0.3895 Ry                                         
                                                                                
   TITEL  = PAW_PBE Li 17Jan2003                                                
   LULTRA =        F    use ultrasoft PP ?                                      
   IUNSCR =        1    unscreen: 0-lin 1-nonlin 2-no                           
   RPACOR =    1.500    partial core radius                                     
   POMASS =    7.010; ZVAL   =    1.000    mass and valenz                      
   RCORE  =    2.050    outmost cutoff radius                                   
   RWIGS  =    2.600; RWIGS  =    1.376    wigner-seitz radius (au A)           
   ENMAX  =  140.000; ENMIN  =  100.000 eV                                      
   ICORE  =        2    local potential                                         
   LCOR   =        T    correct aug charges                                     
   LPAW   =        T    paw PP                                                  
   EAUG   =  331.638                                                            
   DEXC   =    0.000                                                            
   RMAX   =    2.098    core radius for proj-oper                               
   RAUG   =    1.300    factor for augmentation sphere                          
   RDEP   =    2.094    radius for radial grids                                 
   RDEPT  =    1.810    core radius for aug-charge                              
                                                                                
   Atomic configuration                                                         
    4 entries                                                                   
     n  l   j            E        occ.                                          
     1  0  0.50       -51.8549   2.0000                                         
     2  0  0.50        -2.8742   1.0000                                         
     2  1  0.50        -1.3606   0.0000                                         
     3  2  1.50        -1.3606   0.0000                                         
   Description                                                                  
     l       E           TYP  RCUT    TYP  RCUT                                 
     0     -2.8742052     23  2.050                                             
     0     27.2116520     23  2.050                                             
     1     -1.3605826     23  2.050                                             
     2     -1.3605826     23  2.050                                             
  local pseudopotential read in
  partial core-charges read in
  partial kinetic energy density read in
  atomic valenz-charges read in
  non local Contribution for L=           0  read in
    real space projection operators read in
  non local Contribution for L=           0  read in
    real space projection operators read in
  non local Contribution for L=           1  read in
    real space projection operators read in
    PAW grid and wavefunctions read in
 
   number of l-projection  operators is LMAX  =           3
   number of lm-projection operators is LMMAX =           5
 
 POTCAR:    PAW_PBE Co 02Aug2007                  
   VRHFIN =Co: d8 s1                                                            
   LEXCH  = PE                                                                  
   EATOM  =   813.3670 eV,   59.7808 Ry                                         
                                                                                
   TITEL  = PAW_PBE Co 02Aug2007                                                
   LULTRA =        F    use ultrasoft PP ?                                      
   IUNSCR =        1    unscreen: 0-lin 1-nonlin 2-no                           
   RPACOR =    2.000    partial core radius                                     
   POMASS =   58.933; ZVAL   =    9.000    mass and valenz                      
   RCORE  =    2.300    outmost cutoff radius                                   
   RWIGS  =    2.460; RWIGS  =    1.302    wigner-seitz radius (au A)           
   ENMAX  =  267.968; ENMIN  =  200.976 eV                                      
   RCLOC  =    1.203    cutoff for local pot                                    
   LCOR   =        T    correct aug charges                                     
   LPAW   =        T    paw PP                                                  
   EAUG   =  477.818                                                            
   DEXC   =    0.000                                                            
   RMAX   =    2.360    core radius for proj-oper                               
   RAUG   =    1.300    factor for augmentation sphere                          
   RDEP   =    2.393    radius for radial grids                                 
   RDEPT  =    1.864    core radius for aug-charge                              
                                                                                
   Atomic configuration                                                         
    9 entries                                                                   
     n  l   j            E        occ.                                          
     1  0  0.50     -7587.6674   2.0000                                         
     2  0  0.50      -893.6084   2.0000                                         
     2  1  1.50      -764.5805   6.0000                                         
     3  0  0.50       -97.5973   2.0000                                         
     3  1  1.50       -60.9648   6.0000                                         
     3  2  2.50        -4.2382   8.0000                                         
     4  0  0.50        -4.3746   1.0000                                         
     4  1  1.50        -4.0817   0.0000                                         
     4  3  2.50        -1.3606   0.0000                                         
   Description                                                                  
     l       E           TYP  RCUT    TYP  RCUT                                 
     2     -4.2382362     23  2.300                                             
     2     -5.5988188     23  2.300                                             
     0     -4.3745797     23  2.300                                             
     0      5.7660125     23  2.300                                             
     1     -2.7211652     23  2.300                                             
     1     16.9860234     23  2.300                                             
  local pseudopotential read in
  partial core-charges read in
  partial kinetic energy density read in
  atomic valenz-charges read in
  non local Contribution for L=           2  read in
    real space projection operators read in
  non local Contribution for L=           2  read in
    real space projection operators read in
  non local Contribution for L=           0  read in
    real space projection operators read in
  non local Contribution for L=           0  read in
    real space projection operators read in
  non local Contribution for L=           1  read in
    real space projection operators read in
  non local Contribution for L=           1  read in
    real space projection operators read in
    PAW grid and wavefunctions read in
 
   number of l-projection  operators is LMAX  =           6
   number of lm-projection operators is LMMAX =          18
 
 POTCAR:    PAW_PBE O 08Apr2002                   
   VRHFIN =O: s2p4                                                              
   LEXCH  = PE                                                                  
   EATOM  =   432.3788 eV,   31.7789 Ry                                         
                                                                                
   TITEL  = PAW_PBE O 08Apr2002                                                 
   LULTRA =        F    use ultrasoft PP ?                                      
   IUNSCR =        1    unscreen: 0-lin 1-nonlin 2-no                           
   RPACOR =    1.200    partial core radius                                     
   POMASS =   16.000; ZVAL   =    6.000    mass and valenz                      
   RCORE  =    1.520    outmost cutoff radius                                   
   RWIGS  =    1.550; RWIGS  =    0.820    wigner-seitz radius (au A)           
   ENMAX  =  400.000; ENMIN  =  300.000 eV                                      
   ICORE  =        2    local potential                                         
   LCOR   =        T    correct aug charges                                     
   LPAW   =        T    paw PP                                                  
   EAUG   =  605.392                                                            
   DEXC   =    0.000                                                            
   RMAX   =    1.553    core radius for proj-oper                               
   RAUG   =    1.300    factor for augmentation sphere                          
   RDEP   =    1.550    radius for radial grids                                 
   RDEPT  =    1.329    core radius for aug-charge                              
                                                                                
   Atomic configuration                                                         
    4 entries                                                                   
     n  l   j            E        occ.                                          
     1  0  0.50      -514.6923   2.0000                                         
     2  0  0.50       -23.9615   2.0000                                         
     2  1  0.50        -9.0305   4.0000                                         
     3  2  1.50        -9.5241   0.0000                                         
   Description                                                                  
     l       E           TYP  RCUT    TYP  RCUT                                 
     0    -23.9615318     23  1.200                                             
     0     -9.5240782     23  1.200                                             
     1     -9.0304911     23  1.520                                             
     1      8.1634956     23  1.520                                             
     2     -9.5240782      7  1.500                                             
  local pseudopotential read in
  partial core-charges read in
  partial kinetic energy density read in
  kinetic energy density of atom read in
  atomic valenz-charges read in
  non local Contribution for L=           0  read in
    real space projection operators read in
  non local Contribution for L=           0  read in
    real space projection operators read in
  non local Contribution for L=           1  read in
    real space projection operators read in
  non local Contribution for L=           1  read in
    real space projection operators read in
    PAW grid and wavefunctions read in
 
   number of l-projection  operators is LMAX  =           4
   number of lm-projection operators is LMMAX =           8
 
 Optimization of the real space projectors (new method)

 maximal supplied QI-value         = 18.33
 optimisation between [QCUT,QGAM] = [ 12.46, 24.93] = [ 43.51,174.03] Ry 
 Optimized for a Real-space Cutoff    1.13 Angstroem

   l    n(q)    QCUT    max X(q) W(low)/X(q) W(high)/X(q)  e(spline) 
   0      8    12.465    33.825    0.12E-03    0.29E-03    0.99E-07
   0      8    12.465     8.944    0.86E-04    0.22E-03    0.72E-07
   1      8    12.465     4.214    0.27E-03    0.11E-03    0.82E-07
 Optimization of the real space projectors (new method)

 maximal supplied QI-value         = 16.25
 optimisation between [QCUT,QGAM] = [ 12.51, 25.03] = [ 43.85,175.40] Ry 
 Optimized for a Real-space Cutoff    1.31 Angstroem

   l    n(q)    QCUT    max X(q) W(low)/X(q) W(high)/X(q)  e(spline) 
   2      9    12.514    65.824    0.30E-03    0.46E-03    0.43E-06
   2      9    12.514    61.429    0.31E-03    0.46E-03    0.44E-06
   0     10    12.514    56.174    0.90E-04    0.33E-03    0.30E-06
   0     10    12.514    31.263    0.81E-04    0.30E-03    0.28E-06
   1      9    12.514    19.828    0.38E-03    0.65E-04    0.24E-06
   1      9    12.514    15.139    0.32E-03    0.60E-04    0.20E-06
 Optimization of the real space projectors (new method)

 maximal supplied QI-value         = 24.76
 optimisation between [QCUT,QGAM] = [ 12.38, 25.00] = [ 42.90,175.06] Ry 
 Optimized for a Real-space Cutoff    1.13 Angstroem

   l    n(q)    QCUT    max X(q) W(low)/X(q) W(high)/X(q)  e(spline) 
   0      8    12.378    20.381    0.16E-03    0.54E-05    0.27E-06
   0      8    12.378    15.268    0.17E-03    0.61E-05    0.29E-06
   1      8    12.378     5.964    0.38E-03    0.23E-03    0.28E-06
   1      8    12.378     5.382    0.33E-03    0.20E-03    0.25E-06
  PAW_PBE Li 17Jan2003                  :
 energy of atom  1       EATOM=   -5.3001
 kinetic energy error for atom=    0.0000 (will be added to EATOM!!)
  PAW_PBE Co 02Aug2007                  :
 energy of atom  2       EATOM= -813.3670
 kinetic energy error for atom=    0.0018 (will be added to EATOM!!)
  PAW_PBE O 08Apr2002                   :
 energy of atom  3       EATOM= -432.3788
 kinetic energy error for atom=    0.0168 (will be added to EATOM!!)
 
 
 POSCAR: Li6 Co12 O24                            
  positions in cartesian coordinates
  No initial velocities read in
 exchange correlation table for  LEXCH =        8
   RHO(1)=    0.500       N(1)  =     2000
   RHO(2)=  100.500       N(2)  =     4000
 


--------------------------------------------------------------------------------------------------------


 ion  position               nearest neighbor table
   1  0.499  0.016  0.984-  37 1.96  38 2.14  36 2.24  25 2.26  24 2.35  23 2.48  17 2.86  15 2.94
                            16 2.94
   2  0.875  0.147  0.349-  19 1.89  33 1.96  34 2.05  31 2.13  20 2.59   3 2.80  12 2.85  11 2.88
                            13 2.90   7 3.00  10 3.05   3 3.07
   3  0.677  0.521  0.351-  33 1.78  34 2.01  22 2.12  20 2.17  14 2.38  31 2.56   9 2.77   2 2.80
                             2 3.07  12 3.20
   4  0.207  0.319  0.672-  27 1.97  39 1.99  42 2.01  40 2.15  28 2.21  29 2.33   6 2.61  15 2.70
                             5 2.76  16 2.80  17 2.81   5 2.81  14 2.87   6 2.96  11 3.00  12 3.08
   5  0.160  0.791  0.665-  28 1.95  40 1.98  30 2.05  39 2.06  27 2.15  41 2.21   6 2.75   4 2.76
                            12 2.80   4 2.81  18 2.84  13 2.84   6 2.86  16 2.88  15 2.90  11 2.94
   6  0.672  0.793  0.661-  30 1.94  28 2.01  42 2.03  41 2.07  29 2.20  39 2.22   4 2.61   5 2.75
                            14 2.77   5 2.86  13 2.87  16 2.89  11 2.90  17 2.94   4 2.96  18 2.98
   7  0.140  0.367  0.167-  23 1.88  24 1.90  22 1.96  20 1.99  19 2.04  25 2.06   9 2.71   8 2.74
                            10 2.74   8 2.82  10 2.82   9 2.90   2 3.00
   8  0.128  0.854  0.175-  24 1.81  23 1.81  20 1.82  19 1.83  26 1.88  21 1.96   7 2.74   9 2.76
                            10 2.79   9 2.81  10 2.81   7 2.82
   9  0.623  0.369  0.173-  26 1.76  22 1.80  21 1.87  23 1.88  20 1.90  25 1.95  10 2.70   7 2.71
                             8 2.76   3 2.77   8 2.81  10 2.85   7 2.90
  10  0.633  0.859  0.173-  26 1.84  24 1.88  22 1.88  25 1.89  19 1.90  21 1.92   9 2.70   7 2.74
                             8 2.79   8 2.81   7 2.82   9 2.85   2 3.05
  11  0.043  0.984  0.503-  32 1.76  29 1.89  31 1.90  27 1.97  30 1.98  34 2.05  13 2.69  12 2.72
                            14 2.72  12 2.83  14 2.84   2 2.88   6 2.90  13 2.92   5 2.94   4 3.00
  12  0.033  0.489  0.505-  32 1.84  29 1.90  31 1.90  33 1.94  30 1.94  28 1.98  11 2.72  13 2.75
                            14 2.78   5 2.80  13 2.81  14 2.83  11 2.83   2 2.85   4 3.08   3 3.20
  13  0.523  0.989  0.511-  28 1.83  27 1.88  29 1.90  32 1.90  34 1.93  33 1.97  11 2.69  14 2.73
                            12 2.75  12 2.81  14 2.82   5 2.84   6 2.87   2 2.90  11 2.92
  14  0.525  0.481  0.505-  31 1.89  34 1.93  27 1.95  30 1.96  33 1.99  28 2.02   3 2.38  11 2.72
                            13 2.73   6 2.77  12 2.78  13 2.82  12 2.83  11 2.84   4 2.87
  15  0.355  0.165  0.817-  42 1.83  35 1.85  36 1.86  41 1.93  39 1.94  37 1.97   4 2.70  18 2.72
                            17 2.75  16 2.77  16 2.79  18 2.85  17 2.85   5 2.90   1 2.94
  16  0.333  0.656  0.824-  35 1.80  41 1.82  36 1.91  42 1.95  38 1.95  40 1.97  17 2.76  15 2.77
                            18 2.77  15 2.79   4 2.80  17 2.80  18 2.83   5 2.88   6 2.89   1 2.94
  17  0.836  0.145  0.822-  38 1.80  35 1.84  39 1.88  37 1.91  41 1.91  40 1.92  18 2.72  15 2.75
                            16 2.76  16 2.80   4 2.81  18 2.83  15 2.85   1 2.86   6 2.94
  18  0.838  0.656  0.829-  36 1.84  38 1.88  40 1.89  37 1.93  42 1.94  39 1.97  15 2.72  17 2.72
                            16 2.77  17 2.83  16 2.83   5 2.84  15 2.85   6 2.98
  19  0.952  0.009  0.241-   8 1.83   2 1.89  10 1.90   7 2.04
  20  0.948  0.532  0.239-   8 1.82   9 1.90   7 1.99   3 2.17   2 2.59
  21  0.468  0.043  0.241-   9 1.87  10 1.92   8 1.96
  22  0.464  0.529  0.240-   9 1.80  10 1.88   7 1.96   3 2.12
  23  0.299  0.171  0.110-   8 1.81   7 1.88   9 1.88   1 2.48
  24  0.312  0.717  0.108-   8 1.81  10 1.88   7 1.90   1 2.35
  25  0.779  0.179  0.100-  10 1.89   9 1.95   7 2.06   1 2.26
  26  0.801  0.684  0.113-   9 1.76  10 1.84   8 1.88
  27  0.355  0.155  0.582-  13 1.88  14 1.95  11 1.97   4 1.97   5 2.15
  28  0.358  0.674  0.579-  13 1.83   5 1.95  12 1.98   6 2.01  14 2.02   4 2.21
  29  0.863  0.148  0.568-  11 1.89  12 1.90  13 1.90   6 2.20   4 2.33
  30  0.847  0.646  0.578-   6 1.94  12 1.94  14 1.96  11 1.98   5 2.05
  31  0.207  0.320  0.437-  14 1.89  11 1.90  12 1.90   2 2.13   3 2.56
  32  0.201  0.819  0.443-  11 1.76  12 1.84  13 1.90
  33  0.715  0.315  0.432-   3 1.78  12 1.94   2 1.96  13 1.97  14 1.99
  34  0.687  0.817  0.435-  13 1.93  14 1.93   3 2.01   2 2.05  11 2.05
  35  0.166  0.320  0.877-  16 1.80  17 1.84  15 1.85
  36  0.165  0.844  0.886-  18 1.84  15 1.86  16 1.91   1 2.24
  37  0.669  0.314  0.895-  17 1.91  18 1.93   1 1.96  15 1.97
  38  0.670  0.837  0.890-  17 1.80  18 1.88  16 1.95   1 2.14
  39  0.018  0.991  0.753-  17 1.88  15 1.94  18 1.97   4 1.99   5 2.06   6 2.22
  40  0.998  0.486  0.755-  18 1.89  17 1.92  16 1.97   5 1.98   4 2.15
  41  0.512  0.965  0.754-  16 1.82  17 1.91  15 1.93   6 2.07   5 2.21
  42  0.520  0.491  0.755-  15 1.83  18 1.94  16 1.95   4 2.01   6 2.03
 

IMPORTANT INFORMATION: All symmetrisations will be switched off!
NOSYMM: (Re-)initialisation of all symmetry stuff for point group C_1.

 
 

Automatic generation of k-mesh.
 generate k-points for:    6    6    2
Space group operators:
 irot       det(A)        alpha          n_x          n_y          n_z        tau_x        tau_y        tau_z
    1     1.000000     0.000000     1.000000     0.000000     0.000000     0.000000     0.000000     0.000000
 
 Subroutine IBZKPT returns following result:
 ===========================================
 
 Found     36 irreducible k-points:
 
 Following reciprocal coordinates:
            Coordinates               Weight
  0.083333  0.083333  0.250000      2.000000
  0.250000  0.083333  0.250000      2.000000
  0.416667  0.083333  0.250000      2.000000
 -0.416667  0.083333  0.250000      2.000000
 -0.250000  0.083333  0.250000      2.000000
 -0.083333  0.083333  0.250000      2.000000
  0.083333  0.250000  0.250000      2.000000
  0.250000  0.250000  0.250000      2.000000
  0.416667  0.250000  0.250000      2.000000
 -0.416667  0.250000  0.250000      2.000000
 -0.250000  0.250000  0.250000      2.000000
 -0.083333  0.250000  0.250000      2.000000
  0.083333  0.416667  0.250000      2.000000
  0.250000  0.416667  0.250000      2.000000
  0.416667  0.416667  0.250000      2.000000
 -0.416667  0.416667  0.250000      2.000000
 -0.250000  0.416667  0.250000      2.000000
 -0.083333  0.416667  0.250000      2.000000
  0.083333 -0.416667  0.250000      2.000000
  0.250000 -0.416667  0.250000      2.000000
  0.416667 -0.416667  0.250000      2.000000
 -0.416667 -0.416667  0.250000      2.000000
 -0.250000 -0.416667  0.250000      2.000000
 -0.083333 -0.416667  0.250000      2.000000
  0.083333 -0.250000  0.250000      2.000000
  0.250000 -0.250000  0.250000      2.000000
  0.416667 -0.250000  0.250000      2.000000
 -0.416667 -0.250000  0.250000      2.000000
 -0.250000 -0.250000  0.250000      2.000000
 -0.083333 -0.250000  0.250000      2.000000
  0.083333 -0.083333  0.250000      2.000000
  0.250000 -0.083333  0.250000      2.000000
  0.416667 -0.083333  0.250000      2.000000
 -0.416667 -0.083333  0.250000      2.000000
 -0.250000 -0.083333  0.250000      2.000000
 -0.083333 -0.083333  0.250000      2.000000
 
 Following cartesian coordinates:
            Coordinates               Weight
  0.014872  0.026034  0.015890      2.000000
  0.044616  0.043357  0.014145      2.000000
  0.074360  0.060680  0.012400      2.000000
 -0.074360 -0.025936  0.021125      2.000000
 -0.044616 -0.008613  0.019380      2.000000
 -0.014872  0.008711  0.017635      2.000000
  0.014872  0.060778  0.016009      2.000000
  0.044616  0.078102  0.014264      2.000000
  0.074360  0.095425  0.012519      2.000000
 -0.074360  0.008809  0.021244      2.000000
 -0.044616  0.026132  0.019499      2.000000
 -0.014872  0.043455  0.017754      2.000000
  0.014872  0.095523  0.016128      2.000000
  0.044616  0.112846  0.014383      2.000000
  0.074360  0.130169  0.012638      2.000000
 -0.074360  0.043553  0.021362      2.000000
 -0.044616  0.060876  0.019618      2.000000
 -0.014872  0.078200  0.017873      2.000000
  0.014872 -0.078200  0.015534      2.000000
  0.044616 -0.060876  0.013789      2.000000
  0.074360 -0.043553  0.012044      2.000000
 -0.074360 -0.130169  0.020769      2.000000
 -0.044616 -0.112846  0.019024      2.000000
 -0.014872 -0.095523  0.017279      2.000000
  0.014872 -0.043455  0.015653      2.000000
  0.044616 -0.026132  0.013908      2.000000
  0.074360 -0.008809  0.012163      2.000000
 -0.074360 -0.095425  0.020888      2.000000
 -0.044616 -0.078102  0.019143      2.000000
 -0.014872 -0.060778  0.017398      2.000000
  0.014872 -0.008711  0.015771      2.000000
  0.044616  0.008613  0.014026      2.000000
  0.074360  0.025936  0.012282      2.000000
 -0.074360 -0.060680  0.021006      2.000000
 -0.044616 -0.043357  0.019261      2.000000
 -0.014872 -0.026034  0.017516      2.000000
 


--------------------------------------------------------------------------------------------------------




 Dimension of arrays:
   k-points           NKPTS =     36   k-points in BZ     NKDIM =     36   number of bands    NBANDS=    160
   number of dos      NEDOS =    301   number of ions     NIONS =     42
   non local maximal  LDIM  =      6   non local SUM 2l+1 LMDIM =     18
   total plane-waves  NPLWV = 116640
   max r-space proj   IRMAX =   2759   max aug-charges    IRDMAX=  11633
   dimension x,y,z NGX =    36 NGY =   36 NGZ =   90
   dimension x,y,z NGXF=    72 NGYF=   72 NGZF=  180
   support grid    NGXF=    72 NGYF=   72 NGZF=  180
   ions per type =               6  12  24
   NGX,Y,Z   is equivalent  to a cutoff of  10.68, 10.78,  9.98 a.u.
   NGXF,Y,Z  is equivalent  to a cutoff of  21.36, 21.56, 19.96 a.u.

 SYSTEM =  LiCoO2                                  
 POSCAR =  Li6 Co12 O24                            

 Startparameter for this run:
   NWRITE =      2    write-flag & timer
   PREC   = normal    normal or accurate (medium, high low for compatibility)
   ISTART =      0    job   : 0-new  1-cont  2-samecut
   ICHARG =      2    charge: 1-file 2-atom 10-const
   ISPIN  =      2    spin polarized calculation?
   LNONCOLLINEAR =      F non collinear calculations
   LSORBIT =      F    spin-orbit coupling
   INIWAV =      1    electr: 0-lowe 1-rand  2-diag
   LASPH  =      F    aspherical Exc in radial PAW
   METAGGA=      F    non-selfconsistent MetaGGA calc.

 Electronic Relaxation 1
   ENCUT  =  600.0 eV  44.10 Ry    6.64 a.u.  11.19 11.09 29.95*2*pi/ulx,y,z
   ENINI  =  600.0     initial cutoff
   ENAUG  =  605.4 eV  augmentation charge cutoff
   NELM   =    600;   NELMIN=  2; NELMDL= -5     # of ELM steps 
   EDIFF  = 0.1E-05   stopping-criterion for ELM
   LREAL  =      T    real-space projection
   NLSPLINE    = F    spline interpolate recip. space projectors
   LCOMPAT=      F    compatible to vasp.4.4
   GGA_COMPAT  = T    GGA compatible to vasp.4.4-vasp.4.6
   LMAXPAW     = -100 max onsite density
   LMAXMIX     =    2 max onsite mixed and CHGCAR
   VOSKOWN=      0    Vosko Wilk Nusair interpolation
   ROPT   =   -0.00050  -0.00050  -0.00050
 Ionic relaxation
   EDIFFG = 0.1E-04   stopping-criterion for IOM
   NSW    =      0    number of steps for IOM
   NBLOCK =      1;   KBLOCK =      1    inner block; outer block 
   IBRION =     -1    ionic relax: 0-MD 1-quasi-New 2-CG
   NFREE  =      0    steps in history (QN), initial steepest desc. (CG)
   ISIF   =      2    stress and relaxation
   IWAVPR =     10    prediction:  0-non 1-charg 2-wave 3-comb
   ISYM   =      0    0-nonsym 1-usesym 2-fastsym
   LCORR  =      T    Harris-Foulkes like correction to forces

   POTIM  = 0.5000    time-step for ionic-motion
   TEIN   =    0.0    initial temperature
   TEBEG  =    0.0;   TEEND  =   0.0 temperature during run
   SMASS  =  -3.00    Nose mass-parameter (am)
   estimated Nose-frequenzy (Omega)   =  0.10E-29 period in steps =****** mass=  -0.718E-27a.u.
   SCALEE = 1.0000    scale energy and forces
   NPACO  =    256;   APACO  = 16.0  distance and # of slots for P.C.
   PSTRESS=    0.0 pullay stress

  Mass of Ions in am
   POMASS =   7.01 58.93 16.00
  Ionic Valenz
   ZVAL   =   1.00  9.00  6.00
  Atomic Wigner-Seitz radii
   RWIGS  =  -1.00 -1.00 -1.00
  virtual crystal weights 
   VCA    =   1.00  1.00  1.00
   NELECT =     258.0000    total number of electrons
   NUPDOWN=       6.0000    fix difference up-down

 DOS related values:
   EMIN   =  10.00;   EMAX   =-10.00  energy-range for DOS
   EFERMI =   0.00
   ISMEAR =     0;   SIGMA  =   0.05  broadening in eV -4-tet -1-fermi 0-gaus

 Electronic relaxation 2 (details)
   IALGO  =     58    algorithm
   LDIAG  =      T    sub-space diagonalisation (order eigenvalues)
   LSUBROT=      F    optimize rotation matrix (better conditioning)
   TURBO    =      0    0=normal 1=particle mesh
   IRESTART =      0    0=no restart 2=restart with 2 vectors
   NREBOOT  =      0    no. of reboots
   NMIN     =      0    reboot dimension
   EREF     =   0.00    reference energy to select bands
   IMIX   =      4    mixing-type and parameters
     AMIX     =   0.40;   BMIX     =  1.00
     AMIX_MAG =   1.60;   BMIX_MAG =  1.00
     AMIN     =   0.10
     WC   =   100.;   INIMIX=   1;  MIXPRE=   1;  MAXMIX= -45

 Intra band minimization:
   WEIMIN = 0.0000     energy-eigenvalue tresh-hold
   EBREAK =  0.16E-08  absolut break condition
   DEPER  =   0.30     relativ break condition  

   TIME   =   0.40     timestep for ELM

  volume/ion in A,a.u.               =       9.58        64.64
  Fermi-wavevector in a.u.,A,eV,Ry     =   1.411774  2.667866 27.117859  1.993106
  Thomas-Fermi vector in A             =   2.533591
 
 Write flags
   LWAVE        =      F    write WAVECAR
   LDOWNSAMPLE  =      F    k-point downsampling of WAVECAR
   LCHARG       =      F    write CHGCAR
   LVTOT        =      F    write LOCPOT, total local potential
   LVHAR        =      F    write LOCPOT, Hartree potential only
   LELF         =      F    write electronic localiz. function (ELF)
   LORBIT       =     11    0 simple, 1 ext, 2 COOP (PROOUT), +10 PAW based schemes


 Dipole corrections
   LMONO  =      F    monopole corrections only (constant potential shift)
   LDIPOL =      F    correct potential (dipole corrections)
   IDIPOL =      0    1-x, 2-y, 3-z, 4-all directions 
   EPSILON=  1.0000000 bulk dielectric constant

 LDA+U is selected, type is set to LDAUTYPE =  2
   angular momentum for each species LDAUL =    -1    2   -1
   U (eV)           for each species LDAUU =   0.0  5.1  0.0
   J (eV)           for each species LDAUJ =   0.0  0.0  0.0
 Exchange correlation treatment:
   GGA     =    --    GGA type
   LEXCH   =     8    internal setting for exchange type
   VOSKOWN=      0    Vosko Wilk Nusair interpolation
   LHFCALC =     F    Hartree Fock is set to
   LHFONE  =     F    Hartree Fock one center treatment
   AEXX    =    0.0000 exact exchange contribution

 Linear response parameters
   LEPSILON=     F    determine dielectric tensor
   LRPA    =     F    only Hartree local field effects (RPA)
   LNABLA  =     F    use nabla operator in PAW spheres
   LVEL    =     F    velocity operator in full k-point grid
   LINTERFAST=   F  fast interpolation
   KINTER  =     0    interpolate to denser k-point grid
   CSHIFT  =0.1000    complex shift for real part using Kramers Kronig
   OMEGAMAX=  -1.0    maximum frequency
   DEG_THRESHOLD= 0.2000000E-02 threshold for treating states as degnerate
   RTIME   =   -0.100 relaxation time in fs
  (WPLASMAI=    0.000 imaginary part of plasma frequency in eV, 0.658/RTIME)
   DFIELD  = 0.0000000 0.0000000 0.0000000 field for delta impulse in time
 
 Orbital magnetization related:
   ORBITALMAG=     F  switch on orbital magnetization
   LCHIMAG   =     F  perturbation theory with respect to B field
   DQ        =  0.001000  dq finite difference perturbation B field
   LLRAUG    =     F  two centre corrections for induced B field



--------------------------------------------------------------------------------------------------------


 Static calculation
 charge density and potential will be updated during run
 spin polarized calculation
 Conjugate gradient for all bands (Freysoldt, et al. PRB 79, 241103 (2009))
 preconditioned conjugated gradient                                        
 perform sub-space diagonalisation
    before iterative eigenvector-optimisation
 modified Broyden-mixing scheme, WC =      100.0
 initial mixing is a Kerker type mixing with AMIX =  0.4000 and BMIX =      1.0000
 Hartree-type preconditioning will be used
 using additional bands           31
 real space projection scheme for non local part
 use partial core corrections
 no Harris-corrections to forces 
 use gradient corrections 
 use of overlap-Matrix (Vanderbilt PP)
 Gauss-broadening in eV      SIGMA  =   0.05


--------------------------------------------------------------------------------------------------------


  energy-cutoff  :      600.00
  volume of cell :      402.30
      direct lattice vectors                 reciprocal lattice vectors
     5.603349209  0.000000000  0.000000000     0.178464694  0.103939234 -0.010469758
    -2.793763638  4.796919823  0.000000000     0.000000000  0.208467107  0.000712348
     0.907843471 -0.051143799 14.967123032     0.000000000  0.000000000  0.066813107

  length of vectors
     5.603349209  5.551176006 14.994717980     0.206791265  0.208468324  0.066813107


 
 k-points in units of 2pi/SCALE and weight: read from INCAR                         
   0.01487206  0.02603386  0.01589016       0.028
   0.04461617  0.04335707  0.01414520       0.028
   0.07436029  0.06068027  0.01240024       0.028
  -0.07436029 -0.02593576  0.02112504       0.028
  -0.04461617 -0.00861255  0.01938008       0.028
  -0.01487206  0.00871066  0.01763512       0.028
   0.01487206  0.06077838  0.01600888       0.028
   0.04461617  0.07810159  0.01426392       0.028
   0.07436029  0.09542479  0.01251896       0.028
  -0.07436029  0.00880876  0.02124376       0.028
  -0.04461617  0.02613197  0.01949880       0.028
  -0.01487206  0.04345517  0.01775384       0.028
   0.01487206  0.09552290  0.01612761       0.028
   0.04461617  0.11284610  0.01438265       0.028
   0.07436029  0.13016931  0.01263769       0.028
  -0.07436029  0.04355328  0.02136249       0.028
  -0.04461617  0.06087649  0.01961753       0.028
  -0.01487206  0.07819969  0.01787257       0.028
   0.01487206 -0.07819969  0.01553399       0.028
   0.04461617 -0.06087649  0.01378903       0.028
   0.07436029 -0.04355328  0.01204407       0.028
  -0.07436029 -0.13016931  0.02076886       0.028
  -0.04461617 -0.11284610  0.01902390       0.028
  -0.01487206 -0.09552290  0.01727895       0.028
   0.01487206 -0.04345517  0.01565271       0.028
   0.04461617 -0.02613197  0.01390775       0.028
   0.07436029 -0.00880876  0.01216279       0.028
  -0.07436029 -0.09542479  0.02088759       0.028
  -0.04461617 -0.07810159  0.01914263       0.028
  -0.01487206 -0.06077838  0.01739767       0.028
   0.01487206 -0.00871066  0.01577143       0.028
   0.04461617  0.00861255  0.01402647       0.028
   0.07436029  0.02593576  0.01228152       0.028
  -0.07436029 -0.06068027  0.02100631       0.028
  -0.04461617 -0.04335707  0.01926135       0.028
  -0.01487206 -0.02603386  0.01751639       0.028
 
 k-points in reciprocal lattice and weights: read from INCAR                         
   0.08333333  0.08333333  0.25000000       0.028
   0.25000000  0.08333333  0.25000000       0.028
   0.41666667  0.08333333  0.25000000       0.028
  -0.41666667  0.08333333  0.25000000       0.028
  -0.25000000  0.08333333  0.25000000       0.028
  -0.08333333  0.08333333  0.25000000       0.028
   0.08333333  0.25000000  0.25000000       0.028
   0.25000000  0.25000000  0.25000000       0.028
   0.41666667  0.25000000  0.25000000       0.028
  -0.41666667  0.25000000  0.25000000       0.028
  -0.25000000  0.25000000  0.25000000       0.028
  -0.08333333  0.25000000  0.25000000       0.028
   0.08333333  0.41666667  0.25000000       0.028
   0.25000000  0.41666667  0.25000000       0.028
   0.41666667  0.41666667  0.25000000       0.028
  -0.41666667  0.41666667  0.25000000       0.028
  -0.25000000  0.41666667  0.25000000       0.028
  -0.08333333  0.41666667  0.25000000       0.028
   0.08333333 -0.41666667  0.25000000       0.028
   0.25000000 -0.41666667  0.25000000       0.028
   0.41666667 -0.41666667  0.25000000       0.028
  -0.41666667 -0.41666667  0.25000000       0.028
  -0.25000000 -0.41666667  0.25000000       0.028
  -0.08333333 -0.41666667  0.25000000       0.028
   0.08333333 -0.25000000  0.25000000       0.028
   0.25000000 -0.25000000  0.25000000       0.028
   0.41666667 -0.25000000  0.25000000       0.028
  -0.41666667 -0.25000000  0.25000000       0.028
  -0.25000000 -0.25000000  0.25000000       0.028
  -0.08333333 -0.25000000  0.25000000       0.028
   0.08333333 -0.08333333  0.25000000       0.028
   0.25000000 -0.08333333  0.25000000       0.028
   0.41666667 -0.08333333  0.25000000       0.028
  -0.41666667 -0.08333333  0.25000000       0.028
  -0.25000000 -0.08333333  0.25000000       0.028
  -0.08333333 -0.08333333  0.25000000       0.028
 
 position of ions in fractional coordinates (direct lattice) 
   0.49943176  0.01555091  0.98401877
   0.87472973  0.14702549  0.34861543
   0.67664818  0.52096838  0.35123517
   0.20656663  0.31881906  0.67162473
   0.16041163  0.79050308  0.66537502
   0.67248809  0.79310323  0.66073890
   0.14001330  0.36676705  0.16721717
   0.12797467  0.85438899  0.17549732
   0.62339034  0.36851140  0.17283816
   0.63250366  0.85944621  0.17254150
   0.04272819  0.98363330  0.50250740
   0.03312293  0.48911464  0.50492336
   0.52263137  0.98858829  0.51068932
   0.52455216  0.48071792  0.50476034
   0.35498217  0.16469515  0.81748708
   0.33310196  0.65642469  0.82446904
   0.83578216  0.14537019  0.82178320
   0.83779502  0.65648788  0.82863823
   0.95168338  0.00917349  0.24058598
   0.94778878  0.53216826  0.23949159
   0.46802552  0.04342613  0.24072628
   0.46393889  0.52932618  0.24040559
   0.29852162  0.17087337  0.10961024
   0.31157656  0.71690910  0.10803880
   0.77930150  0.17949253  0.09974328
   0.80058306  0.68394123  0.11304110
   0.35535305  0.15475792  0.58171903
   0.35798132  0.67371931  0.57949215
   0.86270814  0.14753704  0.56826817
   0.84735118  0.64572753  0.57843182
   0.20678294  0.32043488  0.43661963
   0.20133467  0.81871796  0.44275911
   0.71478470  0.31526646  0.43168417
   0.68656769  0.81733030  0.43480969
   0.16631818  0.31985230  0.87744516
   0.16508731  0.84366726  0.88601733
   0.66887276  0.31392082  0.89537781
   0.67017400  0.83724515  0.89019315
   0.01772599  0.99050058  0.75261827
   0.99789608  0.48640330  0.75488325
   0.51180080  0.96488817  0.75397457
   0.51955137  0.49097577  0.75495671
 
 position of ions in cartesian coordinates  (Angst):
   3.64838004  0.02427000 14.72793007
   4.80714989  0.68743998  5.21777010
   2.65490007  2.48108006  5.25697994
   0.87649000  1.49500000 10.05228996
  -0.70558000  3.75795007  9.95874977
   2.15229011  3.77065992  9.88936043
  -0.08831000  1.75080001  2.50275993
  -1.51055002  4.08945990  2.62668991
   2.62045002  1.75888002  2.58688998
   1.29969001  4.11387014  2.58244991
  -2.05241990  4.69270992  7.52109003
  -0.72248000  2.32042003  7.55725002
   0.63023001  4.71606016  7.64354992
   2.05448008  2.28014994  7.55481005
   2.27112007  0.74822003 12.23542976
   0.78108001  3.10665011 12.33992958
   5.02309990  0.65530002 12.29973030
   3.61265993  3.10674000 12.40233040
   5.52540016  0.03170000  3.60087991
   4.04146004  2.54051995  3.58450007
   2.71972990  0.19599999  3.60297990
   1.33905005  2.52683997  3.59818006
   1.29484999  0.81405997  1.64055002
  -0.15892001  3.43342996  1.61703002
   3.95579004  0.85591000  1.49286997
   2.67779994  3.27502990  1.69190001
   2.08692002  0.71261001  8.70666027
   0.64977002  3.20214009  8.67333031
   4.93776989  0.67865998  8.50533962
   3.46912003  3.06791997  8.65746021
   0.65983999  1.51477003  6.53493977
  -0.75720000  3.90468001  6.62683010
   3.51630998  1.49022996  6.46107006
   1.95839000  3.89843011  6.50785017
   0.83493000  1.48942995 13.13282967
  -0.62760001  4.00168991 13.26113033
   3.68376994  1.46006000 13.40122986
   2.22430992  3.97066998 13.32363033
  -1.98464000  4.71286011 11.26453018
   4.91798019  2.29463005 11.29843044
   0.85662001  4.58993006 11.28483009
   2.22494006  2.31656003 11.29953003
 


--------------------------------------------------------------------------------------------------------


 k-point  1 :   0.0833 0.0833 0.2500  plane waves:   13406
 k-point  2 :   0.2500 0.0833 0.2500  plane waves:   13416
 k-point  3 :   0.4167 0.0833 0.2500  plane waves:   13428
 k-point  4 :  -0.4167 0.0833 0.2500  plane waves:   13415
 k-point  5 :  -0.2500 0.0833 0.2500  plane waves:   13394
 k-point  6 :  -0.0833 0.0833 0.2500  plane waves:   13394
 k-point  7 :   0.0833 0.2500 0.2500  plane waves:   13423
 k-point  8 :   0.2500 0.2500 0.2500  plane waves:   13445
 k-point  9 :   0.4167 0.2500 0.2500  plane waves:   13461
 k-point 10 :  -0.4167 0.2500 0.2500  plane waves:   13411
 k-point 11 :  -0.2500 0.2500 0.2500  plane waves:   13395
 k-point 12 :  -0.0833 0.2500 0.2500  plane waves:   13425
 k-point 13 :   0.0833 0.4167 0.2500  plane waves:   13448
 k-point 14 :   0.2500 0.4167 0.2500  plane waves:   13445
 k-point 15 :   0.4167 0.4167 0.2500  plane waves:   13439
 k-point 16 :  -0.4167 0.4167 0.2500  plane waves:   13440
 k-point 17 :  -0.2500 0.4167 0.2500  plane waves:   13437
 k-point 18 :  -0.0833 0.4167 0.2500  plane waves:   13445
 k-point 19 :   0.0833-0.4167 0.2500  plane waves:   13436
 k-point 20 :   0.2500-0.4167 0.2500  plane waves:   13431
 k-point 21 :   0.4167-0.4167 0.2500  plane waves:   13421
 k-point 22 :  -0.4167-0.4167 0.2500  plane waves:   13427
 k-point 23 :  -0.2500-0.4167 0.2500  plane waves:   13450
 k-point 24 :  -0.0833-0.4167 0.2500  plane waves:   13435
 k-point 25 :   0.0833-0.2500 0.2500  plane waves:   13421
 k-point 26 :   0.2500-0.2500 0.2500  plane waves:   13402
 k-point 27 :   0.4167-0.2500 0.2500  plane waves:   13432
 k-point 28 :  -0.4167-0.2500 0.2500  plane waves:   13449
 k-point 29 :  -0.2500-0.2500 0.2500  plane waves:   13446
 k-point 30 :  -0.0833-0.2500 0.2500  plane waves:   13435
 k-point 31 :   0.0833-0.0833 0.2500  plane waves:   13390
 k-point 32 :   0.2500-0.0833 0.2500  plane waves:   13398
 k-point 33 :   0.4167-0.0833 0.2500  plane waves:   13418
 k-point 34 :  -0.4167-0.0833 0.2500  plane waves:   13417
 k-point 35 :  -0.2500-0.0833 0.2500  plane waves:   13411
 k-point 36 :  -0.0833-0.0833 0.2500  plane waves:   13414

 maximum and minimum number of plane-waves per node :      3403     3327

 maximum number of plane-waves:     13461
 maximum index in each direction: 
   IXMAX=   11   IYMAX=   11   IZMAX=   29
   IXMIN=  -11   IYMIN=  -11   IZMIN=  -30


 real space projection operators:
  total allocation   :       7363.29 KBytes
  max/ min on nodes  :       1848.52       1833.44


 parallel 3D FFT for wavefunctions:
    minimum data exchange during FFTs selected (reduces bandwidth)
 parallel 3D FFT for charge:
    minimum data exchange during FFTs selected (reduces bandwidth)


 total amount of memory used by VASP MPI-rank0   161979. kBytes
=======================================================================

   base      :      30000. kBytes
   nonlr-proj:       4204. kBytes
   fftplans  :       1691. kBytes
   grid      :       4644. kBytes
   one-center:        342. kBytes
   wavefun   :     121098. kBytes
 
     INWAV:  cpu time    0.0000: real time    0.0002
 Broyden mixing: mesh for mixing (old mesh)
   NGX = 23   NGY = 23   NGZ = 59
  (NGX  = 72   NGY  = 72   NGZ  =180)
  gives a total of  31211 points

 initial charge density was supplied:
 charge density of overlapping atoms calculated
 number of electron     258.0000000 magnetization       6.0000000
 keeping initial charge density in first step


--------------------------------------------------------------------------------------------------------


 Maximum index for non-local projection operator          670
 Maximum index for augmentation-charges          817 (set IRDMAX)


--------------------------------------------------------------------------------------------------------


 First call to EWALD:  gamma=   0.240
 Maximum number of real-space cells 4x 4x 2
 Maximum number of reciprocal cells 2x 2x 5

    FEWALD:  cpu time    0.0059: real time    0.0059


--------------------------------------- Iteration      1(   1)  ---------------------------------------


    POTLOK:  cpu time    0.0754: real time    0.0886
    SETDIJ:  cpu time    0.0192: real time    0.0193
    TRIAL :  cpu time   22.7181: real time   22.8076
    CORREC:  cpu time    0.0044: real time    0.0044
    --------------------------------------------
      LOOP:  cpu time   23.0285: real time   23.1327

 eigenvalue-minimisations  : 23040
 total energy-change (2. order) : 0.3483570E+04  (-0.1393811E+05)
 number of electron     258.0000000 magnetization       6.0000000
 augmentation part      258.0000000 magnetization       6.0000000

 Free energy of the ion-electron system (eV)
  ---------------------------------------------------
  alpha Z        PSCENC =       728.72929824
  Ewald energy   TEWEN  =    -12928.35809673
  -Hartree energ DENC   =     -7992.03059815
  -exchange      EXHF   =         0.00000000
  -V(xc)+E(xc)   XCENC  =       843.10268971
  PAW double counting   =     17015.18481625   -17491.61297812
  entropy T*S    EENTRO =        -0.00796725
  eigenvalues    EBANDS =      3139.69175730
  atomic energy  EATOM  =     20168.87094289
  ---------------------------------------------------
  free energy    TOTEN  =      3483.56986414 eV

  energy without entropy =     3483.57783139  energy(sigma->0) =     3483.57384776


--------------------------------------------------------------------------------------------------------




--------------------------------------- Iteration      1(   2)  ---------------------------------------


    TRIAL :  cpu time   24.2776: real time   24.3984
    CORREC:  cpu time    0.0050: real time    0.0050
    --------------------------------------------
      LOOP:  cpu time   24.2831: real time   24.4039

 eigenvalue-minimisations  : 25008
 total energy-change (2. order) :-0.3075806E+04  (-0.2830615E+04)
 number of electron     258.0000000 magnetization       6.0000000
 augmentation part      258.0000000 magnetization       6.0000000

 Free energy of the ion-electron system (eV)
  ---------------------------------------------------
  alpha Z        PSCENC =       728.72929824
  Ewald energy   TEWEN  =    -12928.35809673
  -Hartree energ DENC   =     -7992.03059815
  -exchange      EXHF   =         0.00000000
  -V(xc)+E(xc)   XCENC  =       843.10268971
  PAW double counting   =     17015.18481625   -17491.61297812
  entropy T*S    EENTRO =        -0.02222939
  eigenvalues    EBANDS =        63.89991001
  atomic energy  EATOM  =     20168.87094289
  ---------------------------------------------------
  free energy    TOTEN  =       407.76375471 eV

  energy without entropy =      407.78598410  energy(sigma->0) =      407.77486940


--------------------------------------------------------------------------------------------------------




--------------------------------------- Iteration      1(   3)  ---------------------------------------


    TRIAL :  cpu time   25.1484: real time   25.2074
    CORREC:  cpu time    0.0044: real time    0.0044
    --------------------------------------------
      LOOP:  cpu time   25.1537: real time   25.2127

 eigenvalue-minimisations  : 26352
 total energy-change (2. order) :-0.6295236E+03  (-0.5788887E+03)
 number of electron     258.0000000 magnetization       6.0000000
 augmentation part      258.0000000 magnetization       6.0000000

 Free energy of the ion-electron system (eV)
  ---------------------------------------------------
  alpha Z        PSCENC =       728.72929824
  Ewald energy   TEWEN  =    -12928.35809673
  -Hartree energ DENC   =     -7992.03059815
  -exchange      EXHF   =         0.00000000
  -V(xc)+E(xc)   XCENC  =       843.10268971
  PAW double counting   =     17015.18481625   -17491.61297812
  entropy T*S    EENTRO =        -0.03508556
  eigenvalues    EBANDS =      -565.61080286
  atomic energy  EATOM  =     20168.87094289
  ---------------------------------------------------
  free energy    TOTEN  =      -221.75981432 eV

  energy without entropy =     -221.72472877  energy(sigma->0) =     -221.74227155


--------------------------------------------------------------------------------------------------------




--------------------------------------- Iteration      1(   4)  ---------------------------------------


    TRIAL :  cpu time   24.4405: real time   24.6113
    CORREC:  cpu time    0.0046: real time    0.0046
    --------------------------------------------
      LOOP:  cpu time   24.4466: real time   24.6174

 eigenvalue-minimisations  : 25376
 total energy-change (2. order) :-0.4942327E+02  (-0.4834796E+02)
 number of electron     258.0000000 magnetization       6.0000000
 augmentation part      258.0000000 magnetization       6.0000000

 Free energy of the ion-electron system (eV)
  ---------------------------------------------------
  alpha Z        PSCENC =       728.72929824
  Ewald energy   TEWEN  =    -12928.35809673
  -Hartree energ DENC   =     -7992.03059815
  -exchange      EXHF   =         0.00000000
  -V(xc)+E(xc)   XCENC  =       843.10268971
  PAW double counting   =     17015.18481625   -17491.61297812
  entropy T*S    EENTRO =        -0.04352291
  eigenvalues    EBANDS =      -615.02563268
  atomic energy  EATOM  =     20168.87094289
  ---------------------------------------------------
  free energy    TOTEN  =      -271.18308150 eV

  energy without entropy =     -271.13955859  energy(sigma->0) =     -271.16132005


--------------------------------------------------------------------------------------------------------




--------------------------------------- Iteration      1(   5)  ---------------------------------------


    TRIAL :  cpu time   26.5770: real time   26.8628
    CORREC:  cpu time    0.0049: real time    0.0049
    CHARGE:  cpu time    0.5037: real time    0.5076
    --------------------------------------------
      LOOP:  cpu time   27.0896: real time   27.3794

 eigenvalue-minimisations  : 28448
 total energy-change (2. order) :-0.1720262E+01  (-0.1717159E+01)
 number of electron     258.0000015 magnetization       5.9999999
 augmentation part       68.1384475 magnetization       4.3133898

 Free energy of the ion-electron system (eV)
  ---------------------------------------------------
  alpha Z        PSCENC =       728.72929824
  Ewald energy   TEWEN  =    -12928.35809673
  -Hartree energ DENC   =     -7992.03059815
  -exchange      EXHF   =         0.00000000
  -V(xc)+E(xc)   XCENC  =       843.10268971
  PAW double counting   =     17015.18481625   -17491.61297812
  entropy T*S    EENTRO =        -0.04315402
  eigenvalues    EBANDS =      -616.74626354
  atomic energy  EATOM  =     20168.87094289
  ---------------------------------------------------
  free energy    TOTEN  =      -272.90334347 eV

  energy without entropy =     -272.86018945  energy(sigma->0) =     -272.88176646


--------------------------------------------------------------------------------------------------------




--------------------------------------- Iteration      1(   6)  ---------------------------------------


    POTLOK:  cpu time    0.0472: real time    0.0476
    SETDIJ:  cpu time    0.0127: real time    0.0127
    TRIAL :  cpu time   13.3915: real time   13.4086
    CORREC:  cpu time    4.6737: real time    4.6783
    CHARGE:  cpu time    0.5508: real time    0.5510
    --------------------------------------------
      LOOP:  cpu time   18.6769: real time   18.6998

 eigenvalue-minimisations  :     0
 total energy-change (2. order) : 0.4207064E+03  (-0.7805504E+03)
 number of electron     258.0000026 magnetization       6.0000000
 augmentation part       71.5682974 magnetization       4.4497615

 Free energy of the ion-electron system (eV)
  ---------------------------------------------------
  alpha Z        PSCENC =       728.72929824
  Ewald energy   TEWEN  =    -12928.35809673
  -Hartree energ DENC   =     -7849.12011349
  -exchange      EXHF   =         0.00000000
  -V(xc)+E(xc)   XCENC  =       878.54985869
  PAW double counting   =     23853.74969432   -24064.85721076
  entropy T*S    EENTRO =        -0.09332984
  eigenvalues    EBANDS =      -639.71818062
  atomic energy  EATOM  =     20168.87094289
  ---------------------------------------------------
  free energy    TOTEN  =       147.80303851 eV

  energy without entropy =      147.89636835  energy(sigma->0) =      147.84970343


--------------------------------------------------------------------------------------------------------




--------------------------------------- Iteration      1(   7)  ---------------------------------------


    POTLOK:  cpu time    0.0486: real time    0.0488
    SETDIJ:  cpu time    0.0126: real time    0.0126
    TRIAL :  cpu time   13.2714: real time   13.2848
    CORREC:  cpu time    4.7036: real time    4.7079
    CHARGE:  cpu time    0.5269: real time    0.5272
    --------------------------------------------
      LOOP:  cpu time   18.5637: real time   18.5819

 eigenvalue-minimisations  :     0
 total energy-change (2. order) : 0.8748352E+03  (-0.1414654E+05)
 number of electron     258.0000004 magnetization       6.0000003
 augmentation part       81.2714433 magnetization       1.5529584

 Free energy of the ion-electron system (eV)
  ---------------------------------------------------
  alpha Z        PSCENC =       728.72929824
  Ewald energy   TEWEN  =    -12928.35809673
  -Hartree energ DENC   =     -8194.07691190
  -exchange      EXHF   =         0.00000000
  -V(xc)+E(xc)   XCENC  =       873.85717717
  PAW double counting   =     24928.22591749   -25349.53818994
  entropy T*S    EENTRO =        -0.02116861
  eigenvalues    EBANDS =       795.02145407
  atomic energy  EATOM  =     20168.87094289
  ---------------------------------------------------
  free energy    TOTEN  =      1022.63826145 eV

  energy without entropy =     1022.65943006  energy(sigma->0) =     1022.64884576


--------------------------------------------------------------------------------------------------------




--------------------------------------- Iteration      1(   8)  ---------------------------------------


    POTLOK:  cpu time    0.0477: real time    0.0477
    SETDIJ:  cpu time    0.0126: real time    0.0126
    TRIAL :  cpu time   13.2306: real time   13.2714
    CORREC:  cpu time    4.8115: real time    4.8159
    CHARGE:  cpu time    0.5201: real time    0.5204
    --------------------------------------------
      LOOP:  cpu time   18.6231: real time   18.6686

 eigenvalue-minimisations  :     0
 total energy-change (2. order) : 0.8674062E+04  (-0.1156150E+05)
 number of electron     258.0000024 magnetization       6.0000000
 augmentation part       75.6724614 magnetization       4.2563079

 Free energy of the ion-electron system (eV)
  ---------------------------------------------------
  alpha Z        PSCENC =       728.72929824
  Ewald energy   TEWEN  =    -12928.35809673
  -Hartree energ DENC   =    -19434.74972343
  -exchange      EXHF   =         0.00000000
  -V(xc)+E(xc)   XCENC  =       928.62073575
  PAW double counting   =     33550.55980574   -34600.26774410
  entropy T*S    EENTRO =        -0.02446484
  eigenvalues    EBANDS =     21283.31620355
  atomic energy  EATOM  =     20168.87094289
  ---------------------------------------------------
  free energy    TOTEN  =      9696.70025330 eV

  energy without entropy =     9696.72471814  energy(sigma->0) =     9696.71248572


--------------------------------------------------------------------------------------------------------




--------------------------------------- Iteration      1(   9)  ---------------------------------------


    POTLOK:  cpu time    0.0472: real time    0.0473
    SETDIJ:  cpu time    0.0128: real time    0.0128
    TRIAL :  cpu time   13.3337: real time   13.3572
    CORREC:  cpu time    4.6825: real time    4.6913
    CHARGE:  cpu time    0.5210: real time    0.5213
    --------------------------------------------
      LOOP:  cpu time   18.5977: real time   18.6304

 eigenvalue-minimisations  :     0
 total energy-change (2. order) :-0.4696089E+04  (-0.2913807E+04)
 number of electron     258.0000047 magnetization       5.9999996
 augmentation part       82.3311332 magnetization       1.7445537

 Free energy of the ion-electron system (eV)
  ---------------------------------------------------
  alpha Z        PSCENC =       728.72929824
  Ewald energy   TEWEN  =    -12928.35809673
  -Hartree energ DENC   =    -11103.12823876
  -exchange      EXHF   =         0.00000000
  -V(xc)+E(xc)   XCENC  =       892.08533209
  PAW double counting   =     34058.73958190   -34914.73755331
  entropy T*S    EENTRO =        -0.01189041
  eigenvalues    EBANDS =      8098.43408637
  atomic energy  EATOM  =     20168.87094289
  ---------------------------------------------------
  free energy    TOTEN  =      5000.61088785 eV

  energy without entropy =     5000.62277826  energy(sigma->0) =     5000.61683305


--------------------------------------------------------------------------------------------------------




--------------------------------------- Iteration      1(  10)  ---------------------------------------


    POTLOK:  cpu time    0.0474: real time    0.0474
    SETDIJ:  cpu time    0.0129: real time    0.0128
    TRIAL :  cpu time   13.2785: real time   13.2931
    CORREC:  cpu time    4.6871: real time    4.6916
    CHARGE:  cpu time    0.5254: real time    0.5257
    --------------------------------------------
      LOOP:  cpu time   18.5517: real time   18.5718

 eigenvalue-minimisations  :     0
 total energy-change (2. order) : 0.4488477E+04  (-0.6322708E+04)
 number of electron     257.9999986 magnetization       6.0000002
 augmentation part       72.9000247 magnetization       1.1359958

 Free energy of the ion-electron system (eV)
  ---------------------------------------------------
  alpha Z        PSCENC =       728.72929824
  Ewald energy   TEWEN  =    -12928.35809673
  -Hartree energ DENC   =    -17181.81383937
  -exchange      EXHF   =         0.00000000
  -V(xc)+E(xc)   XCENC  =       911.51839349
  PAW double counting   =     38208.39699371   -39357.16931034
  entropy T*S    EENTRO =        -0.01383611
  eigenvalues    EBANDS =     18938.92492268
  atomic energy  EATOM  =     20168.87094289
  ---------------------------------------------------
  free energy    TOTEN  =      9489.08741415 eV

  energy without entropy =     9489.10125027  energy(sigma->0) =     9489.09433221


--------------------------------------------------------------------------------------------------------




--------------------------------------- Iteration      1(  11)  ---------------------------------------


    POTLOK:  cpu time    0.0467: real time    0.0470
    SETDIJ:  cpu time    0.0128: real time    0.0128
    TRIAL :  cpu time   13.0102: real time   13.1534
    CORREC:  cpu time    4.6153: real time    4.6546
    CHARGE:  cpu time    0.5112: real time    0.5148
    --------------------------------------------
      LOOP:  cpu time   18.1969: real time   18.3832

 eigenvalue-minimisations  :     0
 total energy-change (2. order) : 0.9552390E+03  (-0.1434768E+05)
 number of electron     257.9999989 magnetization       6.0000002
 augmentation part       64.5772105 magnetization       1.0235123

 Free energy of the ion-electron system (eV)
  ---------------------------------------------------
  alpha Z        PSCENC =       728.72929824
  Ewald energy   TEWEN  =    -12928.35809673
  -Hartree energ DENC   =    -16805.57885923
  -exchange      EXHF   =         0.00000000
  -V(xc)+E(xc)   XCENC  =       850.50145217
  PAW double counting   =     43572.42585345   -44549.38598947
  entropy T*S    EENTRO =        -0.00520823
  eigenvalues    EBANDS =     19407.13564227
  atomic energy  EATOM  =     20168.87094289
  ---------------------------------------------------
  free energy    TOTEN  =     10444.32640747 eV

  energy without entropy =    10444.33161570  energy(sigma->0) =    10444.32901159


--------------------------------------------------------------------------------------------------------




--------------------------------------- Iteration      1(  12)  ---------------------------------------


    POTLOK:  cpu time    0.0466: real time    0.0469
    SETDIJ:  cpu time    0.0124: real time    0.0124
    TRIAL :  cpu time   13.1509: real time   13.1919
    CORREC:  cpu time    4.7894: real time    4.7935
    CHARGE:  cpu time    0.5141: real time    0.5145
    --------------------------------------------
      LOOP:  cpu time   18.5139: real time   18.5599

 eigenvalue-minimisations  :     0
 total energy-change (2. order) :-0.8523293E+03  (-0.1766996E+05)
 number of electron     257.9999995 magnetization       6.0000000
 augmentation part       64.0985116 magnetization       1.2591349

 Free energy of the ion-electron system (eV)
  ---------------------------------------------------
  alpha Z        PSCENC =       728.72929824
  Ewald energy   TEWEN  =    -12928.35809673
  -Hartree energ DENC   =    -11764.97468089
  -exchange      EXHF   =         0.00000000
  -V(xc)+E(xc)   XCENC  =       760.73558649
  PAW double counting   =     65757.96936487   -66488.88345471
  entropy T*S    EENTRO =        -0.00253871
  eigenvalues    EBANDS =     13357.91331369
  atomic energy  EATOM  =     20168.87094289
  ---------------------------------------------------
  free energy    TOTEN  =      9591.99706561 eV

  energy without entropy =     9591.99960433  energy(sigma->0) =     9591.99833497


--------------------------------------------------------------------------------------------------------




--------------------------------------- Iteration      1(  13)  ---------------------------------------


    POTLOK:  cpu time    0.0461: real time    0.0461
    SETDIJ:  cpu time    0.0127: real time    0.0127
    TRIAL :  cpu time   12.9642: real time   13.0919
    CORREC:  cpu time    4.7570: real time    4.8122
    CHARGE:  cpu time    0.4999: real time    0.5049
    --------------------------------------------
      LOOP:  cpu time   18.2804: real time   18.4683

 eigenvalue-minimisations  :     0
 total energy-change (2. order) :-0.1764311E+04  (-0.1213638E+05)
 number of electron     257.9999996 magnetization       6.0000000
 augmentation part       64.2575852 magnetization       1.2697431

 Free energy of the ion-electron system (eV)
  ---------------------------------------------------
  alpha Z        PSCENC =       728.72929824
  Ewald energy   TEWEN  =    -12928.35809673
  -Hartree energ DENC   =     -8229.24905486
  -exchange      EXHF   =         0.00000000
  -V(xc)+E(xc)   XCENC  =       702.62597103
  PAW double counting   =     88822.79293015   -89529.80977272
  entropy T*S    EENTRO =        -0.00023331
  eigenvalues    EBANDS =      8092.08599069
  atomic energy  EATOM  =     20168.87094289
  ---------------------------------------------------
  free energy    TOTEN  =      7827.68566997 eV

  energy without entropy =     7827.68590328  energy(sigma->0) =     7827.68578663


--------------------------------------------------------------------------------------------------------




--------------------------------------- Iteration      1(  14)  ---------------------------------------


    POTLOK:  cpu time    0.0462: real time    0.0466
    SETDIJ:  cpu time    0.0123: real time    0.0124
    TRIAL :  cpu time   12.9518: real time   13.1348
    CORREC:  cpu time    4.5835: real time    4.6372
    CHARGE:  cpu time    0.5046: real time    0.5094
    --------------------------------------------
      LOOP:  cpu time   18.0989: real time   18.3410

 eigenvalue-minimisations  :     0
 total energy-change (2. order) :-0.1403641E+03  (-0.1314277E+05)
 number of electron     257.9999997 magnetization       6.0000000
 augmentation part       64.0852333 magnetization       1.4068725

 Free energy of the ion-electron system (eV)
  ---------------------------------------------------
  alpha Z        PSCENC =       728.72929824
  Ewald energy   TEWEN  =    -12928.35809673
  -Hartree energ DENC   =     -7663.86717605
  -exchange      EXHF   =         0.00000000
  -V(xc)+E(xc)   XCENC  =       691.24024630
  PAW double counting   =    100249.22004952  -101009.46538497
  entropy T*S    EENTRO =        -0.00068303
  eigenvalues    EBANDS =      7450.95192580
  atomic energy  EATOM  =     20168.87094289
  ---------------------------------------------------
  free energy    TOTEN  =      7687.32157169 eV

  energy without entropy =     7687.32225472  energy(sigma->0) =     7687.32191321


--------------------------------------------------------------------------------------------------------




--------------------------------------- Iteration      1(  15)  ---------------------------------------


    POTLOK:  cpu time    0.0494: real time    0.0498
    SETDIJ:  cpu time    0.0122: real time    0.0123
    TRIAL :  cpu time   12.8856: real time   13.0896
    CORREC:  cpu time    4.5922: real time    4.6265
    CHARGE:  cpu time    0.5080: real time    0.5120
    --------------------------------------------
      LOOP:  cpu time   18.0480: real time   18.2915

 eigenvalue-minimisations  :     0
 total energy-change (2. order) : 0.1196462E+04  (-0.1523068E+05)
 number of electron     257.9999996 magnetization       6.0000000
 augmentation part       62.8681893 magnetization       1.3878210

 Free energy of the ion-electron system (eV)
  ---------------------------------------------------
  alpha Z        PSCENC =       728.72929824
  Ewald energy   TEWEN  =    -12928.35809673
  -Hartree energ DENC   =     -8488.37228207
  -exchange      EXHF   =         0.00000000
  -V(xc)+E(xc)   XCENC  =       681.70434404
  PAW double counting   =    117350.71209093  -118168.48314944
  entropy T*S    EENTRO =        -0.00134038
  eigenvalues    EBANDS =      9538.98125408
  atomic energy  EATOM  =     20168.87094289
  ---------------------------------------------------
  free energy    TOTEN  =      8883.78371891 eV

  energy without entropy =     8883.78505929  energy(sigma->0) =     8883.78438910


--------------------------------------------------------------------------------------------------------




--------------------------------------- Iteration      1(  16)  ---------------------------------------


    POTLOK:  cpu time    0.0466: real time    0.0471
    SETDIJ:  cpu time    0.0129: real time    0.0129
    TRIAL :  cpu time   13.0683: real time   13.2117
    CORREC:  cpu time    4.6263: real time    4.6635
    CHARGE:  cpu time    0.5128: real time    0.5168
    --------------------------------------------
      LOOP:  cpu time   18.2675: real time   18.4526

 eigenvalue-minimisations  :     0
 total energy-change (2. order) : 0.2022145E+04  (-0.1681962E+05)
 number of electron     257.9999996 magnetization       6.0000000
 augmentation part       59.6825813 magnetization       1.3346386

 Free energy of the ion-electron system (eV)
  ---------------------------------------------------
  alpha Z        PSCENC =       728.72929824
  Ewald energy   TEWEN  =    -12928.35809673
  -Hartree energ DENC   =    -10038.75199751
  -exchange      EXHF   =         0.00000000
  -V(xc)+E(xc)   XCENC  =       673.51000909
  PAW double counting   =    140716.25143558  -141596.86001958
  entropy T*S    EENTRO =        -0.00188985
  eigenvalues    EBANDS =     13182.53841918
  atomic energy  EATOM  =     20168.87094289
  ---------------------------------------------------
  free energy    TOTEN  =     10905.92865078 eV

  energy without entropy =    10905.93054064  energy(sigma->0) =    10905.92959571


--------------------------------------------------------------------------------------------------------




--------------------------------------- Iteration      1(  17)  ---------------------------------------


    POTLOK:  cpu time    0.0466: real time    0.0469
    SETDIJ:  cpu time    0.0127: real time    0.0128
    TRIAL :  cpu time   13.0242: real time   13.1613
    CORREC:  cpu time    4.7629: real time    4.8157
    CHARGE:  cpu time    0.4970: real time    0.5007
    --------------------------------------------
      LOOP:  cpu time   18.3439: real time   18.5379

 eigenvalue-minimisations  :     0
 total energy-change (2. order) : 0.2839091E+04  (-0.1857897E+05)
 number of electron     257.9999994 magnetization       6.0000000
 augmentation part       56.9250784 magnetization       1.4120882

 Free energy of the ion-electron system (eV)
  ---------------------------------------------------
  alpha Z        PSCENC =       728.72929824
  Ewald energy   TEWEN  =    -12928.35809673
  -Hartree energ DENC   =    -12156.96915688
  -exchange      EXHF   =         0.00000000
  -V(xc)+E(xc)   XCENC  =       666.68553817
  PAW double counting   =    164723.98009447  -165620.11641418
  entropy T*S    EENTRO =        -0.00148937
  eigenvalues    EBANDS =     18162.19957751
  atomic energy  EATOM  =     20168.87094289
  ---------------------------------------------------
  free energy    TOTEN  =     13745.01989363 eV

  energy without entropy =    13745.02138300  energy(sigma->0) =    13745.02063832


--------------------------------------------------------------------------------------------------------




--------------------------------------- Iteration      1(  18)  ---------------------------------------


    POTLOK:  cpu time    0.0458: real time    0.0460
    SETDIJ:  cpu time    0.0127: real time    0.0127
    TRIAL :  cpu time   12.9140: real time   13.0400
    CORREC:  cpu time    4.5996: real time    4.6300
    CHARGE:  cpu time    0.5091: real time    0.5127
    --------------------------------------------
      LOOP:  cpu time   18.0818: real time   18.2421

 eigenvalue-minimisations  :     0
 total energy-change (2. order) : 0.4380816E+04  (-0.1899710E+05)
 number of electron     257.9999991 magnetization       5.9999999
 augmentation part       54.8512890 magnetization       1.6664472

 Free energy of the ion-electron system (eV)
  ---------------------------------------------------
  alpha Z        PSCENC =       728.72929824
  Ewald energy   TEWEN  =    -12928.35809673
  -Hartree energ DENC   =    -15930.63872573
  -exchange      EXHF   =         0.00000000
  -V(xc)+E(xc)   XCENC  =       668.73357402
  PAW double counting   =    188331.21922695  -189253.07001402
  entropy T*S    EENTRO =        -0.00053295
  eigenvalues    EBANDS =     26340.35116002
  atomic energy  EATOM  =     20168.87094289
  ---------------------------------------------------
  free energy    TOTEN  =     18125.83587627 eV

  energy without entropy =    18125.83640922  energy(sigma->0) =    18125.83614274


--------------------------------------------------------------------------------------------------------




--------------------------------------- Iteration      1(  19)  ---------------------------------------


    POTLOK:  cpu time    0.0461: real time    0.0463
    SETDIJ:  cpu time    0.0123: real time    0.0124
    TRIAL :  cpu time   13.0102: real time   13.1476
    CORREC:  cpu time    4.6091: real time    4.6505
    CHARGE:  cpu time    0.5094: real time    0.5135
    --------------------------------------------
      LOOP:  cpu time   18.1877: real time   18.3710

 eigenvalue-minimisations  :     0
 total energy-change (2. order) : 0.5721076E+04  (-0.1798064E+05)
 number of electron     257.9999987 magnetization       5.9999999
 augmentation part       52.3919499 magnetization       1.8575994

 Free energy of the ion-electron system (eV)
  ---------------------------------------------------
  alpha Z        PSCENC =       728.72929824
  Ewald energy   TEWEN  =    -12928.35809673
  -Hartree energ DENC   =    -21474.60592907
  -exchange      EXHF   =         0.00000000
  -V(xc)+E(xc)   XCENC  =       681.26260530
  PAW double counting   =    204085.66420922  -205023.74351788
  entropy T*S    EENTRO =        -0.00073985
  eigenvalues    EBANDS =     37609.09297852
  atomic energy  EATOM  =     20168.87094289
  ---------------------------------------------------
  free energy    TOTEN  =     23846.91195754 eV

  energy without entropy =    23846.91269739  energy(sigma->0) =    23846.91232747


--------------------------------------------------------------------------------------------------------




--------------------------------------- Iteration      1(  20)  ---------------------------------------


    POTLOK:  cpu time    0.0464: real time    0.0468
    SETDIJ:  cpu time    0.0125: real time    0.0125
    TRIAL :  cpu time   12.9446: real time   13.0787
    CORREC:  cpu time    4.6311: real time    4.6659
    CHARGE:  cpu time    0.5133: real time    0.5173
    --------------------------------------------
      LOOP:  cpu time   18.1484: real time   18.3218

 eigenvalue-minimisations  :     0
 total energy-change (2. order) : 0.6568215E+04  (-0.1601871E+05)
 number of electron     257.9999984 magnetization       5.9999999
 augmentation part       50.2132769 magnetization       1.7812483

 Free energy of the ion-electron system (eV)
  ---------------------------------------------------
  alpha Z        PSCENC =       728.72929824
  Ewald energy   TEWEN  =    -12928.35809673
  -Hartree energ DENC   =    -28210.52204223
  -exchange      EXHF   =         0.00000000
  -V(xc)+E(xc)   XCENC  =       701.01980792
  PAW double counting   =    210151.06507610  -211074.26630271
  entropy T*S    EENTRO =        -0.00012665
  eigenvalues    EBANDS =     50878.58869353
  atomic energy  EATOM  =     20168.87094289
  ---------------------------------------------------
  free energy    TOTEN  =     30415.12663716 eV

  energy without entropy =    30415.12676382  energy(sigma->0) =    30415.12670049


--------------------------------------------------------------------------------------------------------




--------------------------------------- Iteration      1(  21)  ---------------------------------------


    POTLOK:  cpu time    0.0459: real time    0.0462
    SETDIJ:  cpu time    0.0127: real time    0.0128
    TRIAL :  cpu time   13.0692: real time   13.2106
    CORREC:  cpu time    4.7782: real time    4.7972
    CHARGE:  cpu time    0.5105: real time    0.5112
    --------------------------------------------
      LOOP:  cpu time   18.4169: real time   18.5786

 eigenvalue-minimisations  :     0
 total energy-change (2. order) : 0.4865728E+04  (-0.1688889E+05)
 number of electron     257.9999984 magnetization       5.9999999
 augmentation part       48.5038111 magnetization       1.5308800

 Free energy of the ion-electron system (eV)
  ---------------------------------------------------
  alpha Z        PSCENC =       728.72929824
  Ewald energy   TEWEN  =    -12928.35809673
  -Hartree energ DENC   =    -33290.86062004
  -exchange      EXHF   =         0.00000000
  -V(xc)+E(xc)   XCENC  =       716.76599355
  PAW double counting   =    211473.02712103  -212371.44171379
  entropy T*S    EENTRO =        -0.00098748
  eigenvalues    EBANDS =     60784.12224988
  atomic energy  EATOM  =     20168.87094289
  ---------------------------------------------------
  free energy    TOTEN  =     35280.85504838 eV

  energy without entropy =    35280.85603585  energy(sigma->0) =    35280.85554212


--------------------------------------------------------------------------------------------------------




--------------------------------------- Iteration      1(  22)  ---------------------------------------


    POTLOK:  cpu time    0.0465: real time    0.0466
    SETDIJ:  cpu time    0.0125: real time    0.0126
    TRIAL :  cpu time   12.8316: real time   12.9547
    CORREC:  cpu time    4.6927: real time    4.7088
    CHARGE:  cpu time    0.5117: real time    0.5156
    --------------------------------------------
      LOOP:  cpu time   18.0956: real time   18.2392

 eigenvalue-minimisations  :     0
 total energy-change (2. order) : 0.1402891E+04  (-0.2167738E+05)
 number of electron     257.9999981 magnetization       5.9999999
 augmentation part       47.9414908 magnetization       1.3893340

 Free energy of the ion-electron system (eV)
  ---------------------------------------------------
  alpha Z        PSCENC =       728.72929824
  Ewald energy   TEWEN  =    -12928.35809673
  -Hartree energ DENC   =    -34711.39174858
  -exchange      EXHF   =         0.00000000
  -V(xc)+E(xc)   XCENC  =       719.79208531
  PAW double counting   =    206862.47225477  -207725.27674907
  entropy T*S    EENTRO =        -0.00205829
  eigenvalues    EBANDS =     63568.90878568
  atomic energy  EATOM  =     20168.87094289
  ---------------------------------------------------
  free energy    TOTEN  =     36683.74578503 eV

  energy without entropy =    36683.74784332  energy(sigma->0) =    36683.74681418


--------------------------------------------------------------------------------------------------------




--------------------------------------- Iteration      1(  23)  ---------------------------------------


    POTLOK:  cpu time    0.0468: real time    0.0471
    SETDIJ:  cpu time    0.0127: real time    0.0128
    TRIAL :  cpu time   12.9382: real time   13.0632
    CORREC:  cpu time    4.6537: real time    4.6603
    CHARGE:  cpu time    0.5116: real time    0.5122
    --------------------------------------------
      LOOP:  cpu time   18.1635: real time   18.2961

 eigenvalue-minimisations  :     0
 total energy-change (2. order) : 0.3988518E+04  (-0.1560144E+05)
 number of electron     257.9999979 magnetization       5.9999999
 augmentation part       47.9003284 magnetization       1.3664986

 Free energy of the ion-electron system (eV)
  ---------------------------------------------------
  alpha Z        PSCENC =       728.72929824
  Ewald energy   TEWEN  =    -12928.35809673
  -Hartree energ DENC   =    -39041.89635471
  -exchange      EXHF   =         0.00000000
  -V(xc)+E(xc)   XCENC  =       734.19546838
  PAW double counting   =    209085.61254478  -209963.71410536
  entropy T*S    EENTRO =        -0.00079206
  eigenvalues    EBANDS =     71888.82624826
  atomic energy  EATOM  =     20168.87094289
  ---------------------------------------------------
  free energy    TOTEN  =     40672.26388746 eV

  energy without entropy =    40672.26467952  energy(sigma->0) =    40672.26428349


--------------------------------------------------------------------------------------------------------




--------------------------------------- Iteration      1(  24)  ---------------------------------------


    POTLOK:  cpu time    0.0471: real time    0.0471
    SETDIJ:  cpu time    0.0123: real time    0.0124
    TRIAL :  cpu time   13.0481: real time   13.1599
    CORREC:  cpu time    4.6343: real time    4.6454
    CHARGE:  cpu time    0.5104: real time    0.5111
    --------------------------------------------
      LOOP:  cpu time   18.2529: real time   18.3771

 eigenvalue-minimisations  :     0
 total energy-change (2. order) : 0.4168570E+04  (-0.1165528E+05)
 number of electron     257.9999982 magnetization       5.9999999
 augmentation part       49.2930478 magnetization       1.4455406

 Free energy of the ion-electron system (eV)
  ---------------------------------------------------
  alpha Z        PSCENC =       728.72929824
  Ewald energy   TEWEN  =    -12928.35809673
  -Hartree energ DENC   =    -43441.46752607
  -exchange      EXHF   =         0.00000000
  -V(xc)+E(xc)   XCENC  =       747.71973087
  PAW double counting   =    214998.88420117  -215914.58683658
  entropy T*S    EENTRO =        -0.00229536
  eigenvalues    EBANDS =     80481.04346240
  atomic energy  EATOM  =     20168.87094289
  ---------------------------------------------------
  free energy    TOTEN  =     44840.83438412 eV

  energy without entropy =    44840.83667947  energy(sigma->0) =    44840.83553180


--------------------------------------------------------------------------------------------------------




--------------------------------------- Iteration      1(  25)  ---------------------------------------


    POTLOK:  cpu time    0.0467: real time    0.0468
    SETDIJ:  cpu time    0.0124: real time    0.0124
    TRIAL :  cpu time   13.0681: real time   13.0906
    CORREC:  cpu time    4.6276: real time    4.6605
    CHARGE:  cpu time    0.6306: real time    0.6348
    --------------------------------------------
      LOOP:  cpu time   18.3860: real time   18.4464

 eigenvalue-minimisations  :     0
 total energy-change (2. order) :-0.6092667E+04  (-0.3067691E+05)
 number of electron     257.9999995 magnetization       6.0000000
 augmentation part       60.7539615 magnetization       1.6135915

[...]
   20        1.574   3.405   0.000   4.979
   21        1.583   3.351   0.000   4.933
   22        1.577   3.406   0.000   4.984
   23        1.577   3.405   0.000   4.982
   24        1.576   3.407   0.000   4.983
   25        1.577   3.344   0.000   4.920
   26        1.585   3.402   0.000   4.987
   27        1.564   3.425   0.000   4.989
   28        1.553   3.482   0.000   5.035
   29        1.563   3.440   0.000   5.004
   30        1.562   3.426   0.000   4.989
   31        1.566   3.416   0.000   4.982
   32        1.577   3.429   0.000   5.006
   33        1.556   3.466   0.000   5.022
   34        1.561   3.415   0.000   4.976
   35        1.580   3.413   0.000   4.992
   36        1.571   3.418   0.000   4.988
   37        1.569   3.394   0.000   4.963
   38        1.573   3.410   0.000   4.983
   39        1.560   3.463   0.000   5.023
   40        1.568   3.420   0.000   4.988
   41        1.569   3.444   0.000   5.014
   42        1.565   3.454   0.000   5.020
--------------------------------------------------
tot         43.616  91.781  87.638 223.035
 


 magnetization (x)
 
# of ion       s       p       d       tot
------------------------------------------
    1        0.001   0.001   0.000   0.002
    2        0.000  -0.000   0.000  -0.000
    3        0.001   0.001   0.000   0.002
    4        0.001   0.000   0.000   0.001
    5        0.000  -0.001   0.000  -0.001
    6        0.001   0.001   0.000   0.002
    7        0.005   0.006   0.028   0.038
    8        0.010   0.015   1.210   1.235
    9        0.011   0.017   1.222   1.250
   10        0.013   0.017   1.347   1.377
   11        0.011   0.011   1.380   1.402
   12        0.003   0.003  -0.019  -0.014
   13        0.002   0.002  -0.021  -0.016
   14        0.001   0.001   0.001   0.004
   15        0.004   0.006  -0.005   0.005
   16        0.012   0.016   1.341   1.369
   17        0.010   0.012   1.256   1.279
   18        0.002   0.003  -0.007  -0.002
   19        0.000  -0.070   0.000  -0.070
   20        0.001  -0.069   0.000  -0.068
   21        0.001  -0.151   0.000  -0.150
   22        0.001  -0.071   0.000  -0.071
   23        0.001  -0.081   0.000  -0.080
   24        0.000  -0.086   0.000  -0.085
   25        0.000  -0.109   0.000  -0.109
   26        0.002  -0.110   0.000  -0.108
   27       -0.000  -0.088   0.000  -0.088
   28       -0.000  -0.005   0.000  -0.006
   29        0.000  -0.044   0.000  -0.044
   30       -0.000  -0.071   0.000  -0.071
   31       -0.000  -0.072   0.000  -0.072
   32        0.001  -0.027   0.000  -0.026
   33       -0.000  -0.007   0.000  -0.007
   34       -0.000  -0.082   0.000  -0.082
   35        0.001  -0.071   0.000  -0.070
   36        0.000  -0.064   0.000  -0.064
   37       -0.000  -0.068   0.000  -0.069
   38        0.000  -0.101   0.000  -0.101
   39        0.000  -0.029   0.000  -0.028
   40        0.000  -0.103   0.000  -0.102
   41        0.001  -0.052   0.000  -0.051
   42        0.000  -0.068   0.000  -0.068
--------------------------------------------------
tot          0.098  -1.587   7.732   6.244
 
    FORLOC:  cpu time    0.0085: real time    0.0085
    FORNL :  cpu time    4.4726: real time    4.5094
    STRESS:  cpu time   13.3291: real time   13.3656
    FORCOR:  cpu time    0.0494: real time    0.0494
    OFIELD:  cpu time    0.0003: real time    0.0003

  DFT-D2 method for vdW energy calculation
  -------------------------------------------------------------------

  Parameters of vdW forcefield:
         C6(Jnm^6/mol)     R0(A)
   -----------------------------
   Li       1.610          0.825
   Co      10.800          1.562
   O        0.700          1.342

  IVDW =   1
  VDW_RADIUS =    50.000 A
  VDW_S6 =     0.750
  VDW_SR =     1.000
  VDW_D =    20.000
  LVDW_EWALD = F

  Number of pair interactions contributing to vdW energy: 1174650
  Edisp (eV):   -9.09130
    FORVDW:  cpu time    0.1750: real time    0.1763

  FORCE on cell =-STRESS in cart. coord.  units (eV):
  Direction    XX          YY          ZZ          XY          YZ          ZX
  --------------------------------------------------------------------------------------
  Alpha Z   728.72930   728.72930   728.72930
  Ewald    -734.67874  -526.23846-11667.51322  -124.42539  -118.20385  -109.72980
  Hartree  5467.25256  5554.80735 -3065.27710   -36.37911   -46.10217   -38.86023
  E(xc)   -1285.72839 -1285.39818 -1286.45224    -0.24993    -0.09298    -0.11053
  Local   -9682.61900 -9955.85599  9768.75355   142.48403   156.08724   137.67297
  n-local  -596.55544  -587.53389  -597.47985    -5.47853    -4.66514    -4.59429
  augment  2029.90381  2016.34884  1995.73480     9.74323     3.85214     5.00189
  Kinetic  4079.83222  4073.20314  4124.79219    11.81249     2.85039     3.59847
  Fock        0.00000     0.00000     0.00000     0.00000     0.00000     0.00000
  vdW        -6.00538    -6.30424   -11.78531    -0.22606    -0.01209    -0.38238
  -------------------------------------------------------------------------------------
  Total       0.13095    11.75786   -10.49789    -2.71928    -6.28645    -7.40391
  in kB       0.52152    46.82635   -41.80847   -10.82968   -25.03614   -29.48650
  external pressure =        1.85 kB  Pullay stress =        0.00 kB


 VOLUME and BASIS-vectors are now :
 -----------------------------------------------------------------------------
  energy-cutoff  :      600.00
  volume of cell :      402.30
      direct lattice vectors                 reciprocal lattice vectors
     5.603349209  0.000000000  0.000000000     0.178464694  0.103939234 -0.010469758
    -2.793763638  4.796919823  0.000000000     0.000000000  0.208467107  0.000712348
     0.907843471 -0.051143799 14.967123032     0.000000000  0.000000000  0.066813107

  length of vectors
     5.603349209  5.551176006 14.994717980     0.206791265  0.208468324  0.066813107


 FORCES acting on ions:
    Electron-Ion                     Ewald-Force                    Non-Local-Force
 -----------------------------------------------------------------------------------------------
   0.296E+01 0.397E+01 -.258E+02   -.280E+01 -.349E+01 0.253E+02   -.252E+00 -.580E+00 0.948E+00
   0.122E+00 -.317E+01 0.243E+02   -.134E-02 0.285E+01 -.235E+02   -.114E+00 0.443E+00 -.224E+00
   0.180E+01 -.307E+01 0.278E+02   -.154E+01 0.287E+01 -.268E+02   -.757E+00 0.817E+00 -.180E+01
   0.548E+01 -.243E+01 0.267E+01   -.509E+01 0.207E+01 -.304E+01   -.713E+00 0.375E+00 -.305E+00
   0.143E+01 -.652E+00 -.658E+01   -.145E+01 0.322E+00 0.602E+01   -.138E+00 0.531E+00 0.280E+00
   -.129E+01 -.333E+01 -.801E+01   0.136E+01 0.310E+01 0.753E+01   -.215E-01 0.635E+00 0.389E+00
   0.417E+02 0.206E+02 0.153E+03   -.427E+02 -.215E+02 -.154E+03   -.651E+00 -.452E+00 0.148E+01
   -.155E+02 -.381E+01 0.773E+02   0.157E+02 0.454E+01 -.763E+02   0.924E-01 0.758E-01 -.230E+00
   -.303E+02 0.377E+02 0.126E+03   0.322E+02 -.404E+02 -.126E+03   0.340E+00 -.185E+00 0.226E+00
   0.105E+02 -.305E+02 0.105E+03   -.111E+02 0.322E+02 -.105E+03   -.227E+00 -.305E+00 0.321E+00
   0.420E+02 0.846E+01 0.133E+03   -.443E+02 -.811E+01 -.133E+03   -.452E+00 -.305E+00 0.641E+00
   0.622E+01 0.177E+02 0.100E+03   -.682E+01 -.189E+02 -.100E+03   0.352E+00 0.295E+00 0.715E+00
   -.208E+02 -.310E+02 0.952E+02   0.225E+02 0.313E+02 -.964E+02   -.254E+00 0.335E+00 -.747E+00
   -.146E+02 -.945E+01 0.108E+03   0.149E+02 0.102E+02 -.107E+03   -.923E-02 0.770E-01 0.224E+00
   -.273E+02 -.613E+01 -.184E+03   0.269E+02 0.562E+01 0.185E+03   0.293E-01 -.801E+00 -.447E+00
   0.761E+01 0.150E+02 -.264E+03   -.769E+01 -.153E+02 0.264E+03   0.226E+00 0.166E+00 -.444E+00
   0.154E+02 -.306E+02 -.195E+03   -.156E+02 0.321E+02 0.196E+03   -.317E+00 0.698E-01 -.598E+00
   0.861E+01 0.210E+02 -.275E+03   -.821E+01 -.215E+02 0.276E+03   -.615E+00 0.421E+00 -.169E+01
   0.140E+02 -.494E+02 -.276E+03   -.134E+02 0.516E+02 0.294E+03   -.140E+01 -.985E+00 -.197E+02
   -.439E+02 0.363E+02 -.280E+03   0.473E+02 -.393E+02 0.301E+03   -.294E+01 0.212E+01 -.213E+02
   -.736E+01 0.155E+02 -.291E+03   0.673E+01 -.172E+02 0.315E+03   0.409E+00 0.989E+00 -.239E+02
   0.521E+02 0.594E+01 -.298E+03   -.578E+02 -.596E+01 0.321E+03   0.458E+01 0.110E+00 -.239E+02
   0.258E+02 -.161E+02 0.436E+03   -.261E+02 0.162E+02 -.461E+03   0.165E+00 0.118E+01 0.241E+02
   -.688E+01 0.314E+02 0.434E+03   0.735E+01 -.320E+02 -.458E+03   0.306E+00 -.502E+00 0.239E+02
   -.357E+02 -.250E+02 0.410E+03   0.373E+02 0.275E+02 -.430E+03   -.596E+00 -.185E+01 0.220E+02
   -.619E+01 -.193E+02 0.457E+03   0.801E+01 0.222E+02 -.485E+03   -.178E+01 -.193E+01 0.266E+02
   0.821E+01 -.208E+02 -.282E+03   -.642E+01 0.226E+02 0.299E+03   -.255E+01 -.183E+01 -.190E+02
   -.144E+02 0.359E+02 -.273E+03   0.147E+02 -.386E+02 0.287E+03   0.145E+00 0.831E+00 -.135E+02
   -.189E+01 -.392E+01 -.269E+03   0.424E+00 0.536E+01 0.286E+03   0.172E+01 -.145E+01 -.170E+02
   0.118E+02 0.813E+01 -.266E+03   -.120E+02 -.118E+02 0.281E+03   0.206E+00 0.429E+01 -.169E+02
   -.650E-01 -.185E+01 0.425E+03   0.203E+00 0.382E+01 -.445E+03   0.208E+00 -.225E+01 0.204E+02
   -.152E+02 0.328E+01 0.447E+03   0.203E+02 -.391E+01 -.473E+03   -.443E+01 0.859E+00 0.252E+02
   0.671E+01 0.134E+01 0.403E+03   -.604E+01 -.440E+01 -.416E+03   -.106E+01 0.311E+01 0.143E+02
   -.108E+02 -.387E+01 0.402E+03   0.809E+01 0.556E+01 -.417E+03   0.398E+01 -.182E+01 0.152E+02
   -.427E+01 -.282E+01 -.508E+03   0.597E+01 0.643E-01 0.533E+03   -.207E+01 0.287E+01 -.243E+02
   -.281E+01 0.645E+01 -.510E+03   0.840E+00 -.501E+01 0.532E+03   0.328E+01 -.225E+01 -.214E+02
   0.909E+01 -.140E+02 -.500E+03   -.997E+01 0.165E+02 0.520E+03   0.618E+00 -.265E+01 -.214E+02
   0.373E+01 0.298E+02 -.517E+03   -.208E+01 -.333E+02 0.540E+03   -.222E+01 0.268E+01 -.224E+02
   -.221E+01 0.108E+02 0.215E+03   0.330E+01 -.135E+02 -.230E+03   -.120E+01 0.226E+01 0.150E+02
   0.347E+01 0.636E+01 0.211E+03   -.696E+01 -.745E+01 -.229E+03   0.468E+01 0.104E+01 0.186E+02
   -.342E+00 -.207E+02 0.224E+03   -.164E+00 0.245E+02 -.244E+03   0.542E+00 -.290E+01 0.204E+02
   -.101E+02 -.162E+02 0.211E+03   0.142E+02 0.184E+02 -.229E+03   -.442E+01 -.122E+01 0.178E+02
 -----------------------------------------------------------------------------------------------
   0.729E+01 -.235E+01 0.244E+01   0.103E-12 0.249E-13 -.369E-12   -.730E+01 0.230E+01 -.248E+01
 
 
 POSITION                                       TOTAL-FORCE (eV/Angst)
 -----------------------------------------------------------------------------------
      3.64838      0.02427     14.72793        -0.123127     -0.051335      0.355669
      4.80715      0.68744      5.21777        -0.062935      0.136085      0.516223
      2.65490      2.48108      5.25698        -0.282791      0.447659     -0.756463
      0.87649      1.49500     10.05229        -0.284812      0.003955     -0.655527
     -0.70558      3.75795      9.95875        -0.074208      0.136175     -0.312695
      2.15229      3.77066      9.88936         0.091992      0.300306     -0.189277
     -0.08831      1.75080      2.50276        -1.423953     -1.245788      1.095777
     -1.51055      4.08946      2.62669         0.209318      0.741634      0.695318
      2.62045      1.75888      2.58689         2.040742     -2.639755     -0.154515
      1.29969      4.11387      2.58245        -0.807223      1.254992      0.429786
     -2.05242      4.69271      7.52109        -2.487934      0.049830      1.102665
     -0.72248      2.32042      7.55725        -0.226116     -0.778900      0.484868
      0.63023      4.71606      7.64355         1.297976      0.480731     -1.636478
      2.05448      2.28015      7.55481         0.130848      0.789208      1.324704
      2.27112      0.74822     12.23543        -0.510872     -1.267915      0.580906
      0.78108      3.10665     12.33993         0.130655     -0.035788     -0.274198
      5.02310      0.65530     12.29973        -0.440823      1.323382     -0.335851
      3.61266      3.10674     12.40233        -0.121562      0.032575     -0.984343
      5.52540      0.03170      3.60088        -0.746608      1.167610     -0.781583
      4.04146      2.54052      3.58450         0.591794     -0.894219     -0.197865
      2.71973      0.19600      3.60298        -0.190056     -0.682116     -0.384774
      1.33905      2.52684      3.59818        -1.234763      0.090362     -0.143518
      1.29485      0.81406      1.64055        -0.138677      1.317544     -0.672094
     -0.15892      3.43343      1.61703         0.791954     -1.098363     -0.403914
      3.95579      0.85591      1.49287         1.035595      0.703936      1.224307
      2.67780      3.27503      1.69190         0.021499      1.026615     -1.483599
      2.08692      0.71261      8.70666        -0.686655      0.053905     -1.222661
      0.64977      3.20214      8.67333         0.381144     -1.849748     -0.127050
      4.93777      0.67866      8.50534         0.281191      0.064962      0.639620
      3.46912      3.06792      8.65746         0.011728      0.585666     -1.384298
      0.65984      1.51477      6.53494         0.464270     -0.217788      0.087879
     -0.75720      3.90468      6.62683         0.652054      0.227912     -0.489366
      3.51631      1.49023      6.46107        -0.447218      0.074448      1.523159
      1.95839      3.89843      6.50785         1.276784     -0.154972      0.627896
      0.83493      1.48943     13.13283        -0.366320      0.139253      1.330240
     -0.62760      4.00169     13.26113         1.303968     -0.838626      0.705436
      3.68377      1.46006     13.40123        -0.279319     -0.004664     -1.333500
      2.22431      3.97067     13.32363        -0.507656     -0.872150      0.365254
     -1.98464      4.71286     11.26453        -0.153402     -0.369746     -0.012227
      4.91798      2.29463     11.29843         1.141767     -0.094765      0.630391
      0.85662      4.58993     11.28483        -0.017675      0.955862      0.103447
      2.22494      2.31656     11.29953        -0.240573      0.992029      0.112251
 -----------------------------------------------------------------------------------
    total drift:                               -0.011935     -0.045631     -0.037057


--------------------------------------------------------------------------------------------------------



  FREE ENERGIE OF THE ION-ELECTRON SYSTEM (eV)
  ---------------------------------------------------
  free  energy   TOTEN  =      -233.92180314 eV

  energy  without entropy=     -233.91968823  energy(sigma->0) =     -233.92074568
 


--------------------------------------------------------------------------------------------------------


    POTLOK:  cpu time    0.0787: real time    0.0787


--------------------------------------------------------------------------------------------------------


     LOOP+:  cpu time 4025.9594: real time 4063.9787
    4ORBIT:  cpu time    0.0000: real time    0.0000
 


 total charge     
 
# of ion       s       p       d       tot
------------------------------------------
    1        0.065   0.126   0.000   0.192
    2        0.090   0.182   0.000   0.272
    3        0.101   0.214   0.000   0.315
    4        0.092   0.195   0.000   0.287
    5        0.097   0.205   0.000   0.302
    6        0.097   0.206   0.000   0.303
    7        0.392   0.571   7.280   8.243
    8        0.496   0.835   7.277   8.608
    9        0.497   0.829   7.293   8.619
   10        0.467   0.755   7.228   8.450
   11        0.452   0.713   7.228   8.393
   12        0.430   0.675   7.367   8.471
   13        0.437   0.695   7.381   8.513
   14        0.405   0.612   7.316   8.333
   15        0.446   0.716   7.413   8.575
   16        0.465   0.746   7.250   8.461
   17        0.476   0.773   7.248   8.497
   18        0.431   0.678   7.358   8.466
   19        1.572   3.422   0.000   4.994
   20        1.574   3.405   0.000   4.979
   21        1.583   3.351   0.000   4.933
   22        1.577   3.406   0.000   4.984
   23        1.577   3.405   0.000   4.982
   24        1.576   3.407   0.000   4.983
   25        1.577   3.344   0.000   4.920
   26        1.585   3.402   0.000   4.987
   27        1.564   3.425   0.000   4.989
   28        1.553   3.482   0.000   5.035
   29        1.563   3.440   0.000   5.004
   30        1.562   3.426   0.000   4.989
   31        1.566   3.416   0.000   4.982
   32        1.577   3.429   0.000   5.006
   33        1.556   3.466   0.000   5.022
   34        1.561   3.415   0.000   4.976
   35        1.580   3.413   0.000   4.992
   36        1.571   3.418   0.000   4.988
   37        1.569   3.394   0.000   4.963
   38        1.573   3.410   0.000   4.983
   39        1.560   3.463   0.000   5.023
   40        1.568   3.420   0.000   4.988
   41        1.569   3.444   0.000   5.014
   42        1.565   3.454   0.000   5.020
--------------------------------------------------
tot         43.616  91.781  87.638 223.035
 


 magnetization (x)
 
# of ion       s       p       d       tot
------------------------------------------
    1        0.001   0.001   0.000   0.002
    2        0.000  -0.000   0.000  -0.000
    3        0.001   0.001   0.000   0.002
    4        0.001   0.000   0.000   0.001
    5        0.000  -0.001   0.000  -0.001
    6        0.001   0.001   0.000   0.002
    7        0.005   0.006   0.028   0.038
    8        0.010   0.015   1.210   1.235
    9        0.011   0.017   1.222   1.250
   10        0.013   0.017   1.347   1.377
   11        0.011   0.011   1.380   1.402
   12        0.003   0.003  -0.019  -0.014
   13        0.002   0.002  -0.021  -0.016
   14        0.001   0.001   0.001   0.004
   15        0.004   0.006  -0.005   0.005
   16        0.012   0.016   1.341   1.369
   17        0.010   0.012   1.256   1.279
   18        0.002   0.003  -0.007  -0.002
   19        0.000  -0.070   0.000  -0.070
   20        0.001  -0.069   0.000  -0.068
   21        0.001  -0.151   0.000  -0.150
   22        0.001  -0.071   0.000  -0.071
   23        0.001  -0.081   0.000  -0.080
   24        0.000  -0.086   0.000  -0.085
   25        0.000  -0.109   0.000  -0.109
   26        0.002  -0.110   0.000  -0.108
   27       -0.000  -0.088   0.000  -0.088
   28       -0.000  -0.005   0.000  -0.006
   29        0.000  -0.044   0.000  -0.044
   30       -0.000  -0.071   0.000  -0.071
   31       -0.000  -0.072   0.000  -0.072
   32        0.001  -0.027   0.000  -0.026
   33       -0.000  -0.007   0.000  -0.007
   34       -0.000  -0.082   0.000  -0.082
   35        0.001  -0.071   0.000  -0.070
   36        0.000  -0.064   0.000  -0.064
   37       -0.000  -0.068   0.000  -0.069
   38        0.000  -0.101   0.000  -0.101
   39        0.000  -0.029   0.000  -0.028
   40        0.000  -0.103   0.000  -0.102
   41        0.001  -0.052   0.000  -0.051
   42        0.000  -0.068   0.000  -0.068
--------------------------------------------------
tot          0.098  -1.587   7.732   6.244
 

 total amount of memory used by VASP MPI-rank0   161979. kBytes
=======================================================================

   base      :      30000. kBytes
   nonlr-proj:       4204. kBytes
   fftplans  :       1691. kBytes
   grid      :       4644. kBytes
   one-center:        342. kBytes
   wavefun   :     121098. kBytes
 
  
  
 General timing and accounting informations for this job:
 ========================================================
  
                  Total CPU time used (sec):     4051.587
                            User time (sec):     3572.634
                          System time (sec):      478.953
                         Elapsed time (sec):     4090.098
  
                   Maximum memory used (kb):      933076.
                   Average memory used (kb):           0.
  
                          Minor page faults:        71763
                          Major page faults:           72
                 Voluntary context switches:          686
