 running on   64 total cores
 distrk:  each k-point on   64 cores,    1 groups
 distr:  one band on    4 cores,   16 groups
 using from now: INCAR     
 vasp.5.4.4.18Apr17-6-g9f103f2a35 (build Nov 22 2021 14:44:17) complex          
  
 POSCAR found type information on POSCAR  Li Co O 
 POSCAR found :  3 types and      42 ions
 scaLAPACK will be used
 LDA part: xc-table for Pade appr. of Perdew
 generate k-points for:    6    6    2
 POSCAR, INCAR and KPOINTS ok, starting setup
 FFT: planning ...
 WAVECAR not read
 entering main loop
       N       E                     dE             d eps       ncg     rms          ort
DAV:   1     0.349284969942E+04    0.34928E+04   -0.13982E+05  5760   0.219E+03
DAV:   2     0.402702027265E+03   -0.30901E+04   -0.28438E+04  5760   0.534E+02
DAV:   3    -0.222913653894E+03   -0.62562E+03   -0.57184E+03  5760   0.254E+02
DAV:   4    -0.272224373032E+03   -0.49311E+02   -0.48316E+02  5760   0.735E+01
DAV:   5    -0.273914327969E+03   -0.16900E+01   -0.16870E+01  5760   0.135E+01
 gam= 0.000 g(H,U,f)=  0.177E+04 0.118E+04 0.243E+04 ort(H,U,f) = 0.000E+00 0.000E+00 0.000E+00
SDA:   6     0.104086725793E+03    0.37800E+03   -0.16870E+01  5760   0.539E+04 0.000E+00
 gam= 0.000 trial= 0.400  step= 0.078 mean= 0.400
 gam= 0.532 g(H,U,f)=  0.889E+03 0.100E+04 0.974E+03 ort(H,U,f) = 0.975E+03 0.229E+03-0.689E+03
CGA:   7    -0.538684608731E+00   -0.10463E+03   -0.20974E+03  5760   0.286E+04 0.515E+03
 gam= 0.532 trial= 0.384  step= 0.062 mean= 0.384
 gam= 0.921 g(H,U,f)=  0.279E+03 0.126E+04 0.110E+04 ort(H,U,f) = 0.658E+03-0.446E+03-0.128E+04
CGA:   8    -0.130797357914E+03   -0.13026E+03   -0.96718E+02  5760   0.264E+04-0.107E+04
 gam= 0.921 trial= 0.368  step= 0.044 mean= 0.368
 gam= 0.718 g(H,U,f)=  0.123E+03 0.635E+03 0.114E+04 ort(H,U,f) = 0.394E+03 0.500E+03-0.136E+03
CGA:   9    -0.169597439908E+03   -0.38800E+02   -0.36284E+02  5760   0.189E+04 0.758E+03
 gam= 0.718 trial= 0.352  step= 0.060 mean= 0.352
 gam= 0.237 g(H,U,f)=  0.108E+03 0.242E+03 0.983E+02 ort(H,U,f) =-0.299E+03-0.239E+03-0.823E+02
CGA:  10    -0.191254288394E+03   -0.21657E+02   -0.73236E+02  5760   0.448E+03-0.620E+03
 gam= 0.237 trial= 0.337  step= 0.069 mean= 0.337
 gam= 0.000 g(H,U,f)=  0.111E+03 0.128E+03 0.579E+02 ort(H,U,f) =-0.128E+02-0.156E+03-0.654E+02
CGA:  11    -0.196346854212E+03   -0.50926E+01   -0.10424E+02  5760   0.297E+03-0.234E+03
 gam= 0.000 trial= 0.324  step= 0.113 mean= 0.324
 gam= 0.000 g(H,U,f)=  0.637E+02 0.331E+03 0.164E+03 ort(H,U,f) = 0.500E+02-0.144E+03-0.628E+02
CGA:  12    -0.200525810422E+03   -0.41790E+01   -0.16741E+02  5760   0.558E+03-0.157E+03
 gam= 0.000 trial= 0.313  step= 0.077 mean= 0.313
 gam= 0.000 g(H,U,f)=  0.637E+02 0.256E+03 0.515E+03 ort(H,U,f) =-0.834E+00-0.199E+03-0.396E+03
CGA:  13    -0.197989294969E+03    0.25365E+01   -0.21554E+02  5760   0.835E+03-0.595E+03
 gam= 0.000 trial= 0.301  step= 0.062 mean= 0.301
 gam= 0.000 g(H,U,f)=  0.412E+02 0.252E+03 0.229E+03 ort(H,U,f) =-0.113E+02-0.306E+03-0.250E+03
CGA:  14    -0.204955407774E+03   -0.69661E+01   -0.26054E+02  5760   0.522E+03-0.568E+03
 gam= 0.000 trial= 0.289  step= 0.074 mean= 0.289
 gam= 0.000 g(H,U,f)=  0.440E+02 0.254E+03 0.365E+03 ort(H,U,f) =-0.132E+02-0.222E+03-0.315E+03
CGA:  15    -0.203808272192E+03    0.11471E+01   -0.19289E+02  5760   0.663E+03-0.550E+03
 gam= 0.000 trial= 0.279  step= 0.073 mean= 0.279
 gam= 0.000 g(H,U,f)=  0.405E+02 0.309E+03 0.292E+03 ort(H,U,f) =-0.213E+02-0.297E+03-0.276E+03
CGA:  16    -0.204494419476E+03   -0.68615E+00   -0.24057E+02  5760   0.642E+03-0.594E+03
 gam= 0.000 trial= 0.268  step= 0.074 mean= 0.268
 gam= 0.000 g(H,U,f)=  0.405E+02 0.244E+03 0.333E+03 ort(H,U,f) =-0.241E+02-0.236E+03-0.321E+03
CGA:  17    -0.204997062752E+03   -0.50264E+00   -0.23651E+02  5760   0.618E+03-0.580E+03
 gam= 0.000 trial= 0.259  step= 0.073 mean= 0.259
 gam= 0.000 g(H,U,f)=  0.358E+02 0.284E+03 0.235E+03 ort(H,U,f) =-0.256E+02-0.287E+03-0.238E+03
CGA:  18    -0.206659046860E+03   -0.16620E+01   -0.22507E+02  5760   0.554E+03-0.550E+03
 gam= 0.000 trial= 0.249  step= 0.070 mean= 0.249
 gam= 0.000 g(H,U,f)=  0.284E+02 0.219E+03 0.253E+03 ort(H,U,f) =-0.214E+02-0.245E+03-0.284E+03
CGA:  19    -0.209880095844E+03   -0.32210E+01   -0.19347E+02  5760   0.500E+03-0.550E+03
 gam= 0.000 trial= 0.240  step= 0.071 mean= 0.240
 gam= 0.000 g(H,U,f)=  0.249E+02 0.194E+03 0.125E+03 ort(H,U,f) =-0.183E+02-0.200E+03-0.129E+03
CGA:  20    -0.211273844476E+03   -0.13937E+01   -0.17804E+02  5760   0.345E+03-0.347E+03
 gam= 0.000 trial= 0.232  step= 0.053 mean= 0.232
 gam= 0.219 g(H,U,f)=  0.692E+01 0.443E+02 0.243E+02 ort(H,U,f) =-0.516E+01-0.104E+03-0.592E+02
CGA:  21    -0.218128167743E+03   -0.68543E+01   -0.91308E+01  5760   0.756E+02-0.168E+03
 gam= 0.219 trial= 0.223  step= 0.092 mean= 0.223
 gam= 0.085 g(H,U,f)=  0.239E+01 0.325E+01 0.814E+00 ort(H,U,f) = 0.317E+01-0.236E+01-0.197E+01
CGA:  22    -0.219898672874E+03   -0.17705E+01   -0.17833E+01  5760   0.645E+01-0.116E+01
 gam= 0.085 trial= 0.216  step= 0.140 mean= 0.216
 gam= 1.883 g(H,U,f)=  0.203E+01 0.729E+01 0.284E+01 ort(H,U,f) = 0.198E+01-0.100E+01-0.100E+01
CGA:  23    -0.220310603230E+03   -0.41193E+00   -0.44478E+00  5760   0.122E+02-0.279E-01
 gam= 1.883 trial= 0.213  step= 0.250 mean= 0.213
 gam= 0.630 g(H,U,f)=  0.785E+00 0.552E+01 0.135E+01 ort(H,U,f) = 0.353E+00 0.503E+00-0.399E+00
CGA:  24    -0.221835367067E+03   -0.15248E+01   -0.15120E+01  5760   0.765E+01 0.457E+00
 gam= 0.630 trial= 0.214  step= 0.075 mean= 0.214
 gam= 0.261 g(H,U,f)=  0.429E+00 0.110E+01 0.466E+00 ort(H,U,f) =-0.641E-01 0.109E+00-0.617E+00
CGA:  25    -0.222105896853E+03   -0.27053E+00   -0.29912E+00  5760   0.200E+01-0.573E+00
 gam= 0.261 trial= 0.207  step= 0.160 mean= 0.207
 gam= 1.223 g(H,U,f)=  0.384E+00 0.159E+01 0.468E+00 ort(H,U,f) = 0.149E+00 0.915E-01-0.199E+00
CGA:  26    -0.222249534445E+03   -0.14364E+00   -0.14842E+00  5760   0.245E+01 0.422E-01
 gam= 1.223 trial= 0.205  step= 0.209 mean= 0.205
 gam= 0.866 g(H,U,f)=  0.274E+00 0.131E+01 0.538E+00 ort(H,U,f) =-0.113E+00 0.420E+00-0.171E+00
CGA:  27    -0.222511492871E+03   -0.26196E+00   -0.26141E+00  5760   0.212E+01 0.136E+00
 gam= 0.866 trial= 0.205  step= 0.162 mean= 0.205
 gam= 0.726 g(H,U,f)=  0.230E+00 0.843E+00 0.465E+00 ort(H,U,f) =-0.276E+00 0.504E+00-0.163E+00
CGA:  28    -0.222688704519E+03   -0.17721E+00   -0.18122E+00  5760   0.154E+01 0.651E-01
 gam= 0.726 trial= 0.203  step= 0.197 mean= 0.203
 gam= 1.178 g(H,U,f)=  0.408E+00 0.111E+01 0.295E+00 ort(H,U,f) =-0.206E+00 0.415E+00-0.144E+00
CGA:  29    -0.222844167767E+03   -0.15546E+00   -0.15591E+00  5760   0.181E+01 0.648E-01
 gam= 1.178 trial= 0.203  step= 0.349 mean= 0.203
 gam= 0.628 g(H,U,f)=  0.464E+00 0.581E+00 0.928E-01 ort(H,U,f) =-0.281E+00 0.646E+00 0.556E-01
CGA:  30    -0.223212725638E+03   -0.36856E+00   -0.32976E+00  5760   0.114E+01 0.420E+00
 gam= 0.628 trial= 0.210  step= 0.426 mean= 0.210
 gam= 2.856 g(H,U,f)=  0.607E+00 0.196E+01 0.677E+00 ort(H,U,f) =-0.497E-01 0.228E+00-0.317E+00
CGA:  31    -0.223502130155E+03   -0.28940E+00   -0.29817E+00  5760   0.325E+01-0.138E+00
 gam= 2.856 trial= 0.221  step= 0.201 mean= 0.221
 gam= 0.932 g(H,U,f)=  0.942E+00 0.184E+01 0.243E+00 ort(H,U,f) =-0.766E+00 0.965E+00-0.166E+00
CGA:  32    -0.223788507612E+03   -0.28638E+00   -0.28696E+00  5760   0.303E+01 0.326E-01
 gam= 0.932 trial= 0.220  step= 0.093 mean= 0.220
 gam= 0.743 g(H,U,f)=  0.828E+00 0.120E+01 0.223E+00 ort(H,U,f) =-0.486E+00 0.967E+00-0.313E+00
CGA:  33    -0.223946505215E+03   -0.15800E+00   -0.14146E+00  5760   0.225E+01 0.169E+00
 gam= 0.743 trial= 0.214  step= 0.165 mean= 0.214
 gam= 1.186 g(H,U,f)=  0.680E+00 0.108E+01 0.910E+00 ort(H,U,f) =-0.347E+00 0.398E+00-0.164E+00
CGA:  34    -0.224138458368E+03   -0.19195E+00   -0.19628E+00  5760   0.267E+01-0.113E+00
 gam= 1.186 trial= 0.211  step= 0.102 mean= 0.211
 gam= 0.570 g(H,U,f)=  0.711E+00 0.665E+00 0.145E+00 ort(H,U,f) =-0.299E+00 0.377E+00-0.259E+00
CGA:  35    -0.224252297254E+03   -0.11384E+00   -0.12973E+00  5760   0.152E+01-0.181E+00
 gam= 0.570 trial= 0.206  step= 0.308 mean= 0.206
 gam= 0.763 g(H,U,f)=  0.425E+00 0.457E+00 0.278E+00 ort(H,U,f) =-0.434E-01 0.249E+00-0.751E-01
CGA:  36    -0.224479780212E+03   -0.22748E+00   -0.21847E+00  5760   0.116E+01 0.131E+00
 gam= 0.763 trial= 0.211  step= 0.111 mean= 0.211
 gam= 0.742 g(H,U,f)=  0.284E+00 0.370E+00 0.206E+00 ort(H,U,f) = 0.885E-01 0.171E+00-0.207E+00
CGA:  37    -0.224556201238E+03   -0.76421E-01   -0.69837E-01  5760   0.860E+00 0.528E-01
 gam= 0.742 trial= 0.206  step= 0.228 mean= 0.206
 gam= 1.168 g(H,U,f)=  0.282E+00 0.361E+00 0.362E+00 ort(H,U,f) =-0.177E+00 0.169E+00-0.860E-02
CGA:  38    -0.224658799513E+03   -0.10260E+00   -0.10243E+00  5760   0.101E+01-0.168E-01
 gam= 1.168 trial= 0.207  step= 0.133 mean= 0.207
 gam= 0.886 g(H,U,f)=  0.420E+00 0.384E+00 0.869E-01 ort(H,U,f) =-0.248E+00 0.408E+00-0.148E+00
CGA:  39    -0.224716693613E+03   -0.57894E-01   -0.65773E-01  5760   0.890E+00 0.115E-01
 gam= 0.886 trial= 0.203  step= 0.301 mean= 0.203
 gam= 0.000 g(H,U,f)=  0.271E+00 0.269E+00 0.465E+00 ort(H,U,f) =-0.218E+00-0.213E+00-0.652E-01
CGA:  40    -0.224832525898E+03   -0.11583E+00   -0.13560E+00  5760   0.100E+01-0.496E+00
 gam= 0.000 trial= 0.208  step= 0.126 mean= 0.208
 gam= 0.527 g(H,U,f)=  0.206E+00 0.199E+00 0.125E+00 ort(H,U,f) = 0.147E+00 0.178E-01-0.213E+00
CGA:  41    -0.224884837766E+03   -0.52312E-01   -0.63076E-01  5760   0.530E+00-0.482E-01
 gam= 0.527 trial= 0.204  step= 0.244 mean= 0.204
 gam= 0.515 g(H,U,f)=  0.862E-01 0.115E+00 0.716E-01 ort(H,U,f) =-0.187E-01 0.275E-01-0.118E-01
CGA:  42    -0.224946284250E+03   -0.61446E-01   -0.61474E-01  5760   0.273E+00-0.307E-02
 gam= 0.515 trial= 0.206  step= 0.461 mean= 0.206
 gam= 0.449 g(H,U,f)=  0.406E-01 0.799E-01 0.211E-02 ort(H,U,f) =-0.261E-01 0.995E-01-0.403E-02
CGA:  43    -0.225019262495E+03   -0.72978E-01   -0.62589E-01  5760   0.123E+00 0.694E-01
 gam= 0.449 trial= 0.219  step= 0.534 mean= 0.219
 gam= 0.000 g(H,U,f)=  0.186E+00 0.530E+00 0.542E+00 ort(H,U,f) =-0.506E-01-0.123E+00-0.476E-01
CGA:  44    -0.225030389707E+03   -0.11127E-01   -0.41088E-01  5760   0.126E+01-0.221E+00
 gam= 0.000 trial= 0.235  step= 0.122 mean= 0.235
 gam= 0.103 g(H,U,f)=  0.270E-01 0.916E-01 0.106E-01 ort(H,U,f) = 0.215E-02-0.992E-01-0.143E-01
CGA:  45    -0.225079373899E+03   -0.48984E-01   -0.76884E-01  5760   0.129E+00-0.111E+00
 gam= 0.103 trial= 0.229  step= 0.294 mean= 0.229
 gam= 0.866 g(H,U,f)=  0.267E-01 0.776E-01 0.761E-02 ort(H,U,f) =-0.719E-03-0.937E-02 0.246E-03
CGA:  46    -0.225095825710E+03   -0.16452E-01   -0.17317E-01  5760   0.112E+00-0.985E-02
 gam= 0.866 trial= 0.232  step= 0.517 mean= 0.232
 gam= 0.559 g(H,U,f)=  0.214E-01 0.406E-01 0.483E-03 ort(H,U,f) =-0.188E-01 0.396E-01-0.737E-03
CGA:  47    -0.225126073234E+03   -0.30248E-01   -0.26721E-01  5760   0.625E-01 0.201E-01
 gam= 0.559 trial= 0.246  step= 0.538 mean= 0.246
 gam= 3.651 g(H,U,f)=  0.352E-01 0.191E+00 0.219E-02 ort(H,U,f) =-0.108E-01-0.716E-02 0.902E-03
CGA:  48    -0.225139825741E+03   -0.13753E-01   -0.19841E-01  5760   0.228E+00-0.171E-01
 gam= 3.651 trial= 0.261  step= 0.171 mean= 0.261
 gam= 1.071 g(H,U,f)=  0.829E-01 0.157E+00 0.470E-02 ort(H,U,f) =-0.636E-01 0.788E-01 0.829E-02
CGA:  49    -0.225152956821E+03   -0.13131E-01   -0.14204E-01  5760   0.244E+00 0.234E-01
 gam= 1.071 trial= 0.257  step= 0.123 mean= 0.257
 gam= 0.828 g(H,U,f)=  0.102E+00 0.971E-01 0.271E-02 ort(H,U,f) =-0.336E-01 0.307E-01 0.861E-02
CGA:  50    -0.225168841623E+03   -0.15885E-01   -0.16541E-01  5760   0.202E+00 0.567E-02
 gam= 0.828 trial= 0.250  step= 0.217 mean= 0.250
 gam= 0.825 g(H,U,f)=  0.504E-01 0.115E+00 0.179E-02 ort(H,U,f) =-0.400E-03 0.666E-02-0.456E-02
CGA:  51    -0.225190943706E+03   -0.22102E-01   -0.22422E-01  5760   0.167E+00 0.170E-02
 gam= 0.825 trial= 0.248  step= 0.092 mean= 0.248
 gam= 0.292 g(H,U,f)=  0.198E-01 0.275E-01 0.142E-02 ort(H,U,f) =-0.172E-02 0.205E-01-0.276E-02
CGA:  52    -0.225201192977E+03   -0.10249E-01   -0.77631E-02  5760   0.487E-01 0.160E-01
 gam= 0.292 trial= 0.240  step= 0.161 mean= 0.240
 gam= 1.253 g(H,U,f)=  0.137E-01 0.463E-01 0.974E-03 ort(H,U,f) = 0.212E-02 0.374E-02 0.582E-03
CGA:  53    -0.225205494443E+03   -0.43015E-02   -0.42965E-02  5760   0.610E-01 0.644E-02
 gam= 1.253 trial= 0.236  step= 0.202 mean= 0.236
 gam= 0.791 g(H,U,f)=  0.211E-01 0.264E-01 0.751E-03 ort(H,U,f) =-0.856E-02 0.481E-02-0.114E-02
CGA:  54    -0.225212578378E+03   -0.70839E-02   -0.69818E-02  5760   0.483E-01-0.488E-02
 gam= 0.791 trial= 0.235  step= 0.188 mean= 0.235
 gam= 1.200 g(H,U,f)=  0.200E-01 0.370E-01 0.981E-03 ort(H,U,f) = 0.398E-02 0.947E-03-0.615E-03
CGA:  55    -0.225216761718E+03   -0.41833E-02   -0.41713E-02  5760   0.579E-01 0.431E-02
 gam= 1.200 trial= 0.232  step= 0.228 mean= 0.232
 gam= 0.500 g(H,U,f)=  0.127E-01 0.160E-01 0.277E-03 ort(H,U,f) =-0.206E-01 0.188E-01 0.307E-03
CGA:  56    -0.225223955419E+03   -0.71937E-02   -0.71896E-02  5760   0.290E-01-0.152E-02
 gam= 0.500 trial= 0.232  step= 0.162 mean= 0.232
 gam= 0.957 g(H,U,f)=  0.161E-01 0.113E-01 0.299E-03 ort(H,U,f) =-0.611E-02 0.768E-02 0.284E-03
CGA:  57    -0.225226406582E+03   -0.24512E-02   -0.22835E-02  5760   0.277E-01 0.185E-02
 gam= 0.957 trial= 0.229  step= 0.349 mean= 0.229
 gam= 1.414 g(H,U,f)=  0.178E-01 0.210E-01 0.370E-03 ort(H,U,f) =-0.402E-02 0.723E-02-0.576E-03
CGA:  58    -0.225231743538E+03   -0.53370E-02   -0.51511E-02  5760   0.392E-01 0.263E-02
 gam= 1.414 trial= 0.235  step= 0.166 mean= 0.235
 gam= 0.648 g(H,U,f)=  0.122E-01 0.127E-01 0.584E-03 ort(H,U,f) =-0.681E-02 0.777E-02-0.977E-03
CGA:  59    -0.225235411352E+03   -0.36678E-02   -0.35584E-02  5760   0.254E-01-0.185E-04
 gam= 0.648 trial= 0.231  step= 0.316 mean= 0.231
 gam= 0.723 g(H,U,f)=  0.858E-02 0.970E-02 0.933E-04 ort(H,U,f) =-0.647E-02 0.436E-02 0.340E-04
CGA:  60    -0.225239336351E+03   -0.39250E-02   -0.40148E-02  5760   0.184E-01-0.208E-02
 gam= 0.723 trial= 0.235  step= 0.148 mean= 0.235
 gam= 0.617 g(H,U,f)=  0.516E-02 0.606E-02 0.115E-03 ort(H,U,f) = 0.938E-03 0.253E-03-0.451E-05
CGA:  61    -0.225240758566E+03   -0.14222E-02   -0.12455E-02  5760   0.113E-01 0.119E-02
 gam= 0.617 trial= 0.231  step= 0.285 mean= 0.231
 gam= 0.873 g(H,U,f)=  0.264E-02 0.715E-02 0.107E-03 ort(H,U,f) =-0.465E-03 0.121E-02 0.426E-04
CGA:  62    -0.225242500044E+03   -0.17415E-02   -0.17218E-02  5760   0.990E-02 0.786E-03
 gam= 0.873 trial= 0.234  step= 0.186 mean= 0.234
 gam= 1.012 g(H,U,f)=  0.369E-02 0.631E-02 0.177E-04 ort(H,U,f) =-0.986E-03 0.105E-02-0.431E-04
CGA:  63    -0.225243531294E+03   -0.10312E-02   -0.98340E-03  5760   0.100E-01 0.209E-04
 gam= 1.012 trial= 0.231  step= 0.340 mean= 0.231
 gam= 1.154 g(H,U,f)=  0.405E-02 0.738E-02 0.134E-03 ort(H,U,f) =-0.312E-02 0.426E-02-0.177E-04
CGA:  64    -0.225245287955E+03   -0.17567E-02   -0.17076E-02  5760   0.116E-01 0.112E-02
 gam= 1.154 trial= 0.237  step= 0.176 mean= 0.237
 gam= 0.911 g(H,U,f)=  0.516E-02 0.530E-02 0.720E-04 ort(H,U,f) =-0.449E-02 0.456E-02 0.440E-04
CGA:  65    -0.225246466421E+03   -0.11785E-02   -0.11310E-02  5760   0.105E-01 0.119E-03
 gam= 0.911 trial= 0.234  step= 0.450 mean= 0.234
 gam= 2.167 g(H,U,f)=  0.888E-02 0.138E-01 0.119E-03 ort(H,U,f) =-0.446E-02 0.485E-02-0.241E-04
CGA:  66    -0.225248909824E+03   -0.24434E-02   -0.23947E-02  5760   0.228E-01 0.366E-03
 gam= 2.167 trial= 0.245  step= 0.209 mean= 0.245
 gam= 0.997 g(H,U,f)=  0.110E-01 0.114E-01 0.353E-03 ort(H,U,f) =-0.864E-02 0.850E-02 0.681E-04
CGA:  67    -0.225251436865E+03   -0.25270E-02   -0.24619E-02  5760   0.228E-01-0.668E-04
 gam= 0.997 trial= 0.243  step= 0.365 mean= 0.243
 gam= 1.225 g(H,U,f)=  0.127E-01 0.151E-01 0.945E-04 ort(H,U,f) =-0.721E-02 0.956E-02-0.749E-04
CGA:  68    -0.225255736312E+03   -0.42994E-02   -0.41456E-02  5760   0.279E-01 0.228E-02
 gam= 1.225 trial= 0.249  step= 0.182 mean= 0.249
 gam= 0.761 g(H,U,f)=  0.131E-01 0.800E-02 0.890E-04 ort(H,U,f) =-0.371E-02 0.402E-02-0.195E-03
CGA:  69    -0.225258657875E+03   -0.29216E-02   -0.27872E-02  5760   0.212E-01 0.112E-03
 gam= 0.761 trial= 0.246  step= 0.394 mean= 0.246
 gam= 1.236 g(H,U,f)=  0.105E-01 0.155E-01 0.207E-03 ort(H,U,f) =-0.187E-02 0.148E-02 0.858E-04
CGA:  70    -0.225262821879E+03   -0.41640E-02   -0.41968E-02  5760   0.262E-01-0.301E-03
 gam= 1.236 trial= 0.253  step= 0.168 mean= 0.253
 gam= 0.581 g(H,U,f)=  0.825E-02 0.681E-02 0.179E-03 ort(H,U,f) =-0.245E-02 0.320E-02 0.222E-03
CGA:  71    -0.225265049213E+03   -0.22273E-02   -0.21717E-02  5760   0.152E-01 0.968E-03
 gam= 0.581 trial= 0.249  step= 0.271 mean= 0.249
 gam= 0.645 g(H,U,f)=  0.498E-02 0.482E-02 0.245E-04 ort(H,U,f) =-0.102E-02 0.913E-03 0.830E-04
CGA:  72    -0.225267187900E+03   -0.21387E-02   -0.21373E-02  5760   0.983E-02-0.202E-04
 gam= 0.645 trial= 0.250  step= 0.201 mean= 0.250
 gam= 0.980 g(H,U,f)=  0.348E-02 0.603E-02 0.121E-03 ort(H,U,f) = 0.913E-03-0.406E-03-0.793E-04
CGA:  73    -0.225268206266E+03   -0.10184E-02   -0.98690E-03  5760   0.963E-02 0.427E-03
 gam= 0.980 trial= 0.247  step= 0.331 mean= 0.247
 gam= 0.728 g(H,U,f)=  0.264E-02 0.428E-02 0.853E-04 ort(H,U,f) =-0.200E-02 0.219E-02 0.360E-04
CGA:  74    -0.225269879139E+03   -0.16729E-02   -0.16642E-02  5760   0.701E-02 0.222E-03
 gam= 0.728 trial= 0.252  step= 0.175 mean= 0.252
 gam= 0.000 g(H,U,f)=  0.243E-02 0.258E-02 0.190E-04 ort(H,U,f) =-0.621E-03 0.887E-03 0.219E-04
SDA:  75    -0.225270526457E+03   -0.64732E-03   -0.62597E-03  5760   0.502E-02 0.288E-03
 gam= 0.000 trial= 0.248  step= 0.218 mean= 0.248
 gam= 0.683 g(H,U,f)=  0.101E-02 0.238E-02 0.450E-04 ort(H,U,f) = 0.658E-03-0.551E-03-0.786E-05
CGA:  76    -0.225271083734E+03   -0.55728E-03   -0.54754E-03  5760   0.343E-02 0.998E-04
 gam= 0.683 trial= 0.246  step= 0.342 mean= 0.246
 gam= 0.786 g(H,U,f)=  0.111E-02 0.159E-02 0.687E-05 ort(H,U,f) =-0.331E-03 0.136E-03 0.781E-05
CGA:  77    -0.225271662800E+03   -0.57907E-03   -0.59941E-03  5760   0.270E-02-0.187E-03
 gam= 0.786 trial= 0.251  step= 0.602 mean= 0.251
 gam= 0.600 g(H,U,f)=  0.103E-02 0.577E-03 0.926E-05 ort(H,U,f) =-0.950E-03 0.763E-03 0.125E-04
CGA:  78    -0.225272387337E+03   -0.72454E-03   -0.76848E-03  5760   0.162E-02-0.174E-03
 gam= 0.600 trial= 0.269  step= 0.541 mean= 0.269
 gam= 1.161 g(H,U,f)=  0.779E-03 0.109E-02 0.839E-05 ort(H,U,f) =-0.156E-03 0.200E-03-0.521E-05
CGA:  79    -0.225272803307E+03   -0.41597E-03   -0.40969E-03  5760   0.188E-02 0.390E-04
 gam= 1.161 trial= 0.282  step= 0.274 mean= 0.282
 gam= 0.821 g(H,U,f)=  0.613E-03 0.919E-03 0.125E-04 ort(H,U,f) =-0.562E-04 0.573E-04 0.579E-05
CGA:  80    -0.225273069133E+03   -0.26583E-03   -0.26405E-03  5760   0.154E-02 0.688E-05
 gam= 0.821 trial= 0.282  step= 0.368 mean= 0.282
 gam= 0.410 g(H,U,f)=  0.350E-03 0.277E-03 0.591E-05 ort(H,U,f) =-0.218E-03 0.180E-03-0.243E-05
CGA:  81    -0.225273349544E+03   -0.28041E-03   -0.28496E-03  5760   0.634E-03-0.407E-04
 gam= 0.410 trial= 0.286  step= 0.470 mean= 0.286
 gam= 1.099 g(H,U,f)=  0.263E-03 0.424E-03 0.956E-05 ort(H,U,f) =-0.288E-04 0.316E-04-0.439E-05
CGA:  82    -0.225273488400E+03   -0.13886E-03   -0.14491E-03  5760   0.696E-03-0.165E-05
 gam= 1.099 trial= 0.295  step= 0.261 mean= 0.295
 gam= 0.633 g(H,U,f)=  0.166E-03 0.269E-03 0.542E-05 ort(H,U,f) =-0.773E-04 0.804E-04-0.150E-05
CGA:  83    -0.225273580116E+03   -0.91716E-04   -0.90779E-04  5760   0.441E-03 0.166E-05
 gam= 0.633 trial= 0.294  step= 0.430 mean= 0.294
 gam= 0.674 g(H,U,f)=  0.133E-03 0.163E-03 0.119E-05 ort(H,U,f) =-0.108E-03 0.847E-04 0.717E-07
CGA:  84    -0.225273670761E+03   -0.90645E-04   -0.94914E-04  5760   0.297E-03-0.230E-04
 gam= 0.674 trial= 0.300  step= 0.566 mean= 0.300
 gam= 1.908 g(H,U,f)=  0.198E-03 0.363E-03 0.597E-05 ort(H,U,f) =-0.554E-04 0.476E-04-0.421E-05
CGA:  85    -0.225273744650E+03   -0.73889E-04   -0.79640E-04  5760   0.567E-03-0.121E-04
 gam= 1.908 trial= 0.314  step= 0.274 mean= 0.314
 gam= 0.514 g(H,U,f)=  0.142E-03 0.149E-03 0.750E-06 ort(H,U,f) =-0.118E-03 0.109E-03-0.881E-06
CGA:  86    -0.225273820599E+03   -0.75949E-04   -0.74568E-04  5760   0.291E-03-0.101E-04
 gam= 0.514 trial= 0.312  step= 0.630 mean= 0.312
 gam= 1.070 g(H,U,f)=  0.137E-03 0.172E-03 0.216E-05 ort(H,U,f) =-0.493E-04 0.344E-04-0.786E-06
CGA:  87    -0.225273904657E+03   -0.84059E-04   -0.90055E-04  5760   0.311E-03-0.157E-04
 gam= 1.070 trial= 0.328  step= 0.347 mean= 0.328
 gam= 1.076 g(H,U,f)=  0.126E-03 0.205E-03 0.487E-05 ort(H,U,f) =-0.285E-04 0.290E-04 0.757E-06
CGA:  88    -0.225273955374E+03   -0.50717E-04   -0.51104E-04  5760   0.335E-03 0.128E-05
 gam= 1.076 trial= 0.329  step= 0.356 mean= 0.329
 gam= 0.803 g(H,U,f)=  0.100E-03 0.167E-03 0.116E-05 ort(H,U,f) =-0.484E-04 0.331E-04 0.147E-05
CGA:  89    -0.225274014650E+03   -0.59277E-04   -0.59942E-04  5760   0.269E-03-0.138E-04
 gam= 0.803 trial= 0.330  step= 0.483 mean= 0.330
 gam= 0.723 g(H,U,f)=  0.873E-04 0.107E-03 0.661E-06 ort(H,U,f) =-0.702E-04 0.723E-04-0.132E-05
CGA:  90    -0.225274076747E+03   -0.62096E-04   -0.62221E-04  5760   0.195E-03 0.736E-06
 gam= 0.723 trial= 0.338  step= 0.410 mean= 0.338
 gam= 1.536 g(H,U,f)=  0.856E-04 0.210E-03 0.327E-05 ort(H,U,f) =-0.274E-04 0.380E-04-0.229E-05
CGA:  91    -0.225274115916E+03   -0.39170E-04   -0.39950E-04  5760   0.299E-03 0.828E-05
 gam= 1.536 trial= 0.341  step= 0.493 mean= 0.341
 gam= 1.268 g(H,U,f)=  0.144E-03 0.234E-03 0.161E-05 ort(H,U,f) =-0.682E-04 0.434E-04-0.139E-05
CGA:  92    -0.225274187480E+03   -0.71564E-04   -0.76863E-04  5760   0.379E-03-0.261E-04
 gam= 1.268 trial= 0.349  step= 0.352 mean= 0.349
 gam= 0.628 g(H,U,f)=  0.138E-03 0.967E-04 0.333E-05 ort(H,U,f) =-0.121E-03 0.113E-03-0.756E-06
CGA:  93    -0.225274248317E+03   -0.60837E-04   -0.60889E-04  5760   0.238E-03-0.826E-05
 gam= 0.628 trial= 0.349  step= 0.441 mean= 0.349
 gam= 1.227 g(H,U,f)=  0.110E-03 0.181E-03 0.492E-06 ort(H,U,f) =-0.134E-04 0.148E-04-0.535E-07
CGA:  94    -0.225274298544E+03   -0.50227E-04   -0.51380E-04  5760   0.292E-03 0.134E-05
 gam= 1.227 trial= 0.354  step= 0.406 mean= 0.354
 gam= 1.007 g(H,U,f)=  0.119E-03 0.172E-03 0.234E-05 ort(H,U,f) =-0.153E-04 0.104E-04 0.791E-06
CGA:  95    -0.225274357281E+03   -0.58737E-04   -0.59653E-04  5760   0.294E-03-0.409E-05
 gam= 1.007 trial= 0.356  step= 0.298 mean= 0.356
 gam= 0.450 g(H,U,f)=  0.639E-04 0.669E-04 0.132E-05 ort(H,U,f) =-0.502E-04 0.500E-04 0.543E-06
CGA:  96    -0.225274401166E+03   -0.43885E-04   -0.43190E-04  5760   0.132E-03 0.355E-06
 gam= 0.450 trial= 0.353  step= 0.472 mean= 0.353
 gam= 1.159 g(H,U,f)=  0.475E-04 0.104E-03 0.199E-05 ort(H,U,f) =-0.180E-05 0.571E-06 0.150E-05
CGA:  97    -0.225274431426E+03   -0.30260E-04   -0.31207E-04  5760   0.153E-03 0.273E-06
 gam= 1.159 trial= 0.359  step= 0.348 mean= 0.359
 gam= 1.025 g(H,U,f)=  0.496E-04 0.106E-03 0.994E-06 ort(H,U,f) =-0.237E-04 0.180E-04-0.251E-05
CGA:  98    -0.225274458284E+03   -0.26859E-04   -0.26679E-04  5760   0.157E-03-0.816E-05
 gam= 1.025 trial= 0.359  step= 0.345 mean= 0.359
 gam= 0.474 g(H,U,f)=  0.374E-04 0.358E-04 0.124E-05 ort(H,U,f) =-0.372E-04 0.341E-04-0.213E-05
CGA:  99    -0.225274483967E+03   -0.25683E-04   -0.25648E-04  5760   0.744E-04-0.524E-05
 gam= 0.474 trial= 0.358  step= 0.759 mean= 0.358
 gam= 1.384 g(H,U,f)=  0.484E-04 0.540E-04 0.597E-06 ort(H,U,f) =-0.124E-04 0.128E-04-0.214E-06
CGA: 100    -0.225274509748E+03   -0.25781E-04   -0.27319E-04  5760   0.103E-03 0.188E-06
 gam= 1.384 trial= 0.378  step= 0.317 mean= 0.378
 gam= 0.926 g(H,U,f)=  0.371E-04 0.569E-04 0.137E-05 ort(H,U,f) =-0.901E-05 0.108E-04 0.214E-06
CGA: 101    -0.225274526336E+03   -0.16588E-04   -0.16392E-04  5760   0.954E-04 0.199E-05
 gam= 0.926 trial= 0.375  step= 0.329 mean= 0.375
 gam= 0.630 g(H,U,f)=  0.258E-04 0.342E-04 0.162E-06 ort(H,U,f) =-0.122E-04 0.885E-05 0.154E-06
CGA: 102    -0.225274542640E+03   -0.16304E-04   -0.15999E-04  5760   0.601E-04-0.318E-05
 gam= 0.630 trial= 0.373  step= 0.480 mean= 0.373
 gam= 0.755 g(H,U,f)=  0.213E-04 0.236E-04 0.455E-06 ort(H,U,f) =-0.824E-05 0.983E-05-0.617E-06
CGA: 103    -0.225274556725E+03   -0.14085E-04   -0.13946E-04  5760   0.454E-04 0.977E-06
 gam= 0.755 trial= 0.378  step= 0.487 mean= 0.378
 gam= 1.245 g(H,U,f)=  0.166E-04 0.394E-04 0.492E-06 ort(H,U,f) =-0.435E-05 0.870E-05-0.748E-07
CGA: 104    -0.225274567747E+03   -0.11022E-04   -0.11219E-04  5760   0.565E-04 0.428E-05
 gam= 1.245 trial= 0.384  step= 0.285 mean= 0.384
 gam= 0.823 g(H,U,f)=  0.179E-04 0.284E-04 0.150E-06 ort(H,U,f) =-0.103E-04 0.113E-04-0.630E-07
CGA: 105    -0.225274576841E+03   -0.90937E-05   -0.88253E-05  5760   0.465E-04 0.896E-06
 gam= 0.823 trial= 0.379  step= 0.587 mean= 0.379
 gam= 0.000 g(H,U,f)=  0.233E-04 0.246E-04 0.620E-07 ort(H,U,f) =-0.165E-04 0.128E-04 0.123E-06
SDA: 106    -0.225274590126E+03   -0.13285E-04   -0.13869E-04  5760   0.479E-04-0.361E-05
 gam= 0.000 trial= 0.389  step= 0.289 mean= 0.389
 gam= 0.673 g(H,U,f)=  0.930E-05 0.226E-04 0.372E-06 ort(H,U,f) = 0.784E-05-0.594E-05 0.793E-08
CGA: 107    -0.225274597100E+03   -0.69746E-05   -0.69232E-05  5760   0.323E-04 0.191E-05
 gam= 0.673 trial= 0.384  step= 0.257 mean= 0.384
 gam= 0.649 g(H,U,f)=  0.638E-05 0.145E-04 0.710E-07 ort(H,U,f) = 0.171E-05-0.315E-06 0.593E-07
CGA: 108    -0.225274601647E+03   -0.45472E-05   -0.43090E-05  5760   0.210E-04 0.146E-05
 gam= 0.649 trial= 0.378  step= 0.605 mean= 0.378
 gam= 1.027 g(H,U,f)=  0.911E-05 0.121E-04 0.267E-06 ort(H,U,f) =-0.641E-05 0.389E-05-0.189E-06
CGA: 109    -0.225274607797E+03   -0.61500E-05   -0.66226E-05  5760   0.215E-04-0.271E-05
 gam= 1.027 trial= 0.389  step= 0.501 mean= 0.389
 gam= 1.193 g(H,U,f)=  0.103E-04 0.149E-04 0.472E-06 ort(H,U,f) =-0.632E-05 0.546E-05-0.166E-07
CGA: 110    -0.225274612346E+03   -0.45487E-05   -0.46904E-05  5760   0.257E-04-0.874E-06
 gam= 1.193 trial= 0.395  step= 0.294 mean= 0.395
 gam= 0.886 g(H,U,f)=  0.958E-05 0.131E-04 0.397E-07 ort(H,U,f) =-0.428E-05 0.457E-05-0.132E-06
CGA: 111    -0.225274616140E+03   -0.37939E-05   -0.36188E-05  5760   0.227E-04 0.156E-06
 gam= 0.886 trial= 0.390  step= 0.506 mean= 0.390
 gam= 0.775 g(H,U,f)=  0.902E-05 0.825E-05 0.351E-06 ort(H,U,f) =-0.524E-05 0.533E-05-0.291E-06
CGA: 112    -0.225274621913E+03   -0.57729E-05   -0.57886E-05  5760   0.176E-04-0.210E-06
 gam= 0.775 trial= 0.395  step= 0.583 mean= 0.395
 gam= 1.047 g(H,U,f)=  0.693E-05 0.114E-04 0.104E-06 ort(H,U,f) =-0.305E-05 0.347E-05-0.890E-07
CGA: 113    -0.225274626904E+03   -0.49913E-05   -0.50895E-05  5760   0.185E-04 0.326E-06
 gam= 1.047 trial= 0.405  step= 0.278 mean= 0.405
 gam= 1.025 g(H,U,f)=  0.733E-05 0.109E-04 0.661E-06 ort(H,U,f) =-0.122E-05 0.215E-05-0.998E-08
CGA: 114    -0.225274629695E+03   -0.27912E-05   -0.26172E-05  5760   0.189E-04 0.918E-06
 gam= 1.025 trial= 0.398  step= 0.496 mean= 0.398
 gam= 0.709 g(H,U,f)=  0.646E-05 0.692E-05 0.395E-07 ort(H,U,f) =-0.303E-05 0.420E-05 0.144E-06
CGA: 115    -0.225274634696E+03   -0.50002E-05   -0.49256E-05  5760   0.134E-04 0.132E-05
 gam= 0.709 trial= 0.403  step= 0.518 mean= 0.403
 gam= 0.677 g(H,U,f)=  0.475E-05 0.426E-05 0.741E-07 ort(H,U,f) =-0.303E-05 0.440E-05-0.193E-06
CGA: 116    -0.225274638493E+03   -0.37974E-05   -0.37176E-05  5760   0.908E-05 0.118E-05
 gam= 0.677 trial= 0.409  step= 0.519 mean= 0.409
 gam= 1.832 g(H,U,f)=  0.469E-05 0.119E-04 0.695E-07 ort(H,U,f) =-0.982E-06 0.129E-05-0.109E-08
CGA: 117    -0.225274641005E+03   -0.25122E-05   -0.25662E-05  5760   0.166E-04 0.304E-06
 gam= 1.832 trial= 0.415  step= 0.277 mean= 0.415
 gam= 0.754 g(H,U,f)=  0.519E-05 0.733E-05 0.263E-07 ort(H,U,f) =-0.366E-05 0.353E-05-0.578E-07
CGA: 118    -0.225274643494E+03   -0.24890E-05   -0.23851E-05  5760   0.125E-04-0.186E-06
 gam= 0.754 trial= 0.408  step= 0.491 mean= 0.408
 gam= 0.686 g(H,U,f)=  0.470E-05 0.375E-05 0.158E-06 ort(H,U,f) =-0.353E-05 0.253E-05-0.109E-06
CGA: 119    -0.225274646492E+03   -0.29981E-05   -0.30453E-05  5760   0.861E-05-0.111E-05
 gam= 0.686 trial= 0.412  step= 0.479 mean= 0.412
 gam= 1.491 g(H,U,f)=  0.414E-05 0.866E-05 0.451E-07 ort(H,U,f) =-0.514E-06 0.130E-05-0.193E-07
CGA: 120    -0.225274648353E+03   -0.18607E-05   -0.18798E-05  5760   0.128E-04 0.768E-06
 gam= 1.491 trial= 0.415  step= 0.241 mean= 0.415
 gam= 0.597 g(H,U,f)=  0.366E-05 0.395E-05 0.557E-07 ort(H,U,f) =-0.875E-07 0.107E-06-0.330E-07
CGA: 121    -0.225274650112E+03   -0.17588E-05   -0.16840E-05  5760   0.767E-05-0.137E-07
 gam= 0.597 trial= 0.407  step= 0.653 mean= 0.407
 gam= 0.592 g(H,U,f)=  0.265E-05 0.185E-05 0.372E-07 ort(H,U,f) =-0.220E-05 0.122E-05 0.191E-07
CGA: 122    -0.225274652470E+03   -0.23583E-05   -0.24989E-05  5760   0.453E-05-0.966E-06
 gam= 0.592 trial= 0.419  step= 0.586 mean= 0.419
 gam= 0.926 g(H,U,f)=  0.221E-05 0.191E-05 0.813E-07 ort(H,U,f) =-0.587E-06 0.947E-06-0.707E-07
CGA: 123    -0.225274653663E+03   -0.11933E-05   -0.11605E-05  5760   0.420E-05 0.289E-06
 gam= 0.926 trial= 0.427  step= 0.492 mean= 0.427
 gam= 1.272 g(H,U,f)=  0.148E-05 0.381E-05 0.485E-07 ort(H,U,f) =-0.334E-06 0.566E-06 0.926E-08
CGA: 124    -0.225274654770E+03   -0.11067E-05   -0.10983E-05  5760   0.534E-05 0.241E-06
 gam= 1.272 trial= 0.430  step= 0.248 mean= 0.430
 gam= 0.572 g(H,U,f)=  0.139E-05 0.162E-05 0.474E-07 ort(H,U,f) =-0.805E-06 0.135E-05-0.548E-07
CGA: 125    -0.225274655560E+03   -0.78986E-06   -0.70105E-06  5760   0.306E-05 0.489E-06
 gam= 0.572 trial= 0.421  step= 0.602 mean= 0.421
 gam= 1.395 g(H,U,f)=  0.178E-05 0.246E-05 0.244E-07 ort(H,U,f) =-0.993E-06 0.578E-06 0.484E-08
CGA: 126    -0.225274656516E+03   -0.95636E-06   -0.10047E-05  5760   0.426E-05-0.410E-06
 gam= 1.395 trial= 0.430  step= 0.382 mean= 0.430
 final diagonalization
   1 F= -.23489735E+03 E0= -.23489476E+03  d E =-.518246E-02  mag=     6.0000
