       N       E                     dE             d eps       ncg     rms          ort
DAV:   1     0.349414883225E+04    0.34941E+04   -0.13936E+05  5760   0.220E+03
DAV:   2     0.407548580854E+03   -0.30866E+04   -0.28469E+04  5760   0.537E+02
DAV:   3    -0.220335195080E+03   -0.62788E+03   -0.57072E+03  5760   0.254E+02
DAV:   4    -0.271311679749E+03   -0.50976E+02   -0.49843E+02  5760   0.745E+01
DAV:   5    -0.273026214171E+03   -0.17145E+01   -0.17117E+01  5760   0.136E+01
SDA:   6     0.113849619251E+03    0.38688E+03   -0.17117E+01  5760   0.757E+04 0.000E+00
CGA:   7    -0.138811962454E+02   -0.12773E+03   -0.38229E+03  5760   0.576E+04-0.102E+04
CGA:   8    -0.163574381770E+03   -0.14969E+03   -0.25144E+03  5760   0.314E+04 0.980E+03
CGA:   9    -0.147123921058E+03    0.16450E+02   -0.96851E+02  5760   0.329E+04-0.204E+04
CGA:  10    -0.188619867097E+03   -0.41496E+02   -0.71484E+02  5760   0.871E+03-0.114E+04
CGA:  11    -0.189785748627E+03   -0.11659E+01   -0.37307E+02  5760   0.369E+03-0.135E+03
CGA:  12    -0.204686407124E+03   -0.14901E+02   -0.43011E+01  5760   0.422E+03 0.678E+03
CGA:  13    -0.205641645815E+03   -0.95524E+00   -0.13319E+02  5760   0.457E+03-0.329E+03
CGA:  14    -0.194347765750E+03    0.11294E+02   -0.24849E+02  5760   0.338E+03-0.107E+03
CGA:  15    -0.212747155490E+03   -0.18399E+02   -0.78828E+01  5760   0.127E+03 0.754E+02
CGA:  16    -0.214644694051E+03   -0.18975E+01   -0.28020E+01  5760   0.562E+02-0.446E+02
CGA:  17    -0.215826401395E+03   -0.11817E+01   -0.15639E+01  5760   0.463E+02-0.448E+01
CGA:  18    -0.217603356223E+03   -0.17770E+01   -0.25046E+01  5760   0.415E+02-0.537E+00
CGA:  19    -0.218860315141E+03   -0.12570E+01   -0.14434E+01  5760   0.298E+02-0.533E+01
CGA:  20    -0.219926311716E+03   -0.10660E+01   -0.99744E+00  5760   0.144E+02 0.113E+00
CGA:  21    -0.220397255133E+03   -0.47094E+00   -0.64579E+00  5760   0.635E+01-0.232E+01
CGA:  22    -0.220786290155E+03   -0.38904E+00   -0.37528E+00  5760   0.281E+01-0.282E-02
CGA:  23    -0.221006486981E+03   -0.22020E+00   -0.21812E+00  5760   0.192E+01-0.218E-01
CGA:  24    -0.221144612374E+03   -0.13813E+00   -0.14540E+00  5760   0.164E+01 0.148E-01
CGA:  25    -0.221287061464E+03   -0.14245E+00   -0.14213E+00  5760   0.110E+01-0.927E-02
CGA:  26    -0.221401132127E+03   -0.11407E+00   -0.11433E+00  5760   0.846E+00 0.492E-01
CGA:  27    -0.221547254587E+03   -0.14612E+00   -0.15034E+00  5760   0.159E+01-0.584E-01
CGA:  28    -0.221750572394E+03   -0.20332E+00   -0.20435E+00  5760   0.184E+01-0.401E-01
CGA:  29    -0.221934320691E+03   -0.18375E+00   -0.18521E+00  5760   0.170E+01 0.776E-01
CGA:  30    -0.222166762066E+03   -0.23244E+00   -0.23051E+00  5760   0.162E+01 0.612E-01
CGA:  31    -0.222337473740E+03   -0.17071E+00   -0.16853E+00  5760   0.160E+01-0.737E-01
CGA:  32    -0.222505495466E+03   -0.16802E+00   -0.16781E+00  5760   0.115E+01-0.583E-01
CGA:  33    -0.222599209053E+03   -0.93714E-01   -0.91704E-01  5760   0.108E+01-0.147E-01
CGA:  34    -0.222708858532E+03   -0.10965E+00   -0.10886E+00  5760   0.149E+01-0.111E+00
CGA:  35    -0.222829412159E+03   -0.12055E+00   -0.12320E+00  5760   0.130E+01 0.674E+00
CGA:  36    -0.222898381738E+03   -0.68970E-01   -0.10278E+00  5760   0.101E+01 0.392E+00
CGA:  37    -0.222986863779E+03   -0.88482E-01   -0.99643E-01  5760   0.943E+00-0.531E+00
CGA:  38    -0.223044219852E+03   -0.57356E-01   -0.72565E-01  5760   0.401E+00 0.462E-01
CGA:  39    -0.223185341147E+03   -0.14112E+00   -0.12207E+00  5760   0.496E+00 0.648E-01
CGA:  40    -0.223242927320E+03   -0.57586E-01   -0.57238E-01  5760   0.109E+01-0.174E-02
CGA:  41    -0.223305979498E+03   -0.63052E-01   -0.52033E-01  5760   0.912E+00 0.291E+00
CGA:  42    -0.223366648029E+03   -0.60669E-01   -0.60004E-01  5760   0.578E+00 0.258E+00
CGA:  43    -0.223423399308E+03   -0.56751E-01   -0.57189E-01  5760   0.723E+00 0.179E+00
CGA:  44    -0.223462262453E+03   -0.38863E-01   -0.49375E-01  5760   0.655E+00 0.116E+00
CGA:  45    -0.223500045763E+03   -0.37783E-01   -0.42498E-01  5760   0.395E+00-0.102E-01
CGA:  46    -0.223532479763E+03   -0.32434E-01   -0.32711E-01  5760   0.475E+00 0.113E-01
CGA:  47    -0.223575463091E+03   -0.42983E-01   -0.42896E-01  5760   0.299E+00-0.720E-02
CGA:  48    -0.223597910472E+03   -0.22447E-01   -0.22139E-01  5760   0.270E+00 0.427E-02
CGA:  49    -0.223629744924E+03   -0.31834E-01   -0.31837E-01  5760   0.227E+00-0.226E-02
CGA:  50    -0.223644870393E+03   -0.15125E-01   -0.14945E-01  5760   0.118E+00-0.460E-02
CGA:  51    -0.223664130792E+03   -0.19260E-01   -0.18803E-01  5760   0.183E+00 0.991E-02
CGA:  52    -0.223683766318E+03   -0.19636E-01   -0.19634E-01  5760   0.964E-01-0.213E-02
CGA:  53    -0.223696956227E+03   -0.13190E-01   -0.13241E-01  5760   0.105E+00-0.812E-03
CGA:  54    -0.223707450645E+03   -0.10494E-01   -0.10497E-01  5760   0.698E-01 0.113E-02
CGA:  55    -0.223718362029E+03   -0.10911E-01   -0.10818E-01  5760   0.721E-01 0.171E-02
CGA:  56    -0.223725293147E+03   -0.69311E-02   -0.68806E-02  5760   0.336E-01-0.161E-02
CGA:  57    -0.223730911629E+03   -0.56185E-02   -0.56092E-02  5760   0.391E-01 0.417E-03
CGA:  58    -0.223734927726E+03   -0.40161E-02   -0.40155E-02  5760   0.228E-01 0.190E-03
CGA:  59    -0.223738755994E+03   -0.38283E-02   -0.38201E-02  5760   0.191E-01 0.165E-03
CGA:  60    -0.223740897662E+03   -0.21417E-02   -0.21433E-02  5760   0.157E-01-0.202E-03
CGA:  61    -0.223743495841E+03   -0.25982E-02   -0.26020E-02  5760   0.134E-01-0.504E-04
CGA:  62    -0.223745231325E+03   -0.17355E-02   -0.17393E-02  5760   0.139E-01 0.124E-03
CGA:  63    -0.223747336998E+03   -0.21057E-02   -0.21197E-02  5760   0.925E-02-0.332E-03
CGA:  64    -0.223748868206E+03   -0.15312E-02   -0.15547E-02  5760   0.137E-01-0.158E-03
CGA:  65    -0.223750687580E+03   -0.18194E-02   -0.18227E-02  5760   0.885E-02-0.133E-03
CGA:  66    -0.223752184931E+03   -0.14974E-02   -0.14943E-02  5760   0.110E-01 0.124E-03
CGA:  67    -0.223753679261E+03   -0.14943E-02   -0.15008E-02  5760   0.980E-02-0.210E-03
SDA:  68    -0.223755740142E+03   -0.20609E-02   -0.20520E-02  5760   0.127E-01 0.152E-03
CGA:  69    -0.223757343037E+03   -0.16029E-02   -0.16026E-02  5760   0.977E-02 0.189E-03
CGA:  70    -0.223759328322E+03   -0.19853E-02   -0.20362E-02  5760   0.686E-02-0.357E-03
CGA:  71    -0.223760914230E+03   -0.15859E-02   -0.16142E-02  5760   0.312E-02-0.125E-03
CGA:  72    -0.223761802278E+03   -0.88805E-03   -0.90123E-03  5760   0.455E-02-0.209E-04
CGA:  73    -0.223762531035E+03   -0.72876E-03   -0.73197E-03  5760   0.382E-02-0.191E-04
CGA:  74    -0.223763581136E+03   -0.10501E-02   -0.10642E-02  5760   0.359E-02-0.717E-04
CGA:  75    -0.223764610692E+03   -0.10296E-02   -0.10355E-02  5760   0.357E-02-0.519E-05
CGA:  76    -0.223765476529E+03   -0.86584E-03   -0.88180E-03  5760   0.693E-02-0.505E-04
CGA:  77    -0.223767226413E+03   -0.17499E-02   -0.17799E-02  5760   0.610E-02-0.165E-03
CGA:  78    -0.223769118733E+03   -0.18923E-02   -0.19256E-02  5760   0.764E-02-0.118E-03
CGA:  79    -0.223771796610E+03   -0.26779E-02   -0.27141E-02  5760   0.161E-01 0.149E-03
CGA:  80    -0.223774472008E+03   -0.26754E-02   -0.26381E-02  5760   0.103E-01-0.423E-03
CGA:  81    -0.223777436736E+03   -0.29647E-02   -0.29536E-02  5760   0.758E-02 0.332E-04
CGA:  82    -0.223779698476E+03   -0.22617E-02   -0.23102E-02  5760   0.110E-01-0.355E-04
CGA:  83    -0.223781169063E+03   -0.14706E-02   -0.14576E-02  5760   0.560E-02 0.447E-04
CGA:  84    -0.223782919699E+03   -0.17506E-02   -0.17793E-02  5760   0.497E-02-0.123E-03
CGA:  85    -0.223784466854E+03   -0.15472E-02   -0.15413E-02  5760   0.511E-02 0.322E-04
CGA:  86    -0.223785366995E+03   -0.90014E-03   -0.89342E-03  5760   0.520E-02 0.125E-03
CGA:  87    -0.223786454506E+03   -0.10875E-02   -0.10880E-02  5760   0.271E-02-0.113E-03
CGA:  88    -0.223787233318E+03   -0.77881E-03   -0.78186E-03  5760   0.339E-02-0.857E-05
CGA:  89    -0.223787869873E+03   -0.63656E-03   -0.63276E-03  5760   0.270E-02 0.705E-04
CGA:  90    -0.223788390888E+03   -0.52102E-03   -0.51721E-03  5760   0.188E-02-0.642E-04
CGA:  91    -0.223788899552E+03   -0.50866E-03   -0.50967E-03  5760   0.187E-02-0.832E-05
CGA:  92    -0.223789311023E+03   -0.41147E-03   -0.41407E-03  5760   0.227E-02 0.310E-04
CGA:  93    -0.223789771250E+03   -0.46023E-03   -0.45900E-03  5760   0.140E-02-0.242E-04
CGA:  94    -0.223790188634E+03   -0.41738E-03   -0.42790E-03  5760   0.225E-02-0.214E-04
CGA:  95    -0.223790657702E+03   -0.46907E-03   -0.46889E-03  5760   0.215E-02 0.952E-05
CGA:  96    -0.223791141202E+03   -0.48350E-03   -0.48617E-03  5760   0.167E-02-0.149E-04
CGA:  97    -0.223791576489E+03   -0.43529E-03   -0.44051E-03  5760   0.253E-02 0.668E-05
CGA:  98    -0.223792139548E+03   -0.56306E-03   -0.56414E-03  5760   0.229E-02-0.404E-04
SDA:  99    -0.223792663735E+03   -0.52419E-03   -0.52508E-03  5760   0.210E-02 0.173E-05
CGA: 100    -0.223792940715E+03   -0.27698E-03   -0.26359E-03  5760   0.164E-02 0.108E-03
CGA: 101    -0.223793359480E+03   -0.41876E-03   -0.42109E-03  5760   0.166E-02-0.240E-04
CGA: 102    -0.223793803782E+03   -0.44430E-03   -0.44842E-03  5760   0.113E-02-0.346E-04
CGA: 103    -0.223794231956E+03   -0.42817E-03   -0.43468E-03  5760   0.144E-02-0.243E-04
CGA: 104    -0.223794704223E+03   -0.47227E-03   -0.47349E-03  5760   0.110E-02-0.202E-05
CGA: 105    -0.223794957887E+03   -0.25366E-03   -0.25361E-03  5760   0.154E-02 0.300E-04
CGA: 106    -0.223795224979E+03   -0.26709E-03   -0.26005E-03  5760   0.980E-03 0.487E-05
CGA: 107    -0.223795578338E+03   -0.35336E-03   -0.35769E-03  5760   0.751E-03-0.691E-05
CGA: 108    -0.223795790612E+03   -0.21227E-03   -0.21449E-03  5760   0.116E-02 0.758E-05
CGA: 109    -0.223795990696E+03   -0.20008E-03   -0.19783E-03  5760   0.951E-03 0.153E-04
CGA: 110    -0.223796285406E+03   -0.29471E-03   -0.30165E-03  5760   0.900E-03-0.355E-04
CGA: 111    -0.223796525839E+03   -0.24043E-03   -0.24036E-03  5760   0.995E-03 0.224E-05
CGA: 112    -0.223796747105E+03   -0.22127E-03   -0.22053E-03  5760   0.128E-02 0.178E-04
CGA: 113    -0.223797018795E+03   -0.27169E-03   -0.27000E-03  5760   0.933E-03-0.888E-05
CGA: 114    -0.223797278728E+03   -0.25993E-03   -0.26210E-03  5760   0.834E-03-0.196E-04
CGA: 115    -0.223797470908E+03   -0.19218E-03   -0.19209E-03  5760   0.118E-02-0.245E-05
CGA: 116    -0.223797701598E+03   -0.23069E-03   -0.22898E-03  5760   0.671E-03 0.489E-05
CGA: 117    -0.223797892560E+03   -0.19096E-03   -0.19232E-03  5760   0.635E-03-0.176E-06
CGA: 118    -0.223798027230E+03   -0.13467E-03   -0.13206E-03  5760   0.742E-03 0.568E-05
CGA: 119    -0.223798156942E+03   -0.12971E-03   -0.12985E-03  5760   0.351E-03 0.275E-05
CGA: 120    -0.223798237772E+03   -0.80830E-04   -0.80808E-04  5760   0.231E-03 0.171E-05
CGA: 121    -0.223798314656E+03   -0.76883E-04   -0.76397E-04  5760   0.156E-03 0.430E-05
CGA: 122    -0.223798348043E+03   -0.33387E-04   -0.33324E-04  5760   0.132E-03 0.672E-05
CGA: 123    -0.223798370510E+03   -0.22467E-04   -0.21875E-04  5760   0.123E-03 0.433E-05
CGA: 124    -0.223798414649E+03   -0.44139E-04   -0.45107E-04  5760   0.786E-04-0.463E-05
CGA: 125    -0.223798440863E+03   -0.26215E-04   -0.26432E-04  5760   0.140E-03-0.166E-05
CGA: 126    -0.223798471541E+03   -0.30678E-04   -0.30404E-04  5760   0.164E-03 0.353E-05
CGA: 127    -0.223798507920E+03   -0.36379E-04   -0.35933E-04  5760   0.159E-03-0.228E-05
CGA: 128    -0.223798565614E+03   -0.57694E-04   -0.59422E-04  5760   0.241E-03-0.570E-05
CGA: 129    -0.223798628246E+03   -0.62631E-04   -0.62962E-04  5760   0.397E-03 0.858E-06
SDA: 130    -0.223798726774E+03   -0.98528E-04   -0.98382E-04  5760   0.513E-03-0.227E-05
CGA: 131    -0.223798788158E+03   -0.61384E-04   -0.57808E-04  5760   0.278E-03 0.310E-04
CGA: 132    -0.223798845599E+03   -0.57441E-04   -0.56898E-04  5760   0.214E-03 0.168E-05
CGA: 133    -0.223798913391E+03   -0.67792E-04   -0.68097E-04  5760   0.122E-03-0.528E-06
CGA: 134    -0.223798952136E+03   -0.38745E-04   -0.38613E-04  5760   0.110E-03 0.243E-05
CGA: 135    -0.223798991158E+03   -0.39022E-04   -0.38954E-04  5760   0.978E-04 0.202E-05
CGA: 136    -0.223799025568E+03   -0.34411E-04   -0.34687E-04  5760   0.153E-03 0.687E-06
CGA: 137    -0.223799048769E+03   -0.23201E-04   -0.21914E-04  5760   0.109E-03 0.508E-05
CGA: 138    -0.223799084025E+03   -0.35256E-04   -0.35704E-04  5760   0.110E-03-0.407E-05
CGA: 139    -0.223799134177E+03   -0.50152E-04   -0.51036E-04  5760   0.138E-03-0.378E-05
CGA: 140    -0.223799182825E+03   -0.48648E-04   -0.48923E-04  5760   0.258E-03-0.709E-06
CGA: 141    -0.223799228751E+03   -0.45926E-04   -0.43515E-04  5760   0.240E-03 0.140E-04
CGA: 142    -0.223799313968E+03   -0.85217E-04   -0.86145E-04  5760   0.252E-03-0.396E-05
CGA: 143    -0.223799404256E+03   -0.90288E-04   -0.91417E-04  5760   0.441E-03 0.210E-05
CGA: 144    -0.223799483924E+03   -0.79668E-04   -0.77266E-04  5760   0.421E-03 0.138E-04
CGA: 145    -0.223799646837E+03   -0.16291E-03   -0.16771E-03  5760   0.530E-03-0.109E-04
CGA: 146    -0.223799790583E+03   -0.14375E-03   -0.14380E-03  5760   0.857E-03 0.814E-05
CGA: 147    -0.223799991281E+03   -0.20070E-03   -0.19680E-03  5760   0.100E-02 0.129E-04
CGA: 148    -0.223800340482E+03   -0.34920E-03   -0.35332E-03  5760   0.137E-02-0.260E-04
CGA: 149    -0.223800702776E+03   -0.36229E-03   -0.36110E-03  5760   0.223E-02 0.283E-06
CGA: 150    -0.223801113652E+03   -0.41088E-03   -0.39524E-03  5760   0.159E-02 0.148E-04
CGA: 151    -0.223801629035E+03   -0.51538E-03   -0.52730E-03  5760   0.206E-02-0.143E-03
CGA: 152    -0.223802005826E+03   -0.37679E-03   -0.36522E-03  5760   0.216E-02 0.652E-04
CGA: 153    -0.223802362116E+03   -0.35629E-03   -0.34169E-03  5760   0.191E-02 0.231E-04
CGA: 154    -0.223802776506E+03   -0.41439E-03   -0.41091E-03  5760   0.234E-02-0.126E-04
CGA: 155    -0.223803142216E+03   -0.36571E-03   -0.35705E-03  5760   0.238E-02 0.428E-04
CGA: 156    -0.223803513278E+03   -0.37106E-03   -0.36560E-03  5760   0.189E-02 0.101E-04
CGA: 157    -0.223803810511E+03   -0.29723E-03   -0.29567E-03  5760   0.185E-02 0.137E-04
CGA: 158    -0.223804081425E+03   -0.27091E-03   -0.26695E-03  5760   0.162E-02 0.140E-04
CGA: 159    -0.223804366596E+03   -0.28517E-03   -0.28512E-03  5760   0.147E-02 0.591E-05
CGA: 160    -0.223804559511E+03   -0.19291E-03   -0.19083E-03  5760   0.112E-02 0.207E-04
SDA: 161    -0.223804739981E+03   -0.18047E-03   -0.18064E-03  5760   0.979E-03-0.217E-05
CGA: 162    -0.223805156513E+03   -0.41653E-03   -0.41998E-03  5760   0.168E-02 0.207E-05
CGA: 163    -0.223805678214E+03   -0.52170E-03   -0.52750E-03  5760   0.340E-02 0.212E-04
CGA: 164    -0.223806253940E+03   -0.57573E-03   -0.55729E-03  5760   0.174E-02 0.331E-04
CGA: 165    -0.223806910723E+03   -0.65678E-03   -0.67190E-03  5760   0.154E-02-0.541E-04
CGA: 166    -0.223807458649E+03   -0.54793E-03   -0.55438E-03  5760   0.165E-02 0.426E-05
CGA: 167    -0.223807764289E+03   -0.30564E-03   -0.29200E-03  5760   0.213E-02 0.717E-04
CGA: 168    -0.223808484838E+03   -0.72055E-03   -0.72061E-03  5760   0.223E-02 0.412E-05
CGA: 169    -0.223809296289E+03   -0.81145E-03   -0.81484E-03  5760   0.237E-02-0.237E-04
CGA: 170    -0.223810080273E+03   -0.78398E-03   -0.78558E-03  5760   0.186E-02 0.125E-04
CGA: 171    -0.223810701088E+03   -0.62081E-03   -0.62344E-03  5760   0.152E-02-0.167E-05
CGA: 172    -0.223810967847E+03   -0.26676E-03   -0.25882E-03  5760   0.148E-02 0.575E-04
CGA: 173    -0.223811270049E+03   -0.30220E-03   -0.29689E-03  5760   0.877E-03-0.477E-05
CGA: 174    -0.223811586000E+03   -0.31595E-03   -0.32031E-03  5760   0.666E-03-0.153E-04
CGA: 175    -0.223811820534E+03   -0.23453E-03   -0.23702E-03  5760   0.880E-03 0.667E-05
CGA: 176    -0.223811959780E+03   -0.13925E-03   -0.13026E-03  5760   0.671E-03 0.367E-04
CGA: 177    -0.223812138731E+03   -0.17895E-03   -0.17884E-03  5760   0.424E-03-0.723E-05
CGA: 178    -0.223812263367E+03   -0.12464E-03   -0.12472E-03  5760   0.211E-03 0.124E-05
CGA: 179    -0.223812356323E+03   -0.92956E-04   -0.92940E-04  5760   0.151E-03 0.725E-06
CGA: 180    -0.223812389165E+03   -0.32841E-04   -0.32667E-04  5760   0.156E-03 0.527E-05
CGA: 181    -0.223812415835E+03   -0.26671E-04   -0.25373E-04  5760   0.106E-03 0.550E-05
CGA: 182    -0.223812451715E+03   -0.35880E-04   -0.36397E-04  5760   0.801E-04-0.325E-05
CGA: 183    -0.223812471941E+03   -0.20226E-04   -0.20196E-04  5760   0.845E-04-0.399E-06
CGA: 184    -0.223812491197E+03   -0.19256E-04   -0.18907E-04  5760   0.106E-03 0.157E-05
CGA: 185    -0.223812513023E+03   -0.21826E-04   -0.21513E-04  5760   0.668E-04-0.488E-06
CGA: 186    -0.223812540484E+03   -0.27460E-04   -0.27741E-04  5760   0.802E-04-0.246E-06
CGA: 187    -0.223812559980E+03   -0.19496E-04   -0.19385E-04  5760   0.103E-03 0.179E-05
CGA: 188    -0.223812581472E+03   -0.21492E-04   -0.20849E-04  5760   0.103E-03 0.185E-05
CGA: 189    -0.223812625392E+03   -0.43920E-04   -0.45048E-04  5760   0.130E-03-0.225E-05
CGA: 190    -0.223812659218E+03   -0.33825E-04   -0.33771E-04  5760   0.163E-03 0.219E-05
CGA: 191    -0.223812689425E+03   -0.30207E-04   -0.29113E-04  5760   0.132E-03 0.338E-05
SDA: 192    -0.223812736883E+03   -0.47459E-04   -0.48281E-04  5760   0.124E-03-0.319E-05
CGA: 193    -0.223812753934E+03   -0.17051E-04   -0.16273E-04  5760   0.735E-04 0.735E-05
CGA: 194    -0.223812768330E+03   -0.14396E-04   -0.13706E-04  5760   0.504E-04-0.722E-08
CGA: 195    -0.223812782400E+03   -0.14070E-04   -0.14088E-04  5760   0.372E-04-0.832E-06
CGA: 196    -0.223812794378E+03   -0.11978E-04   -0.12120E-04  5760   0.350E-04-0.603E-06
CGA: 197    -0.223812800813E+03   -0.64344E-05   -0.63478E-05  5760   0.349E-04 0.459E-06
CGA: 198    -0.223812809447E+03   -0.86339E-05   -0.85479E-05  5760   0.370E-04 0.206E-06
CGA: 199    -0.223812819311E+03   -0.98646E-05   -0.98734E-05  5760   0.257E-04-0.506E-06
CGA: 200    -0.223812826261E+03   -0.69492E-05   -0.69693E-05  5760   0.399E-04 0.973E-06
CGA: 201    -0.223812834011E+03   -0.77501E-05   -0.75739E-05  5760   0.231E-04 0.563E-06
CGA: 202    -0.223812840099E+03   -0.60879E-05   -0.60909E-05  5760   0.208E-04 0.353E-06
CGA: 203    -0.223812845614E+03   -0.55152E-05   -0.55221E-05  5760   0.301E-04 0.531E-06
CGA: 204    -0.223812851870E+03   -0.62562E-05   -0.61559E-05  5760   0.200E-04 0.454E-06
CGA: 205    -0.223812857666E+03   -0.57958E-05   -0.58459E-05  5760   0.257E-04-0.572E-07
CGA: 206    -0.223812864633E+03   -0.69675E-05   -0.69885E-05  5760   0.347E-04-0.244E-06
CGA: 207    -0.223812872336E+03   -0.77024E-05   -0.75559E-05  5760   0.324E-04-0.607E-07
CGA: 208    -0.223812881609E+03   -0.92727E-05   -0.93558E-05  5760   0.414E-04-0.248E-06
CGA: 209    -0.223812892980E+03   -0.11371E-04   -0.11473E-04  5760   0.545E-04 0.183E-06
CGA: 210    -0.223812903045E+03   -0.10065E-04   -0.99114E-05  5760   0.390E-04 0.183E-06
CGA: 211    -0.223812917888E+03   -0.14843E-04   -0.15195E-04  5760   0.506E-04-0.569E-06
CGA: 212    -0.223812928009E+03   -0.10121E-04   -0.98958E-05  5760   0.469E-04 0.196E-05
CGA: 213    -0.223812937640E+03   -0.96313E-05   -0.95503E-05  5760   0.364E-04 0.118E-05
CGA: 214    -0.223812949184E+03   -0.11544E-04   -0.11608E-04  5760   0.370E-04 0.134E-06
CGA: 215    -0.223812957937E+03   -0.87524E-05   -0.87098E-05  5760   0.382E-04 0.610E-07
CGA: 216    -0.223812965777E+03   -0.78404E-05   -0.77433E-05  5760   0.354E-04 0.947E-06
CGA: 217    -0.223812974301E+03   -0.85244E-05   -0.84749E-05  5760   0.271E-04 0.367E-06
CGA: 218    -0.223812982570E+03   -0.82687E-05   -0.83513E-05  5760   0.333E-04-0.293E-06
CGA: 219    -0.223812989128E+03   -0.65573E-05   -0.63118E-05  5760   0.342E-04-0.477E-07
CGA: 220    -0.223812997861E+03   -0.87336E-05   -0.87397E-05  5760   0.257E-04-0.877E-06
CGA: 221    -0.223813006258E+03   -0.83966E-05   -0.84403E-05  5760   0.347E-04 0.111E-05
CGA: 222    -0.223813013640E+03   -0.73823E-05   -0.71751E-05  5760   0.337E-04 0.762E-06
SDA: 223    -0.223813021462E+03   -0.78224E-05   -0.77539E-05  5760   0.314E-04-0.103E-05
CGA: 224    -0.223813025578E+03   -0.41159E-05   -0.40189E-05  5760   0.187E-04 0.153E-05
CGA: 225    -0.223813029627E+03   -0.40482E-05   -0.40016E-05  5760   0.165E-04 0.448E-06
CGA: 226    -0.223813034363E+03   -0.47370E-05   -0.47944E-05  5760   0.144E-04-0.537E-06
CGA: 227    -0.223813038862E+03   -0.44988E-05   -0.45379E-05  5760   0.148E-04-0.203E-06
CGA: 228    -0.223813042291E+03   -0.34284E-05   -0.34158E-05  5760   0.212E-04 0.917E-06
CGA: 229    -0.223813046777E+03   -0.44868E-05   -0.44718E-05  5760   0.129E-04 0.455E-06
CGA: 230    -0.223813051935E+03   -0.51571E-05   -0.53439E-05  5760   0.184E-04-0.595E-06
CGA: 231    -0.223813056391E+03   -0.44568E-05   -0.44564E-05  5760   0.273E-04 0.108E-06
CGA: 232    -0.223813062121E+03   -0.57297E-05   -0.56103E-05  5760   0.205E-04-0.245E-07
CGA: 233    -0.223813068327E+03   -0.62056E-05   -0.62528E-05  5760   0.214E-04-0.321E-06
CGA: 234    -0.223813073521E+03   -0.51942E-05   -0.51841E-05  5760   0.262E-04-0.189E-06
CGA: 235    -0.223813079577E+03   -0.60560E-05   -0.59904E-05  5760   0.276E-04 0.739E-07
CGA: 236    -0.223813086022E+03   -0.64450E-05   -0.63875E-05  5760   0.223E-04-0.213E-06
CGA: 237    -0.223813092159E+03   -0.61371E-05   -0.61505E-05  5760   0.267E-04 0.311E-06
CGA: 238    -0.223813097779E+03   -0.56201E-05   -0.55156E-05  5760   0.243E-04 0.430E-06
CGA: 239    -0.223813103742E+03   -0.59632E-05   -0.59470E-05  5760   0.191E-04-0.250E-06
CGA: 240    -0.223813108553E+03   -0.48109E-05   -0.48184E-05  5760   0.256E-04 0.646E-06
CGA: 241    -0.223813113934E+03   -0.53811E-05   -0.53563E-05  5760   0.155E-04 0.549E-06
CGA: 242    -0.223813118093E+03   -0.41586E-05   -0.41792E-05  5760   0.204E-04 0.683E-07
CGA: 243    -0.223813123151E+03   -0.50576E-05   -0.50551E-05  5760   0.208E-04-0.304E-06
CGA: 244    -0.223813127656E+03   -0.45052E-05   -0.44653E-05  5760   0.188E-04 0.534E-06
CGA: 245    -0.223813132885E+03   -0.52291E-05   -0.52785E-05  5760   0.231E-04 0.904E-07
CGA: 246    -0.223813139184E+03   -0.62987E-05   -0.63447E-05  5760   0.329E-04-0.326E-06
CGA: 247    -0.223813146001E+03   -0.68177E-05   -0.67112E-05  5760   0.242E-04-0.627E-06
CGA: 248    -0.223813154815E+03   -0.88140E-05   -0.89269E-05  5760   0.365E-04 0.254E-06
CGA: 249    -0.223813162641E+03   -0.78254E-05   -0.75682E-05  5760   0.425E-04 0.139E-05
CGA: 250    -0.223813174109E+03   -0.11468E-04   -0.11462E-04  5760   0.406E-04 0.745E-06
CGA: 251    -0.223813187931E+03   -0.13823E-04   -0.14016E-04  5760   0.575E-04-0.638E-07
CGA: 252    -0.223813205366E+03   -0.17435E-04   -0.17541E-04  5760   0.107E-03 0.445E-06
CGA: 253    -0.223813233271E+03   -0.27905E-04   -0.27919E-04  5760   0.148E-03 0.121E-05
SDA: 254    -0.223813284330E+03   -0.51059E-04   -0.52119E-04  5760   0.270E-03-0.706E-05
CGA: 255    -0.223813325259E+03   -0.40929E-04   -0.39344E-04  5760   0.185E-03 0.124E-04
CGA: 256    -0.223813360868E+03   -0.35609E-04   -0.34040E-04  5760   0.143E-03-0.784E-06
CGA: 257    -0.223813396417E+03   -0.35548E-04   -0.35553E-04  5760   0.741E-04 0.130E-05
CGA: 258    -0.223813422683E+03   -0.26267E-04   -0.26336E-04  5760   0.683E-04 0.158E-06
CGA: 259    -0.223813445848E+03   -0.23165E-04   -0.23304E-04  5760   0.745E-04-0.211E-05
CGA: 260    -0.223813463295E+03   -0.17447E-04   -0.17395E-04  5760   0.830E-04 0.299E-05
CGA: 261    -0.223813476728E+03   -0.13433E-04   -0.12786E-04  5760   0.495E-04 0.291E-05
CGA: 262    -0.223813497366E+03   -0.20638E-04   -0.20891E-04  5760   0.540E-04 0.162E-06
CGA: 263    -0.223813513812E+03   -0.16445E-04   -0.16615E-04  5760   0.630E-04-0.139E-05
CGA: 264    -0.223813523505E+03   -0.96933E-05   -0.92258E-05  5760   0.504E-04 0.209E-05
CGA: 265    -0.223813541319E+03   -0.17814E-04   -0.17916E-04  5760   0.465E-04 0.419E-06
CGA: 266    -0.223813557028E+03   -0.15710E-04   -0.15755E-04  5760   0.426E-04-0.625E-06
CGA: 267    -0.223813569165E+03   -0.12136E-04   -0.12246E-04  5760   0.893E-04 0.119E-05
CGA: 268    -0.223813587844E+03   -0.18679E-04   -0.18381E-04  5760   0.621E-04-0.612E-06
CGA: 269    -0.223813608258E+03   -0.20414E-04   -0.20427E-04  5760   0.645E-04 0.150E-05
CGA: 270    -0.223813635815E+03   -0.27558E-04   -0.27804E-04  5760   0.118E-03-0.142E-05
CGA: 271    -0.223813659688E+03   -0.23873E-04   -0.23303E-04  5760   0.131E-03 0.407E-05
CGA: 272    -0.223813691956E+03   -0.32268E-04   -0.31936E-04  5760   0.125E-03 0.192E-06
CGA: 273    -0.223813733867E+03   -0.41910E-04   -0.42237E-04  5760   0.143E-03 0.124E-05
CGA: 274    -0.223813775962E+03   -0.42095E-04   -0.42241E-04  5760   0.243E-03 0.123E-05
CGA: 275    -0.223813825089E+03   -0.49127E-04   -0.47811E-04  5760   0.208E-03 0.120E-05
CGA: 276    -0.223813905896E+03   -0.80807E-04   -0.81498E-04  5760   0.254E-03-0.379E-07
CGA: 277    -0.223813983130E+03   -0.77233E-04   -0.77814E-04  5760   0.426E-03 0.559E-05
CGA: 278    -0.223814062248E+03   -0.79118E-04   -0.76503E-04  5760   0.321E-03 0.388E-05
CGA: 279    -0.223814162643E+03   -0.10040E-03   -0.10151E-03  5760   0.327E-03-0.159E-04
CGA: 280    -0.223814254120E+03   -0.91477E-04   -0.91709E-04  5760   0.246E-03-0.739E-05
CGA: 281    -0.223814305715E+03   -0.51595E-04   -0.51207E-04  5760   0.219E-03 0.364E-05
CGA: 282    -0.223814352621E+03   -0.46906E-04   -0.45979E-04  5760   0.223E-03 0.192E-05
CGA: 283    -0.223814395969E+03   -0.43348E-04   -0.42290E-04  5760   0.137E-03-0.288E-05
CGA: 284    -0.223814448812E+03   -0.52844E-04   -0.53289E-04  5760   0.238E-03-0.278E-05
SDA: 285    -0.223814508350E+03   -0.59537E-04   -0.59431E-04  5760   0.190E-03-0.257E-05
CGA: 286    -0.223814560814E+03   -0.52464E-04   -0.52509E-04  5760   0.272E-03 0.304E-05
CGA: 287    -0.223814608681E+03   -0.47867E-04   -0.46390E-04  5760   0.243E-03 0.580E-05
CGA: 288    -0.223814687601E+03   -0.78920E-04   -0.79331E-04  5760   0.273E-03-0.240E-06
CGA: 289    -0.223814788795E+03   -0.10119E-03   -0.10145E-03  5760   0.314E-03-0.103E-05
CGA: 290    -0.223814941727E+03   -0.15293E-03   -0.15621E-03  5760   0.500E-03-0.652E-05
CGA: 291    -0.223815088215E+03   -0.14649E-03   -0.14651E-03  5760   0.539E-03 0.590E-05
CGA: 292    -0.223815189735E+03   -0.10152E-03   -0.97861E-04  5760   0.608E-03 0.288E-04
CGA: 293    -0.223815355742E+03   -0.16601E-03   -0.16552E-03  5760   0.358E-03-0.737E-05
CGA: 294    -0.223815479674E+03   -0.12393E-03   -0.12462E-03  5760   0.297E-03-0.325E-05
CGA: 295    -0.223815540079E+03   -0.60405E-04   -0.59631E-04  5760   0.339E-03 0.117E-04
CGA: 296    -0.223815608588E+03   -0.68509E-04   -0.66504E-04  5760   0.200E-03 0.646E-05
CGA: 297    -0.223815672127E+03   -0.63539E-04   -0.64340E-04  5760   0.168E-03-0.547E-05
CGA: 298    -0.223815703117E+03   -0.30990E-04   -0.30133E-04  5760   0.177E-03 0.383E-05
CGA: 299    -0.223815746960E+03   -0.43843E-04   -0.43692E-04  5760   0.129E-03 0.213E-05
CGA: 300    -0.223815783083E+03   -0.36123E-04   -0.36165E-04  5760   0.101E-03 0.127E-05
CGA: 301    -0.223815804780E+03   -0.21698E-04   -0.21166E-04  5760   0.116E-03 0.208E-05
CGA: 302    -0.223815829583E+03   -0.24803E-04   -0.24363E-04  5760   0.819E-04-0.101E-05
CGA: 303    -0.223815850231E+03   -0.20647E-04   -0.20654E-04  5760   0.574E-04 0.158E-05
CGA: 304    -0.223815867696E+03   -0.17465E-04   -0.17544E-04  5760   0.610E-04 0.118E-05
CGA: 305    -0.223815877478E+03   -0.97820E-05   -0.92114E-05  5760   0.461E-04 0.132E-05
CGA: 306    -0.223815893797E+03   -0.16319E-04   -0.16713E-04  5760   0.477E-04-0.242E-05
CGA: 307    -0.223815905917E+03   -0.12120E-04   -0.12123E-04  5760   0.376E-04 0.164E-05
CGA: 308    -0.223815914258E+03   -0.83407E-05   -0.82630E-05  5760   0.541E-04 0.148E-05
CGA: 309    -0.223815929407E+03   -0.15150E-04   -0.15189E-04  5760   0.421E-04-0.206E-05
CGA: 310    -0.223815941852E+03   -0.12444E-04   -0.12535E-04  5760   0.560E-04-0.567E-06
CGA: 311    -0.223815954969E+03   -0.13117E-04   -0.12900E-04  5760   0.725E-04 0.200E-05
CGA: 312    -0.223815971586E+03   -0.16617E-04   -0.16594E-04  5760   0.560E-04 0.728E-06
CGA: 313    -0.223815988058E+03   -0.16472E-04   -0.16531E-04  5760   0.519E-04-0.373E-06
CGA: 314    -0.223816001445E+03   -0.13387E-04   -0.13375E-04  5760   0.702E-04 0.391E-06
CGA: 315    -0.223816016278E+03   -0.14833E-04   -0.14418E-04  5760   0.672E-04 0.639E-06
SDA: 316    -0.223816037256E+03   -0.20978E-04   -0.21076E-04  5760   0.559E-04-0.119E-06
CGA: 317    -0.223816046193E+03   -0.89374E-05   -0.86495E-05  5760   0.474E-04 0.194E-05
CGA: 318    -0.223816055586E+03   -0.93928E-05   -0.89384E-05  5760   0.301E-04-0.673E-06
CGA: 319    -0.223816063846E+03   -0.82597E-05   -0.82415E-05  5760   0.164E-04 0.955E-06
CGA: 320    -0.223816068821E+03   -0.49749E-05   -0.50025E-05  5760   0.264E-04 0.543E-06
CGA: 321    -0.223816073441E+03   -0.46199E-05   -0.44388E-05  5760   0.157E-04 0.769E-07
CGA: 322    -0.223816078050E+03   -0.46095E-05   -0.47083E-05  5760   0.124E-04-0.856E-06
CGA: 323    -0.223816080758E+03   -0.27076E-05   -0.27015E-05  5760   0.152E-04 0.525E-06
CGA: 324    -0.223816083841E+03   -0.30834E-05   -0.30411E-05  5760   0.886E-05 0.493E-06
CGA: 325    -0.223816086355E+03   -0.25134E-05   -0.25458E-05  5760   0.109E-04-0.544E-06
CGA: 326    -0.223816088576E+03   -0.22218E-05   -0.21858E-05  5760   0.109E-04-0.178E-06
CGA: 327    -0.223816091221E+03   -0.26447E-05   -0.26431E-05  5760   0.927E-05 0.328E-06
CGA: 328    -0.223816093632E+03   -0.24107E-05   -0.24116E-05  5760   0.850E-05 0.438E-06
CGA: 329    -0.223816095702E+03   -0.20698E-05   -0.20426E-05  5760   0.118E-04-0.230E-06
CGA: 330    -0.223816098264E+03   -0.25622E-05   -0.25444E-05  5760   0.856E-05-0.523E-06
CGA: 331    -0.223816101377E+03   -0.31128E-05   -0.30661E-05  5760   0.767E-05 0.638E-06
CGA: 332    -0.223816103626E+03   -0.22495E-05   -0.22608E-05  5760   0.111E-04 0.136E-06
CGA: 333    -0.223816105605E+03   -0.19791E-05   -0.18632E-05  5760   0.807E-05-0.226E-06
CGA: 334    -0.223816108082E+03   -0.24767E-05   -0.24933E-05  5760   0.720E-05-0.248E-06
CGA: 335    -0.223816110138E+03   -0.20559E-05   -0.20430E-05  5760   0.566E-05 0.349E-06
CGA: 336    -0.223816112181E+03   -0.20432E-05   -0.20525E-05  5760   0.582E-05-0.137E-07
CGA: 337    -0.223816113480E+03   -0.12987E-05   -0.12840E-05  5760   0.802E-05 0.166E-07
CGA: 338    -0.223816115132E+03   -0.16519E-05   -0.16168E-05  5760   0.602E-05 0.351E-07
CGA: 339    -0.223816117103E+03   -0.19712E-05   -0.19652E-05  5760   0.413E-05 0.255E-06
CGA: 340    -0.223816118750E+03   -0.16467E-05   -0.16619E-05  5760   0.564E-05-0.805E-07
CGA: 341    -0.223816119583E+03   -0.83389E-06   -0.78427E-06  5760   0.375E-05 0.146E-06
CGA: 342    -0.223816120602E+03   -0.10190E-05   -0.10210E-05  5760   0.280E-05-0.102E-06
CGA: 343    -0.223816121464E+03   -0.86128E-06   -0.87897E-06  5760   0.259E-05-0.860E-07
   1 F= -.23357629E+03 E0= -.23357437E+03  d E =-.383377E-02  mag=     6.0000
