       N       E                     dE             d eps       ncg     rms          ort
DAV:   1     0.346494502080E+04    0.34649E+04   -0.13868E+05  5760   0.212E+03
DAV:   2     0.426410372574E+03   -0.30385E+04   -0.27975E+04  5760   0.515E+02
DAV:   3    -0.217095918113E+03   -0.64351E+03   -0.59578E+03  5760   0.252E+02
DAV:   4    -0.269645081280E+03   -0.52549E+02   -0.51221E+02  5760   0.739E+01
DAV:   5    -0.271612020204E+03   -0.19669E+01   -0.19625E+01  5760   0.145E+01
SDA:   6     0.180819970870E+03    0.45243E+03   -0.19625E+01  5760   0.466E+04 0.000E+00
CGA:   7     0.710719226499E+02   -0.10975E+03   -0.14699E+03  5760   0.291E+04 0.998E+03
CGA:   8    -0.863175694241E+02   -0.15739E+03   -0.13507E+03  5760   0.754E+04 0.194E+04
CGA:   9    -0.108317741997E+03   -0.22000E+02   -0.28632E+03  5760   0.482E+04-0.230E+04
CGA:  10    -0.109847586721E+03   -0.15298E+01   -0.12654E+03  5760   0.529E+04-0.197E+04
CGA:  11    -0.202103664773E+03   -0.92256E+02   -0.60266E+02  5760   0.409E+03 0.135E+04
CGA:  12    -0.204656948420E+03   -0.25533E+01   -0.13842E+02  5760   0.325E+03-0.309E+03
CGA:  13    -0.207265840742E+03   -0.26089E+01   -0.11037E+02  5760   0.305E+03-0.281E+03
CGA:  14    -0.202030513101E+03    0.52353E+01   -0.14416E+02  5760   0.718E+03-0.383E+03
CGA:  15    -0.211406057876E+03   -0.93755E+01   -0.19263E+02  5760   0.137E+03-0.266E+03
CGA:  16    -0.214461001384E+03   -0.30549E+01   -0.39863E+01  5760   0.197E+02-0.330E+01
CGA:  17    -0.215634835270E+03   -0.11738E+01   -0.12959E+01  5760   0.262E+02-0.786E+00
CGA:  18    -0.218583398439E+03   -0.29486E+01   -0.29861E+01  5760   0.241E+02 0.146E+01
CGA:  19    -0.219427873723E+03   -0.84448E+00   -0.11807E+01  5760   0.691E+01-0.339E+01
CGA:  20    -0.219778181226E+03   -0.35031E+00   -0.37664E+00  5760   0.283E+01-0.157E+00
CGA:  21    -0.220039442876E+03   -0.26126E+00   -0.26954E+00  5760   0.280E+01 0.912E-01
CGA:  22    -0.220316159547E+03   -0.27672E+00   -0.28463E+00  5760   0.115E+01 0.124E+00
CGA:  23    -0.220432362951E+03   -0.11620E+00   -0.11724E+00  5760   0.104E+01 0.114E-01
CGA:  24    -0.220568179336E+03   -0.13582E+00   -0.13609E+00  5760   0.102E+01-0.149E-01
CGA:  25    -0.220673349788E+03   -0.10517E+00   -0.10428E+00  5760   0.119E+01-0.140E-01
CGA:  26    -0.220868098308E+03   -0.19475E+00   -0.19174E+00  5760   0.982E+00 0.545E-01
CGA:  27    -0.220958899808E+03   -0.90802E-01   -0.88793E-01  5760   0.130E+01-0.159E-01
CGA:  28    -0.221128726137E+03   -0.16983E+00   -0.17328E+00  5760   0.125E+01-0.128E+00
CGA:  29    -0.221265362633E+03   -0.13664E+00   -0.13651E+00  5760   0.907E+00 0.523E-01
CGA:  30    -0.221407611384E+03   -0.14225E+00   -0.13811E+00  5760   0.439E+00 0.101E+00
CGA:  31    -0.221476464900E+03   -0.68854E-01   -0.68949E-01  5760   0.126E+01-0.219E-02
CGA:  32    -0.221577080200E+03   -0.10062E+00   -0.10170E+00  5760   0.655E+00 0.835E-02
CGA:  33    -0.221643125183E+03   -0.66045E-01   -0.64916E-01  5760   0.789E+00-0.146E-01
CGA:  34    -0.221696388078E+03   -0.53263E-01   -0.58263E-01  5760   0.767E+00-0.695E-02
CGA:  35    -0.221753005644E+03   -0.56618E-01   -0.47910E-01  5760   0.591E+00 0.729E-01
CGA:  36    -0.221811309796E+03   -0.58304E-01   -0.50906E-01  5760   0.113E+01-0.982E-01
CGA:  37    -0.221841538482E+03   -0.30229E-01   -0.16828E-01  5760   0.113E+01-0.509E+00
CGA:  38    -0.221894859289E+03   -0.53321E-01   -0.16999E-01  5760   0.525E+00-0.520E+00
CGA:  39    -0.221961261819E+03   -0.66403E-01    0.11000E+00  5760   0.445E+00 0.136E+00
CGA:  40    -0.221987474006E+03   -0.26212E-01   -0.22876E-01  5760   0.709E+00-0.575E+00
CGA:  41    -0.222019011392E+03   -0.31537E-01   -0.44990E-01  5760   0.394E+00-0.143E-01
CGA:  42    -0.222054486362E+03   -0.35475E-01   -0.35029E-01  5760   0.700E+00 0.419E-01
CGA:  43    -0.222089455782E+03   -0.34969E-01   -0.50725E-01  5760   0.634E+00 0.378E+00
CGA:  44    -0.222112470220E+03   -0.23014E-01   -0.31036E-01  5760   0.337E+00-0.980E-01
CGA:  45    -0.222136746310E+03   -0.24276E-01   -0.24341E-01  5760   0.189E+00-0.761E-03
CGA:  46    -0.222157024661E+03   -0.20278E-01   -0.19897E-01  5760   0.324E+00 0.338E-01
CGA:  47    -0.222242576644E+03   -0.85552E-01   -0.70803E-01  5760   0.422E+00 0.213E+00
CGA:  48    -0.222252255515E+03   -0.96789E-02   -0.14838E-01  5760   0.135E+00-0.590E-01
CGA:  49    -0.222269126795E+03   -0.16871E-01   -0.17370E-01  5760   0.267E+00 0.252E-02
CGA:  50    -0.222283764369E+03   -0.14638E-01   -0.17690E-01  5760   0.140E+00-0.540E-02
CGA:  51    -0.222327096992E+03   -0.43333E-01   -0.47725E-01  5760   0.711E+00 0.561E-02
CGA:  52    -0.222354013615E+03   -0.26917E-01   -0.29426E-01  5760   0.257E+00-0.161E-02
CGA:  53    -0.222399476838E+03   -0.45463E-01   -0.53017E-01  5760   0.669E+00-0.877E-01
CGA:  54    -0.222411886201E+03   -0.12409E-01   -0.14141E-01  5760   0.313E+00-0.488E-01
CGA:  55    -0.222431465346E+03   -0.19579E-01   -0.21113E-01  5760   0.563E+00 0.797E-02
CGA:  56    -0.222451928543E+03   -0.20463E-01   -0.19594E-01  5760   0.702E-01 0.544E-01
CGA:  57    -0.222455520320E+03   -0.35918E-02   -0.36932E-02  5760   0.951E-01-0.555E-02
CGA:  58    -0.222462915853E+03   -0.73955E-02   -0.74523E-02  5760   0.181E+00 0.489E-02
CGA:  59    -0.222469123780E+03   -0.62079E-02   -0.77209E-02  5760   0.960E-01-0.831E-02
CGA:  60    -0.222474872303E+03   -0.57485E-02   -0.56785E-02  5760   0.162E+00-0.132E-01
CGA:  61    -0.222485283698E+03   -0.10411E-01   -0.10017E-01  5760   0.184E+00-0.787E-02
CGA:  62    -0.222490687280E+03   -0.54036E-02   -0.56322E-02  5760   0.738E-01-0.473E-02
CGA:  63    -0.222496169668E+03   -0.54824E-02   -0.55871E-02  5760   0.149E+00 0.422E-02
CGA:  64    -0.222504840084E+03   -0.86704E-02   -0.86243E-02  5760   0.455E-01 0.374E-03
CGA:  65    -0.222508206057E+03   -0.33660E-02   -0.33724E-02  5760   0.790E-01 0.387E-02
CGA:  66    -0.222512834114E+03   -0.46281E-02   -0.52110E-02  5760   0.558E-01 0.220E-01
CGA:  67    -0.222514706216E+03   -0.18721E-02   -0.27856E-02  5760   0.241E-01-0.803E-02
CGA:  68    -0.222517035512E+03   -0.23293E-02   -0.25433E-02  5760   0.661E-01-0.115E-01
CGA:  69    -0.222518571430E+03   -0.15359E-02   -0.12283E-02  5760   0.344E-01-0.245E-02
CGA:  70    -0.222519542811E+03   -0.97138E-03   -0.10585E-02  5760   0.196E-01-0.144E-02
CGA:  71    -0.222521287929E+03   -0.17451E-02   -0.17365E-02  5760   0.359E-01 0.638E-03
CGA:  72    -0.222522579287E+03   -0.12914E-02   -0.14054E-02  5760   0.120E-01-0.407E-04
CGA:  73    -0.222523393815E+03   -0.81453E-03   -0.81510E-03  5760   0.227E-01-0.455E-03
CGA:  74    -0.222525144960E+03   -0.17511E-02   -0.17515E-02  5760   0.248E-01-0.464E-04
CGA:  75    -0.222526130536E+03   -0.98558E-03   -0.10085E-02  5760   0.144E-01-0.136E-03
CGA:  76    -0.222527263030E+03   -0.11325E-02   -0.11308E-02  5760   0.286E-01-0.580E-03
CGA:  77    -0.222529343294E+03   -0.20803E-02   -0.20811E-02  5760   0.443E-01 0.260E-02
SDA:  78    -0.222530718585E+03   -0.13753E-02   -0.18561E-02  5760   0.216E-01 0.222E-02
CGA:  79    -0.222532496110E+03   -0.17775E-02   -0.17698E-02  5760   0.208E-01-0.231E-03
CGA:  80    -0.222533669845E+03   -0.11737E-02   -0.11974E-02  5760   0.465E-02 0.244E-03
CGA:  81    -0.222534683975E+03   -0.10141E-02   -0.93477E-03  5760   0.790E-02 0.412E-03
CGA:  82    -0.222535324292E+03   -0.64032E-03   -0.63928E-03  5760   0.418E-02-0.136E-03
CGA:  83    -0.222535859583E+03   -0.53529E-03   -0.53267E-03  5760   0.104E-01-0.210E-03
CGA:  84    -0.222536624270E+03   -0.76469E-03   -0.77359E-03  5760   0.528E-02 0.117E-02
CGA:  85    -0.222537178095E+03   -0.55383E-03   -0.55244E-03  5760   0.125E-01-0.537E-03
CGA:  86    -0.222538275786E+03   -0.10977E-02   -0.11041E-02  5760   0.126E-01-0.199E-03
CGA:  87    -0.222538809517E+03   -0.53373E-03   -0.53062E-03  5760   0.813E-02 0.225E-03
CGA:  88    -0.222539471671E+03   -0.66215E-03   -0.66352E-03  5760   0.139E-01-0.172E-03
CGA:  89    -0.222540513974E+03   -0.10423E-02   -0.10378E-02  5760   0.170E-01-0.167E-02
CGA:  90    -0.222541003250E+03   -0.48928E-03   -0.56761E-03  5760   0.780E-02 0.166E-03
CGA:  91    -0.222541460752E+03   -0.45750E-03   -0.46463E-03  5760   0.137E-01-0.973E-03
CGA:  92    -0.222542390104E+03   -0.92935E-03   -0.92938E-03  5760   0.201E-01 0.651E-04
CGA:  93    -0.222542958495E+03   -0.56839E-03   -0.64822E-03  5760   0.767E-02-0.747E-03
CGA:  94    -0.222543468157E+03   -0.50966E-03   -0.50913E-03  5760   0.165E-01-0.304E-03
CGA:  95    -0.222544463946E+03   -0.99579E-03   -0.10121E-02  5760   0.154E-01 0.637E-03
CGA:  96    -0.222544996356E+03   -0.53241E-03   -0.53737E-03  5760   0.712E-02-0.652E-03
CGA:  97    -0.222545344957E+03   -0.34860E-03   -0.36071E-03  5760   0.790E-02 0.203E-03
CGA:  98    -0.222545852472E+03   -0.50751E-03   -0.50861E-03  5760   0.108E-01-0.804E-03
CGA:  99    -0.222546252012E+03   -0.39954E-03   -0.43500E-03  5760   0.941E-02 0.101E-02
CGA: 100    -0.222546586552E+03   -0.33454E-03   -0.40507E-03  5760   0.742E-02-0.372E-03
CGA: 101    -0.222547264046E+03   -0.67749E-03   -0.71201E-03  5760   0.191E-01-0.251E-02
CGA: 102    -0.222547696535E+03   -0.43249E-03   -0.38017E-03  5760   0.953E-02-0.527E-03
CGA: 103    -0.222547924487E+03   -0.22795E-03   -0.24315E-03  5760   0.508E-02-0.324E-03
CGA: 104    -0.222548269201E+03   -0.34471E-03   -0.34441E-03  5760   0.128E-01 0.136E-03
CGA: 105    -0.222548772521E+03   -0.50332E-03   -0.55618E-03  5760   0.935E-02 0.125E-02
CGA: 106    -0.222549033128E+03   -0.26061E-03   -0.29024E-03  5760   0.461E-02-0.834E-03
CGA: 107    -0.222549266266E+03   -0.23314E-03   -0.23106E-03  5760   0.757E-02-0.358E-03
CGA: 108    -0.222549580417E+03   -0.31415E-03   -0.31419E-03  5760   0.623E-02 0.316E-04
SDA: 109    -0.222549792360E+03   -0.21194E-03   -0.21605E-03  5760   0.457E-02 0.338E-03
CGA: 110    -0.222549997881E+03   -0.20552E-03   -0.21859E-03  5760   0.172E-02 0.686E-04
CGA: 111    -0.222550202844E+03   -0.20496E-03   -0.19914E-03  5760   0.180E-02 0.763E-04
CGA: 112    -0.222550405886E+03   -0.20304E-03   -0.20244E-03  5760   0.217E-02 0.158E-04
CGA: 113    -0.222550759637E+03   -0.35375E-03   -0.34379E-03  5760   0.122E-02 0.684E-04
CGA: 114    -0.222550870122E+03   -0.11048E-03   -0.10739E-03  5760   0.181E-02-0.130E-04
CGA: 115    -0.222551175304E+03   -0.30518E-03   -0.27444E-03  5760   0.894E-03 0.301E-03
CGA: 116    -0.222551291221E+03   -0.11592E-03   -0.11520E-03  5760   0.133E-02-0.553E-04
CGA: 117    -0.222551407928E+03   -0.11671E-03   -0.11388E-03  5760   0.830E-03 0.950E-04
CGA: 118    -0.222551476865E+03   -0.68937E-04   -0.68945E-04  5760   0.103E-02-0.274E-04
CGA: 119    -0.222551613357E+03   -0.13649E-03   -0.13374E-03  5760   0.916E-03 0.417E-04
CGA: 120    -0.222551664121E+03   -0.50763E-04   -0.51573E-04  5760   0.578E-03-0.219E-05
CGA: 121    -0.222551756316E+03   -0.92196E-04   -0.94366E-04  5760   0.120E-02-0.539E-04
CGA: 122    -0.222551806397E+03   -0.50080E-04   -0.53570E-04  5760   0.457E-03 0.208E-04
CGA: 123    -0.222551846952E+03   -0.40555E-04   -0.40455E-04  5760   0.872E-03-0.423E-04
CGA: 124    -0.222551903274E+03   -0.56322E-04   -0.56860E-04  5760   0.696E-03 0.469E-04
CGA: 125    -0.222551932496E+03   -0.29222E-04   -0.32069E-04  5760   0.418E-03-0.377E-04
CGA: 126    -0.222551971419E+03   -0.38923E-04   -0.38846E-04  5760   0.848E-03 0.264E-05
CGA: 127    -0.222552015188E+03   -0.43769E-04   -0.47044E-04  5760   0.444E-03 0.567E-04
CGA: 128    -0.222552036708E+03   -0.21520E-04   -0.22151E-04  5760   0.318E-03-0.108E-04
CGA: 129    -0.222552070210E+03   -0.33502E-04   -0.33817E-04  5760   0.559E-03-0.119E-04
CGA: 130    -0.222552095577E+03   -0.25367E-04   -0.25360E-04  5760   0.265E-03 0.323E-05
CGA: 131    -0.222552114405E+03   -0.18828E-04   -0.18859E-04  5760   0.399E-03 0.359E-05
CGA: 132    -0.222552145744E+03   -0.31339E-04   -0.31329E-04  5760   0.414E-03 0.290E-04
CGA: 133    -0.222552163711E+03   -0.17967E-04   -0.19998E-04  5760   0.271E-03 0.139E-04
CGA: 134    -0.222552193316E+03   -0.29605E-04   -0.29458E-04  5760   0.821E-03-0.700E-04
CGA: 135    -0.222552238312E+03   -0.44996E-04   -0.44276E-04  5760   0.120E-02-0.191E-03
CGA: 136    -0.222552268616E+03   -0.30304E-04   -0.31438E-04  5760   0.824E-03-0.531E-06
CGA: 137    -0.222552322733E+03   -0.54117E-04   -0.54296E-04  5760   0.157E-02-0.523E-04
CGA: 138    -0.222552402632E+03   -0.79899E-04   -0.81389E-04  5760   0.176E-02 0.889E-04
CGA: 139    -0.222552452913E+03   -0.50281E-04   -0.60544E-04  5760   0.799E-03 0.400E-05
SDA: 140    -0.222552490483E+03   -0.37570E-04   -0.38046E-04  5760   0.992E-03-0.891E-04
CGA: 141    -0.222552551495E+03   -0.61012E-04   -0.61895E-04  5760   0.420E-03 0.317E-05
CGA: 142    -0.222552598906E+03   -0.47411E-04   -0.45562E-04  5760   0.302E-03 0.180E-04
CGA: 143    -0.222552635883E+03   -0.36977E-04   -0.34533E-04  5760   0.459E-03 0.403E-04
CGA: 144    -0.222552690205E+03   -0.54322E-04   -0.54494E-04  5760   0.187E-03 0.145E-04
CGA: 145    -0.222552708291E+03   -0.18086E-04   -0.17354E-04  5760   0.204E-03 0.656E-05
CGA: 146    -0.222552737049E+03   -0.28758E-04   -0.30143E-04  5760   0.271E-03-0.664E-05
CGA: 147    -0.222552754218E+03   -0.17169E-04   -0.18082E-04  5760   0.115E-03 0.225E-04
CGA: 148    -0.222552777731E+03   -0.23513E-04   -0.25659E-04  5760   0.113E-03-0.161E-04
CGA: 149    -0.222552790969E+03   -0.13238E-04   -0.13376E-04  5760   0.183E-03-0.213E-05
CGA: 150    -0.222552810842E+03   -0.19873E-04   -0.19321E-04  5760   0.734E-04 0.149E-04
CGA: 151    -0.222552832205E+03   -0.21363E-04   -0.22741E-04  5760   0.222E-03-0.142E-04
CGA: 152    -0.222552843913E+03   -0.11707E-04   -0.11714E-04  5760   0.117E-03-0.185E-05
CGA: 153    -0.222552865503E+03   -0.21590E-04   -0.20957E-04  5760   0.374E-03-0.391E-05
CGA: 154    -0.222552897047E+03   -0.31543E-04   -0.31570E-04  5760   0.160E-03 0.119E-05
CGA: 155    -0.222552916670E+03   -0.19623E-04   -0.19521E-04  5760   0.383E-03-0.642E-05
CGA: 156    -0.222552966112E+03   -0.49443E-04   -0.48814E-04  5760   0.362E-03 0.175E-04
CGA: 157    -0.222552989707E+03   -0.23595E-04   -0.24709E-04  5760   0.317E-03-0.115E-04
CGA: 158    -0.222553037384E+03   -0.47676E-04   -0.48372E-04  5760   0.381E-03-0.151E-04
CGA: 159    -0.222553057566E+03   -0.20182E-04   -0.20834E-04  5760   0.232E-03-0.103E-05
CGA: 160    -0.222553096736E+03   -0.39170E-04   -0.38725E-04  5760   0.454E-03 0.102E-04
CGA: 161    -0.222553122835E+03   -0.26099E-04   -0.28462E-04  5760   0.218E-03 0.640E-06
CGA: 162    -0.222553156690E+03   -0.33855E-04   -0.34460E-04  5760   0.568E-03-0.319E-04
CGA: 163    -0.222553187759E+03   -0.31069E-04   -0.30952E-04  5760   0.284E-03-0.371E-05
CGA: 164    -0.222553206846E+03   -0.19087E-04   -0.19457E-04  5760   0.362E-03-0.966E-05
CGA: 165    -0.222553245934E+03   -0.39088E-04   -0.39011E-04  5760   0.445E-03 0.868E-05
CGA: 166    -0.222553266062E+03   -0.20127E-04   -0.21930E-04  5760   0.222E-03-0.699E-05
CGA: 167    -0.222553296638E+03   -0.30576E-04   -0.30964E-04  5760   0.708E-03-0.275E-04
CGA: 168    -0.222553340024E+03   -0.43387E-04   -0.43018E-04  5760   0.517E-03-0.869E-05
CGA: 169    -0.222553361358E+03   -0.21333E-04   -0.22794E-04  5760   0.337E-03-0.139E-04
CGA: 170    -0.222553398303E+03   -0.36945E-04   -0.37100E-04  5760   0.735E-03-0.238E-04
SDA: 171    -0.222553433256E+03   -0.34953E-04   -0.35725E-04  5760   0.387E-03 0.652E-05
CGA: 172    -0.222553465792E+03   -0.32536E-04   -0.32729E-04  5760   0.222E-03-0.313E-05
CGA: 173    -0.222553485271E+03   -0.19479E-04   -0.19645E-04  5760   0.105E-03 0.114E-04
CGA: 174    -0.222553518534E+03   -0.33263E-04   -0.32829E-04  5760   0.172E-03 0.212E-05
CGA: 175    -0.222553527896E+03   -0.93618E-05   -0.95584E-05  5760   0.864E-04-0.140E-05
CGA: 176    -0.222553541235E+03   -0.13339E-04   -0.13151E-04  5760   0.127E-03 0.539E-06
CGA: 177    -0.222553549885E+03   -0.86502E-05   -0.94057E-05  5760   0.637E-04 0.429E-05
CGA: 178    -0.222553565392E+03   -0.15507E-04   -0.15834E-04  5760   0.118E-03-0.556E-05
CGA: 179    -0.222553570151E+03   -0.47582E-05   -0.55060E-05  5760   0.588E-04-0.574E-05
CGA: 180    -0.222553580644E+03   -0.10493E-04   -0.10695E-04  5760   0.822E-04-0.246E-05
CGA: 181    -0.222553586087E+03   -0.54436E-05   -0.58341E-05  5760   0.659E-04-0.375E-05
CGA: 182    -0.222553596843E+03   -0.10756E-04   -0.11000E-04  5760   0.134E-03-0.284E-05
CGA: 183    -0.222553604038E+03   -0.71948E-05   -0.71853E-05  5760   0.417E-04-0.135E-05
CGA: 184    -0.222553611568E+03   -0.75302E-05   -0.74886E-05  5760   0.724E-04 0.245E-06
CGA: 185    -0.222553615967E+03   -0.43992E-05   -0.44266E-05  5760   0.333E-04 0.482E-06
CGA: 186    -0.222553619914E+03   -0.39466E-05   -0.39269E-05  5760   0.653E-04-0.166E-05
CGA: 187    -0.222553624605E+03   -0.46912E-05   -0.48995E-05  5760   0.242E-04 0.418E-05
CGA: 188    -0.222553626149E+03   -0.15439E-05   -0.16900E-05  5760   0.287E-04-0.262E-05
CGA: 189    -0.222553628691E+03   -0.25417E-05   -0.25488E-05  5760   0.218E-04 0.100E-05
CGA: 190    -0.222553629850E+03   -0.11594E-05   -0.12740E-05  5760   0.181E-04-0.106E-05
CGA: 191    -0.222553631590E+03   -0.17395E-05   -0.17457E-05  5760   0.255E-04 0.189E-05
CGA: 192    -0.222553633270E+03   -0.16800E-05   -0.18201E-05  5760   0.118E-04-0.856E-06
CGA: 193    -0.222553634295E+03   -0.10251E-05   -0.10265E-05  5760   0.212E-04 0.198E-06
CGA: 194    -0.222553636874E+03   -0.25790E-05   -0.25731E-05  5760   0.104E-04 0.393E-06
CGA: 195    -0.222553637916E+03   -0.10418E-05   -0.10412E-05  5760   0.226E-04-0.690E-06
CGA: 196    -0.222553640468E+03   -0.25521E-05   -0.25842E-05  5760   0.181E-04-0.144E-05
CGA: 197    -0.222553641491E+03   -0.10228E-05   -0.10284E-05  5760   0.144E-04-0.135E-06
CGA: 198    -0.222553642977E+03   -0.14864E-05   -0.14860E-05  5760   0.248E-04-0.207E-05
CGA: 199    -0.222553644173E+03   -0.11964E-05   -0.12611E-05  5760   0.153E-04 0.807E-06
CGA: 200    -0.222553645153E+03   -0.97960E-06   -0.10496E-05  5760   0.231E-04-0.202E-05
CGA: 201    -0.222553647508E+03   -0.23553E-05   -0.24457E-05  5760   0.295E-04-0.406E-05
SDA: 202    -0.222553648328E+03   -0.81955E-06   -0.90928E-06  5760   0.147E-04-0.152E-05
CGA: 203    -0.222553650068E+03   -0.17400E-05   -0.17142E-05  5760   0.103E-04 0.647E-06
CGA: 204    -0.222553650701E+03   -0.63280E-06   -0.66230E-06  5760   0.835E-05-0.119E-06
CGA: 205    -0.222553652327E+03   -0.16262E-05   -0.14469E-05  5760   0.346E-05 0.193E-05
CGA: 206    -0.222553652991E+03   -0.66377E-06   -0.65136E-06  5760   0.879E-05 0.414E-07
   1 F= -.23133543E+03 E0= -.23132927E+03  d E =-.123209E-01  mag=     6.0000
