       N       E                     dE             d eps       ncg     rms          ort
DAV:   1     0.348524749633E+04    0.34852E+04   -0.13917E+05  5760   0.217E+03
DAV:   2     0.418781483637E+03   -0.30665E+04   -0.28299E+04  5760   0.530E+02
DAV:   3    -0.217958132639E+03   -0.63674E+03   -0.58313E+03  5760   0.254E+02
DAV:   4    -0.269763323913E+03   -0.51805E+02   -0.50693E+02  5760   0.747E+01
DAV:   5    -0.271566442428E+03   -0.18031E+01   -0.17995E+01  5760   0.139E+01
SDA:   6     0.100493209138E+03    0.37206E+03   -0.17995E+01  5760   0.604E+04 0.000E+00
CGA:   7     0.208690764412E-01   -0.10047E+03   -0.25070E+03  5760   0.362E+04 0.691E+03
CGA:   8    -0.747547157385E+02   -0.74776E+02   -0.13309E+03  5760   0.102E+05 0.263E+04
CGA:   9    -0.641967958655E+02    0.10558E+02   -0.47365E+03  5760   0.127E+05-0.762E+04
CGA:  10    -0.120458212694E+03   -0.56261E+02   -0.53113E+03  5760   0.180E+04 0.169E+04
CGA:  11    -0.145287258458E+03   -0.24829E+02   -0.27521E+02  5760   0.337E+04 0.161E+04
CGA:  12    -0.203361305000E+03   -0.58074E+02   -0.56496E+02  5760   0.989E+02-0.195E+03
CGA:  13    -0.208239269332E+03   -0.48780E+01   -0.42517E+01  5760   0.643E+02 0.693E+01
CGA:  14    -0.214170028309E+03   -0.59308E+01   -0.63196E+01  5760   0.418E+02 0.985E+00
CGA:  15    -0.216541138627E+03   -0.23711E+01   -0.25335E+01  5760   0.305E+02-0.207E+01
CGA:  16    -0.218360654931E+03   -0.18195E+01   -0.21631E+01  5760   0.335E+02-0.134E+01
CGA:  17    -0.220029094052E+03   -0.16684E+01   -0.18804E+01  5760   0.139E+02-0.205E+01
CGA:  18    -0.220630719330E+03   -0.60163E+00   -0.63476E+00  5760   0.350E+01-0.688E+00
CGA:  19    -0.221024449199E+03   -0.39373E+00   -0.39553E+00  5760   0.427E+01 0.623E-01
CGA:  20    -0.221316913165E+03   -0.29246E+00   -0.29808E+00  5760   0.308E+01-0.208E-01
CGA:  21    -0.221521307845E+03   -0.20439E+00   -0.21131E+00  5760   0.942E+00-0.272E-01
CGA:  22    -0.221636178338E+03   -0.11487E+00   -0.11487E+00  5760   0.118E+01-0.126E-02
CGA:  23    -0.221731976333E+03   -0.95798E-01   -0.98039E-01  5760   0.143E+01-0.390E-02
CGA:  24    -0.221927072217E+03   -0.19510E+00   -0.19832E+00  5760   0.165E+01-0.129E+00
CGA:  25    -0.222080936512E+03   -0.15386E+00   -0.15644E+00  5760   0.135E+01 0.533E-01
CGA:  26    -0.222204548996E+03   -0.12361E+00   -0.12188E+00  5760   0.128E+01-0.457E-02
CGA:  27    -0.222383626422E+03   -0.17908E+00   -0.18059E+00  5760   0.241E+01-0.490E-01
CGA:  28    -0.222596772814E+03   -0.21315E+00   -0.21433E+00  5760   0.164E+01 0.308E-01
CGA:  29    -0.222733114659E+03   -0.13634E+00   -0.12889E+00  5760   0.182E+01 0.163E-01
CGA:  30    -0.222874740840E+03   -0.14163E+00   -0.14549E+00  5760   0.184E+01 0.614E-02
CGA:  31    -0.222990461004E+03   -0.11572E+00   -0.11665E+00  5760   0.133E+01 0.157E-01
CGA:  32    -0.223154032132E+03   -0.16357E+00   -0.16334E+00  5760   0.189E+01 0.131E-01
CGA:  33    -0.223272586763E+03   -0.11855E+00   -0.12666E+00  5760   0.136E+01-0.434E-01
CGA:  34    -0.223428047669E+03   -0.15546E+00   -0.15535E+00  5760   0.114E+01 0.367E-01
CGA:  35    -0.223519653020E+03   -0.91605E-01   -0.74631E-01  5760   0.129E+01 0.280E-01
CGA:  36    -0.223565156319E+03   -0.45503E-01   -0.25393E-01  5760   0.125E+01 0.843E+00
CGA:  37    -0.223666496777E+03   -0.10134E+00   -0.11010E+00  5760   0.731E+00 0.127E+00
CGA:  38    -0.223798706261E+03   -0.13221E+00   -0.13665E+00  5760   0.955E+00-0.100E+00
CGA:  39    -0.223906008166E+03   -0.10730E+00   -0.10194E+00  5760   0.528E+00 0.220E+00
CGA:  40    -0.223990084054E+03   -0.84076E-01   -0.80764E-01  5760   0.189E+00 0.124E+00
CGA:  41    -0.224029657766E+03   -0.39574E-01   -0.44093E-01  5760   0.334E+00-0.426E-01
CGA:  42    -0.224060299757E+03   -0.30642E-01   -0.30543E-01  5760   0.350E+00 0.174E-01
CGA:  43    -0.224089169272E+03   -0.28870E-01   -0.29303E-01  5760   0.264E+00 0.763E-02
CGA:  44    -0.224125435409E+03   -0.36266E-01   -0.36117E-01  5760   0.159E+00 0.440E-02
CGA:  45    -0.224138486344E+03   -0.13051E-01   -0.12391E-01  5760   0.124E+00 0.270E-02
CGA:  46    -0.224161044758E+03   -0.22558E-01   -0.22398E-01  5760   0.162E+00 0.297E-02
CGA:  47    -0.224172590440E+03   -0.11546E-01   -0.11373E-01  5760   0.797E-01 0.303E-03
CGA:  48    -0.224185101671E+03   -0.12511E-01   -0.12486E-01  5760   0.975E-01 0.706E-03
CGA:  49    -0.224193812598E+03   -0.87109E-02   -0.84136E-02  5760   0.659E-01-0.955E-03
CGA:  50    -0.224206773976E+03   -0.12961E-01   -0.12731E-01  5760   0.955E-01 0.355E-02
CGA:  51    -0.224214859761E+03   -0.80858E-02   -0.79640E-02  5760   0.409E-01-0.426E-03
CGA:  52    -0.224222657594E+03   -0.77978E-02   -0.77605E-02  5760   0.479E-01 0.767E-03
CGA:  53    -0.224227638866E+03   -0.49813E-02   -0.48998E-02  5760   0.332E-01-0.103E-02
CGA:  54    -0.224233378335E+03   -0.57395E-02   -0.56756E-02  5760   0.224E-01 0.113E-02
CGA:  55    -0.224235481766E+03   -0.21034E-02   -0.20827E-02  5760   0.136E-01 0.131E-03
CGA:  56    -0.224237840301E+03   -0.23585E-02   -0.23778E-02  5760   0.994E-02-0.252E-03
CGA:  57    -0.224239129113E+03   -0.12888E-02   -0.12898E-02  5760   0.107E-01 0.279E-03
CGA:  58    -0.224240804494E+03   -0.16754E-02   -0.17004E-02  5760   0.604E-02-0.446E-03
CGA:  59    -0.224242061282E+03   -0.12568E-02   -0.12443E-02  5760   0.832E-02 0.374E-03
CGA:  60    -0.224243185910E+03   -0.11246E-02   -0.11244E-02  5760   0.598E-02-0.987E-05
CGA:  61    -0.224244767609E+03   -0.15817E-02   -0.15803E-02  5760   0.671E-02-0.212E-04
CGA:  62    -0.224246229258E+03   -0.14616E-02   -0.14869E-02  5760   0.994E-02-0.197E-04
CGA:  63    -0.224247462743E+03   -0.12335E-02   -0.12301E-02  5760   0.553E-02-0.472E-04
CGA:  64    -0.224248894535E+03   -0.14318E-02   -0.14326E-02  5760   0.724E-02-0.104E-04
CGA:  65    -0.224250033147E+03   -0.11386E-02   -0.11407E-02  5760   0.797E-02 0.162E-03
CGA:  66    -0.224251403970E+03   -0.13708E-02   -0.13742E-02  5760   0.419E-02-0.115E-03
SDA:  67    -0.224252412483E+03   -0.10085E-02   -0.10171E-02  5760   0.538E-02-0.733E-04
CGA:  68    -0.224253124362E+03   -0.71188E-03   -0.70868E-03  5760   0.447E-02 0.833E-04
CGA:  69    -0.224253942972E+03   -0.81861E-03   -0.82421E-03  5760   0.236E-02-0.795E-04
CGA:  70    -0.224254792236E+03   -0.84926E-03   -0.84623E-03  5760   0.172E-02 0.151E-04
CGA:  71    -0.224255425559E+03   -0.63332E-03   -0.63550E-03  5760   0.166E-02 0.123E-04
CGA:  72    -0.224255776499E+03   -0.35094E-03   -0.35259E-03  5760   0.209E-02 0.117E-04
CGA:  73    -0.224256067860E+03   -0.29136E-03   -0.28825E-03  5760   0.830E-03-0.178E-04
CGA:  74    -0.224256379687E+03   -0.31183E-03   -0.31521E-03  5760   0.748E-03-0.148E-04
CGA:  75    -0.224256693014E+03   -0.31333E-03   -0.31593E-03  5760   0.102E-02 0.605E-06
CGA:  76    -0.224256846163E+03   -0.15315E-03   -0.15122E-03  5760   0.105E-02 0.572E-05
CGA:  77    -0.224257127963E+03   -0.28180E-03   -0.28366E-03  5760   0.800E-03-0.179E-04
CGA:  78    -0.224257520914E+03   -0.39295E-03   -0.39345E-03  5760   0.979E-03 0.270E-05
CGA:  79    -0.224257878561E+03   -0.35765E-03   -0.35537E-03  5760   0.113E-02 0.147E-04
CGA:  80    -0.224258109093E+03   -0.23053E-03   -0.23017E-03  5760   0.176E-02 0.214E-04
CGA:  81    -0.224258459627E+03   -0.35053E-03   -0.35055E-03  5760   0.690E-03 0.530E-05
CGA:  82    -0.224258758491E+03   -0.29886E-03   -0.29867E-03  5760   0.764E-03 0.370E-05
CGA:  83    -0.224259038750E+03   -0.28026E-03   -0.28033E-03  5760   0.458E-03-0.237E-05
CGA:  84    -0.224259220039E+03   -0.18129E-03   -0.18275E-03  5760   0.972E-03-0.864E-06
CGA:  85    -0.224259340371E+03   -0.12033E-03   -0.12139E-03  5760   0.475E-03-0.104E-04
CGA:  86    -0.224259447664E+03   -0.10729E-03   -0.10720E-03  5760   0.195E-03-0.559E-05
CGA:  87    -0.224259520863E+03   -0.73198E-04   -0.73554E-04  5760   0.159E-03-0.112E-05
CGA:  88    -0.224259561307E+03   -0.40444E-04   -0.40464E-04  5760   0.195E-03 0.230E-05
CGA:  89    -0.224259585844E+03   -0.24537E-04   -0.23727E-04  5760   0.850E-04 0.204E-05
CGA:  90    -0.224259615112E+03   -0.29268E-04   -0.29276E-04  5760   0.624E-04-0.471E-08
CGA:  91    -0.224259637642E+03   -0.22530E-04   -0.22552E-04  5760   0.417E-04-0.110E-06
CGA:  92    -0.224259649189E+03   -0.11547E-04   -0.11527E-04  5760   0.281E-04 0.858E-06
CGA:  93    -0.224259658479E+03   -0.92906E-05   -0.93298E-05  5760   0.427E-04 0.307E-06
CGA:  94    -0.224259663892E+03   -0.54130E-05   -0.52287E-05  5760   0.196E-04 0.368E-06
CGA:  95    -0.224259669826E+03   -0.59336E-05   -0.59285E-05  5760   0.184E-04 0.155E-06
CGA:  96    -0.224259678490E+03   -0.86642E-05   -0.84835E-05  5760   0.166E-04 0.929E-06
CGA:  97    -0.224259683543E+03   -0.50531E-05   -0.50538E-05  5760   0.243E-04 0.280E-07
SDA:  98    -0.224259687248E+03   -0.37048E-05   -0.35982E-05  5760   0.194E-04 0.671E-06
CGA:  99    -0.224259689594E+03   -0.23458E-05   -0.22831E-05  5760   0.112E-04 0.586E-06
CGA: 100    -0.224259691574E+03   -0.19805E-05   -0.19741E-05  5760   0.750E-05 0.603E-07
CGA: 101    -0.224259694715E+03   -0.31411E-05   -0.32751E-05  5760   0.877E-05-0.686E-06
CGA: 102    -0.224259697352E+03   -0.26371E-05   -0.26673E-05  5760   0.777E-05-0.374E-06
CGA: 103    -0.224259700029E+03   -0.26763E-05   -0.26632E-05  5760   0.141E-04 0.179E-06
CGA: 104    -0.224259702177E+03   -0.21480E-05   -0.20828E-05  5760   0.969E-05 0.226E-06
CGA: 105    -0.224259705363E+03   -0.31866E-05   -0.32033E-05  5760   0.981E-05-0.231E-06
CGA: 106    -0.224259708632E+03   -0.32685E-05   -0.32467E-05  5760   0.108E-04 0.455E-06
CGA: 107    -0.224259710919E+03   -0.22876E-05   -0.23003E-05  5760   0.132E-04 0.452E-06
CGA: 108    -0.224259713429E+03   -0.25095E-05   -0.25048E-05  5760   0.739E-05 0.165E-06
CGA: 109    -0.224259716502E+03   -0.30732E-05   -0.31201E-05  5760   0.961E-05-0.261E-06
CGA: 110    -0.224259718340E+03   -0.18378E-05   -0.18364E-05  5760   0.107E-04 0.236E-06
CGA: 111    -0.224259720495E+03   -0.21548E-05   -0.21507E-05  5760   0.771E-05 0.239E-06
CGA: 112    -0.224259722687E+03   -0.21919E-05   -0.21968E-05  5760   0.675E-05-0.245E-06
CGA: 113    -0.224259724217E+03   -0.15309E-05   -0.15238E-05  5760   0.778E-05-0.140E-06
CGA: 114    -0.224259725424E+03   -0.12064E-05   -0.11799E-05  5760   0.393E-05 0.297E-07
CGA: 115    -0.224259726392E+03   -0.96820E-06   -0.96978E-06  5760   0.294E-05 0.216E-06
   1 F= -.23360603E+03 E0= -.23360364E+03  d E =-.479481E-02  mag=     6.0000
