 vasp.5.4.4.18Apr17-6-g9f103f2a35 (build Nov 22 2021 14:44:17) complex          
  
 executed on             LinuxIFC date 2022.08.08  10:57:00
 running on   64 total cores
 distrk:  each k-point on   64 cores,    1 groups
 distr:  one band on NCORES_PER_BAND=   4 cores,   16 groups


--------------------------------------------------------------------------------------------------------


 INCAR:
 POTCAR:    PAW_PBE Li 17Jan2003                  
 POTCAR:    PAW_PBE Co 02Aug2007                  
 POTCAR:    PAW_PBE O 08Apr2002                   
 POTCAR:    PAW_PBE Li 17Jan2003                  
   VRHFIN =Li: s1p0                                                             
   LEXCH  = PE                                                                  
   EATOM  =     5.3001 eV,    0.3895 Ry                                         
                                                                                
   TITEL  = PAW_PBE Li 17Jan2003                                                
   LULTRA =        F    use ultrasoft PP ?                                      
   IUNSCR =        1    unscreen: 0-lin 1-nonlin 2-no                           
   RPACOR =    1.500    partial core radius                                     
   POMASS =    7.010; ZVAL   =    1.000    mass and valenz                      
   RCORE  =    2.050    outmost cutoff radius                                   
   RWIGS  =    2.600; RWIGS  =    1.376    wigner-seitz radius (au A)           
   ENMAX  =  140.000; ENMIN  =  100.000 eV                                      
   ICORE  =        2    local potential                                         
   LCOR   =        T    correct aug charges                                     
   LPAW   =        T    paw PP                                                  
   EAUG   =  331.638                                                            
   DEXC   =    0.000                                                            
   RMAX   =    2.098    core radius for proj-oper                               
   RAUG   =    1.300    factor for augmentation sphere                          
   RDEP   =    2.094    radius for radial grids                                 
   RDEPT  =    1.810    core radius for aug-charge                              
                                                                                
   Atomic configuration                                                         
    4 entries                                                                   
     n  l   j            E        occ.                                          
     1  0  0.50       -51.8549   2.0000                                         
     2  0  0.50        -2.8742   1.0000                                         
     2  1  0.50        -1.3606   0.0000                                         
     3  2  1.50        -1.3606   0.0000                                         
   Description                                                                  
     l       E           TYP  RCUT    TYP  RCUT                                 
     0     -2.8742052     23  2.050                                             
     0     27.2116520     23  2.050                                             
     1     -1.3605826     23  2.050                                             
     2     -1.3605826     23  2.050                                             
  local pseudopotential read in
  partial core-charges read in
  partial kinetic energy density read in
  atomic valenz-charges read in
  non local Contribution for L=           0  read in
    real space projection operators read in
  non local Contribution for L=           0  read in
    real space projection operators read in
  non local Contribution for L=           1  read in
    real space projection operators read in
    PAW grid and wavefunctions read in
 
   number of l-projection  operators is LMAX  =           3
   number of lm-projection operators is LMMAX =           5
 
 POTCAR:    PAW_PBE Co 02Aug2007                  
   VRHFIN =Co: d8 s1                                                            
   LEXCH  = PE                                                                  
   EATOM  =   813.3670 eV,   59.7808 Ry                                         
                                                                                
   TITEL  = PAW_PBE Co 02Aug2007                                                
   LULTRA =        F    use ultrasoft PP ?                                      
   IUNSCR =        1    unscreen: 0-lin 1-nonlin 2-no                           
   RPACOR =    2.000    partial core radius                                     
   POMASS =   58.933; ZVAL   =    9.000    mass and valenz                      
   RCORE  =    2.300    outmost cutoff radius                                   
   RWIGS  =    2.460; RWIGS  =    1.302    wigner-seitz radius (au A)           
   ENMAX  =  267.968; ENMIN  =  200.976 eV                                      
   RCLOC  =    1.203    cutoff for local pot                                    
   LCOR   =        T    correct aug charges                                     
   LPAW   =        T    paw PP                                                  
   EAUG   =  477.818                                                            
   DEXC   =    0.000                                                            
   RMAX   =    2.360    core radius for proj-oper                               
   RAUG   =    1.300    factor for augmentation sphere                          
   RDEP   =    2.393    radius for radial grids                                 
   RDEPT  =    1.864    core radius for aug-charge                              
                                                                                
   Atomic configuration                                                         
    9 entries                                                                   
     n  l   j            E        occ.                                          
     1  0  0.50     -7587.6674   2.0000                                         
     2  0  0.50      -893.6084   2.0000                                         
     2  1  1.50      -764.5805   6.0000                                         
     3  0  0.50       -97.5973   2.0000                                         
     3  1  1.50       -60.9648   6.0000                                         
     3  2  2.50        -4.2382   8.0000                                         
     4  0  0.50        -4.3746   1.0000                                         
     4  1  1.50        -4.0817   0.0000                                         
     4  3  2.50        -1.3606   0.0000                                         
   Description                                                                  
     l       E           TYP  RCUT    TYP  RCUT                                 
     2     -4.2382362     23  2.300                                             
     2     -5.5988188     23  2.300                                             
     0     -4.3745797     23  2.300                                             
     0      5.7660125     23  2.300                                             
     1     -2.7211652     23  2.300                                             
     1     16.9860234     23  2.300                                             
  local pseudopotential read in
  partial core-charges read in
  partial kinetic energy density read in
  atomic valenz-charges read in
  non local Contribution for L=           2  read in
    real space projection operators read in
  non local Contribution for L=           2  read in
    real space projection operators read in
  non local Contribution for L=           0  read in
    real space projection operators read in
  non local Contribution for L=           0  read in
    real space projection operators read in
  non local Contribution for L=           1  read in
    real space projection operators read in
  non local Contribution for L=           1  read in
    real space projection operators read in
    PAW grid and wavefunctions read in
 
   number of l-projection  operators is LMAX  =           6
   number of lm-projection operators is LMMAX =          18
 
 POTCAR:    PAW_PBE O 08Apr2002                   
   VRHFIN =O: s2p4                                                              
   LEXCH  = PE                                                                  
   EATOM  =   432.3788 eV,   31.7789 Ry                                         
                                                                                
   TITEL  = PAW_PBE O 08Apr2002                                                 
   LULTRA =        F    use ultrasoft PP ?                                      
   IUNSCR =        1    unscreen: 0-lin 1-nonlin 2-no                           
   RPACOR =    1.200    partial core radius                                     
   POMASS =   16.000; ZVAL   =    6.000    mass and valenz                      
   RCORE  =    1.520    outmost cutoff radius                                   
   RWIGS  =    1.550; RWIGS  =    0.820    wigner-seitz radius (au A)           
   ENMAX  =  400.000; ENMIN  =  300.000 eV                                      
   ICORE  =        2    local potential                                         
   LCOR   =        T    correct aug charges                                     
   LPAW   =        T    paw PP                                                  
   EAUG   =  605.392                                                            
   DEXC   =    0.000                                                            
   RMAX   =    1.553    core radius for proj-oper                               
   RAUG   =    1.300    factor for augmentation sphere                          
   RDEP   =    1.550    radius for radial grids                                 
   RDEPT  =    1.329    core radius for aug-charge                              
                                                                                
   Atomic configuration                                                         
    4 entries                                                                   
     n  l   j            E        occ.                                          
     1  0  0.50      -514.6923   2.0000                                         
     2  0  0.50       -23.9615   2.0000                                         
     2  1  0.50        -9.0305   4.0000                                         
     3  2  1.50        -9.5241   0.0000                                         
   Description                                                                  
     l       E           TYP  RCUT    TYP  RCUT                                 
     0    -23.9615318     23  1.200                                             
     0     -9.5240782     23  1.200                                             
     1     -9.0304911     23  1.520                                             
     1      8.1634956     23  1.520                                             
     2     -9.5240782      7  1.500                                             
  local pseudopotential read in
  partial core-charges read in
  partial kinetic energy density read in
  kinetic energy density of atom read in
  atomic valenz-charges read in
  non local Contribution for L=           0  read in
    real space projection operators read in
  non local Contribution for L=           0  read in
    real space projection operators read in
  non local Contribution for L=           1  read in
    real space projection operators read in
  non local Contribution for L=           1  read in
    real space projection operators read in
    PAW grid and wavefunctions read in
 
   number of l-projection  operators is LMAX  =           4
   number of lm-projection operators is LMMAX =           8
 
 Optimization of the real space projectors (new method)

 maximal supplied QI-value         = 18.33
 optimisation between [QCUT,QGAM] = [ 12.46, 24.93] = [ 43.51,174.03] Ry 
 Optimized for a Real-space Cutoff    1.13 Angstroem

   l    n(q)    QCUT    max X(q) W(low)/X(q) W(high)/X(q)  e(spline) 
   0      8    12.465    33.825    0.12E-03    0.29E-03    0.99E-07
   0      8    12.465     8.944    0.86E-04    0.22E-03    0.72E-07
   1      8    12.465     4.214    0.27E-03    0.11E-03    0.82E-07
 Optimization of the real space projectors (new method)

 maximal supplied QI-value         = 16.25
 optimisation between [QCUT,QGAM] = [ 12.51, 25.03] = [ 43.85,175.40] Ry 
 Optimized for a Real-space Cutoff    1.31 Angstroem

   l    n(q)    QCUT    max X(q) W(low)/X(q) W(high)/X(q)  e(spline) 
   2      9    12.514    65.824    0.30E-03    0.46E-03    0.43E-06
   2      9    12.514    61.429    0.31E-03    0.46E-03    0.44E-06
   0     10    12.514    56.174    0.90E-04    0.33E-03    0.30E-06
   0     10    12.514    31.263    0.81E-04    0.30E-03    0.28E-06
   1      9    12.514    19.828    0.38E-03    0.65E-04    0.24E-06
   1      9    12.514    15.139    0.32E-03    0.60E-04    0.20E-06
 Optimization of the real space projectors (new method)

 maximal supplied QI-value         = 24.76
 optimisation between [QCUT,QGAM] = [ 12.38, 25.00] = [ 42.90,175.06] Ry 
 Optimized for a Real-space Cutoff    1.13 Angstroem

   l    n(q)    QCUT    max X(q) W(low)/X(q) W(high)/X(q)  e(spline) 
   0      8    12.378    20.381    0.16E-03    0.54E-05    0.27E-06
   0      8    12.378    15.268    0.17E-03    0.61E-05    0.29E-06
   1      8    12.378     5.964    0.38E-03    0.23E-03    0.28E-06
   1      8    12.378     5.382    0.33E-03    0.20E-03    0.25E-06
  PAW_PBE Li 17Jan2003                  :
 energy of atom  1       EATOM=   -5.3001
 kinetic energy error for atom=    0.0000 (will be added to EATOM!!)
  PAW_PBE Co 02Aug2007                  :
 energy of atom  2       EATOM= -813.3670
 kinetic energy error for atom=    0.0018 (will be added to EATOM!!)
  PAW_PBE O 08Apr2002                   :
 energy of atom  3       EATOM= -432.3788
 kinetic energy error for atom=    0.0168 (will be added to EATOM!!)
 
 
 POSCAR: Li6 Co12 O24                            
  positions in cartesian coordinates
  No initial velocities read in
 exchange correlation table for  LEXCH =        8
   RHO(1)=    0.500       N(1)  =     2000
   RHO(2)=  100.500       N(2)  =     4000
 


--------------------------------------------------------------------------------------------------------


 ion  position               nearest neighbor table
   1  0.405  0.093  0.988-  36 1.77  25 2.08  37 2.11  23 2.14  15 2.42  24 2.43  38 2.51  16 2.79
                             9 2.81  10 3.09  17 3.10   8 3.18
   2  0.492  0.016  0.341-  31 1.89  33 1.98  19 2.13  32 2.17  22 2.30  21 2.35  10 2.47  14 2.74
                            11 2.78  13 2.82
   3  0.314  0.310  0.675-  42 1.88  27 1.96  39 1.99  28 2.18  40 2.22  29 2.48   5 2.48  15 2.63
                             4 2.69  16 2.75  14 2.76   6 2.88   6 2.91  17 2.97   4 2.99  11 3.06
   4  0.263  0.757  0.674-  40 1.85  28 1.98  41 2.18  27 2.21  30 2.22  39 2.22   6 2.62  16 2.66
                             3 2.69   5 2.79  12 2.82  18 2.84  15 2.87  13 2.90   5 2.96   3 2.99
   5  0.748  0.303  0.662-  27 1.94  30 2.01  29 2.03  42 2.06  41 2.10  40 2.14   3 2.48   6 2.56
                            14 2.73   4 2.79  13 2.82  12 2.83  15 2.89  18 2.90   4 2.96  17 2.97
   6  0.765  0.867  0.675-  41 1.79  29 1.94  39 2.07  28 2.25  42 2.25  30 2.36   5 2.56  17 2.60
                             4 2.62  13 2.80  16 2.83   3 2.88   3 2.91  11 2.93  18 2.94   5 3.11
   7  0.982  0.410  0.175-  20 1.81  19 1.86  22 1.95  23 1.98  25 2.04  24 2.11  10 2.78   8 2.81
                             8 2.85   9 2.86   9 2.86  10 2.93
   8  0.968  0.900  0.165-  19 1.78  21 1.83  20 1.86  23 1.91  26 1.99  24 1.99   9 2.81   7 2.81
                            10 2.85   7 2.85  10 2.87   9 2.89   1 3.18
   9  0.480  0.402  0.170-  26 1.80  23 1.82  22 1.87  25 1.91  21 1.94  20 1.97  10 2.79   1 2.81
                             8 2.81   7 2.86   7 2.86  10 2.87   8 2.89
  10  0.465  0.900  0.166-  22 1.82  19 1.83  25 1.86  21 1.88  24 1.91  26 2.01   2 2.47   7 2.78
                             9 2.79   8 2.85   9 2.87   8 2.87   7 2.93   1 3.09
  11  0.106  0.887  0.497-  34 1.79  30 1.93  32 1.93  31 2.00  29 2.01  27 2.16  12 2.71  14 2.77
                            13 2.77   2 2.78   6 2.93  14 2.94  12 2.94  13 2.95   3 3.06   4 3.15
  12  0.120  0.415  0.498-  32 1.75  30 1.88  33 1.99  28 2.00  29 2.00  31 2.09  11 2.71  14 2.78
                             4 2.82  13 2.82   5 2.83  13 2.89  11 2.94  14 2.95   3 3.19
  13  0.625  0.897  0.501-  28 1.87  29 1.89  33 1.91  32 1.93  27 1.94  34 2.06  11 2.77   6 2.80
                             5 2.82  12 2.82   2 2.82  14 2.82  14 2.83  12 2.89   4 2.90  11 2.95
  14  0.625  0.398  0.502-  34 1.86  28 1.93  33 1.94  30 1.94  31 1.98  27 2.00   5 2.73   2 2.74
                             3 2.76  11 2.77  12 2.78  13 2.82  13 2.83  11 2.94  12 2.95   6 3.12
  15  0.380  0.186  0.833-  36 1.79  39 1.87  35 1.95  41 1.96  37 1.98  42 2.01   1 2.42   3 2.63
                            16 2.81  18 2.81  16 2.84  17 2.85   4 2.87  17 2.87  18 2.89   5 2.89
  16  0.383  0.692  0.835-  36 1.87  38 1.93  35 1.94  42 1.96  40 1.99  41 2.04   4 2.66   3 2.75
                             1 2.79  15 2.81  17 2.82   6 2.83  18 2.84  15 2.84  18 2.88  17 2.88
  17  0.887  0.198  0.835-  35 1.80  41 1.83  38 1.91  40 1.95  39 1.98  37 2.00   6 2.60  18 2.82
                            16 2.82  18 2.83  15 2.85  15 2.87  16 2.88   3 2.97   5 2.97   1 3.10
  18  0.882  0.697  0.835-  36 1.83  42 1.88  37 1.88  38 1.90  40 1.98  39 2.03  15 2.81  17 2.82
                            17 2.83   4 2.84  16 2.84  16 2.88  15 2.89   5 2.90   6 2.94
  19  0.784  0.074  0.222-   8 1.78  10 1.83   7 1.86   2 2.13
  20  0.817  0.607  0.235-   7 1.81   8 1.86   9 1.97
  21  0.267  0.075  0.232-   8 1.83  10 1.88   9 1.94   2 2.35
  22  0.322  0.615  0.236-  10 1.82   9 1.87   7 1.95   2 2.30
  23  0.183  0.220  0.102-   9 1.82   8 1.91   7 1.98   1 2.14
  24  0.173  0.721  0.086-  10 1.91   8 1.99   7 2.11   1 2.43
  25  0.650  0.199  0.098-  10 1.86   9 1.91   7 2.04   1 2.08
  26  0.634  0.672  0.096-   9 1.80   8 1.99  10 2.01
  27  0.449  0.090  0.582-  13 1.94   5 1.94   3 1.96  14 2.00  11 2.16   4 2.21
  28  0.446  0.600  0.572-  13 1.87  14 1.93   4 1.98  12 2.00   3 2.18   6 2.25
  29  0.928  0.101  0.575-  13 1.89   6 1.94  12 2.00  11 2.01   5 2.03   3 2.48
  30  0.940  0.595  0.575-  12 1.88  11 1.93  14 1.94   5 2.01   4 2.22   6 2.36
  31  0.318  0.202  0.420-   2 1.89  14 1.98  11 2.00  12 2.09
  32  0.302  0.695  0.433-  12 1.75  13 1.93  11 1.93   2 2.17
  33  0.794  0.192  0.425-  13 1.91  14 1.94   2 1.98  12 1.99
  34  0.819  0.684  0.427-  11 1.79  14 1.86  13 2.06
  35  0.181  0.372  0.902-  17 1.80  16 1.94  15 1.95
  36  0.200  0.887  0.893-   1 1.77  15 1.79  18 1.83  16 1.87
  37  0.699  0.405  0.908-  18 1.88  15 1.98  17 2.00   1 2.11
  38  0.703  0.891  0.905-  18 1.90  17 1.91  16 1.93   1 2.51
  39  0.088  0.016  0.757-  15 1.87  17 1.98   3 1.99  18 2.03   6 2.07   4 2.22
  40  0.066  0.497  0.756-   4 1.85  17 1.95  18 1.98  16 1.99   5 2.14   3 2.22
  41  0.600  0.023  0.762-   6 1.79  17 1.83  15 1.96  16 2.04   5 2.10   4 2.18
  42  0.585  0.512  0.760-  18 1.88   3 1.88  16 1.96  15 2.01   5 2.06   6 2.25
 

IMPORTANT INFORMATION: All symmetrisations will be switched off!
NOSYMM: (Re-)initialisation of all symmetry stuff for point group C_1.

 
 

Automatic generation of k-mesh.
 generate k-points for:    6    6    2
Space group operators:
 irot       det(A)        alpha          n_x          n_y          n_z        tau_x        tau_y        tau_z
    1     1.000000     0.000000     1.000000     0.000000     0.000000     0.000000     0.000000     0.000000
 
 Subroutine IBZKPT returns following result:
 ===========================================
 
 Found     36 irreducible k-points:
 
 Following reciprocal coordinates:
            Coordinates               Weight
  0.083333  0.083333  0.250000      2.000000
  0.250000  0.083333  0.250000      2.000000
  0.416667  0.083333  0.250000      2.000000
 -0.416667  0.083333  0.250000      2.000000
 -0.250000  0.083333  0.250000      2.000000
 -0.083333  0.083333  0.250000      2.000000
  0.083333  0.250000  0.250000      2.000000
  0.250000  0.250000  0.250000      2.000000
  0.416667  0.250000  0.250000      2.000000
 -0.416667  0.250000  0.250000      2.000000
 -0.250000  0.250000  0.250000      2.000000
 -0.083333  0.250000  0.250000      2.000000
  0.083333  0.416667  0.250000      2.000000
  0.250000  0.416667  0.250000      2.000000
  0.416667  0.416667  0.250000      2.000000
 -0.416667  0.416667  0.250000      2.000000
 -0.250000  0.416667  0.250000      2.000000
 -0.083333  0.416667  0.250000      2.000000
  0.083333 -0.416667  0.250000      2.000000
  0.250000 -0.416667  0.250000      2.000000
  0.416667 -0.416667  0.250000      2.000000
 -0.416667 -0.416667  0.250000      2.000000
 -0.250000 -0.416667  0.250000      2.000000
 -0.083333 -0.416667  0.250000      2.000000
  0.083333 -0.250000  0.250000      2.000000
  0.250000 -0.250000  0.250000      2.000000
  0.416667 -0.250000  0.250000      2.000000
 -0.416667 -0.250000  0.250000      2.000000
 -0.250000 -0.250000  0.250000      2.000000
 -0.083333 -0.250000  0.250000      2.000000
  0.083333 -0.083333  0.250000      2.000000
  0.250000 -0.083333  0.250000      2.000000
  0.416667 -0.083333  0.250000      2.000000
 -0.416667 -0.083333  0.250000      2.000000
 -0.250000 -0.083333  0.250000      2.000000
 -0.083333 -0.083333  0.250000      2.000000
 
 Following cartesian coordinates:
            Coordinates               Weight
  0.014570  0.025342  0.018786      2.000000
  0.043710  0.042045  0.016020      2.000000
  0.072851  0.058748  0.013254      2.000000
 -0.072851 -0.024768  0.027084      2.000000
 -0.043710 -0.008065  0.024318      2.000000
 -0.014570  0.008639  0.021552      2.000000
  0.014570  0.059322  0.023357      2.000000
  0.043710  0.076025  0.020591      2.000000
  0.072851  0.092728  0.017825      2.000000
 -0.072851  0.009213  0.031655      2.000000
 -0.043710  0.025916  0.028889      2.000000
 -0.014570  0.042619  0.026123      2.000000
  0.014570  0.093302  0.027928      2.000000
  0.043710  0.110006  0.025161      2.000000
  0.072851  0.126709  0.022395      2.000000
 -0.072851  0.043193  0.036226      2.000000
 -0.043710  0.059896  0.033460      2.000000
 -0.014570  0.076599  0.030694      2.000000
  0.014570 -0.076599  0.005074      2.000000
  0.043710 -0.059896  0.002308      2.000000
  0.072851 -0.043193 -0.000458      2.000000
 -0.072851 -0.126709  0.013372      2.000000
 -0.043710 -0.110006  0.010606      2.000000
 -0.014570 -0.093302  0.007840      2.000000
  0.014570 -0.042619  0.009645      2.000000
  0.043710 -0.025916  0.006879      2.000000
  0.072851 -0.009213  0.004113      2.000000
 -0.072851 -0.092728  0.017943      2.000000
 -0.043710 -0.076025  0.015177      2.000000
 -0.014570 -0.059322  0.012411      2.000000
  0.014570 -0.008639  0.014216      2.000000
  0.043710  0.008065  0.011449      2.000000
  0.072851  0.024768  0.008683      2.000000
 -0.072851 -0.058748  0.022514      2.000000
 -0.043710 -0.042045  0.019748      2.000000
 -0.014570 -0.025342  0.016982      2.000000
 


--------------------------------------------------------------------------------------------------------




 Dimension of arrays:
   k-points           NKPTS =     36   k-points in BZ     NKDIM =     36   number of bands    NBANDS=    160
   number of dos      NEDOS =    301   number of ions     NIONS =     42
   non local maximal  LDIM  =      6   non local SUM 2l+1 LMDIM =     18
   total plane-waves  NPLWV = 116640
   max r-space proj   IRMAX =   2829   max aug-charges    IRDMAX=  11929
   dimension x,y,z NGX =    36 NGY =   36 NGZ =   90
   dimension x,y,z NGXF=    72 NGYF=   72 NGZF=  180
   support grid    NGXF=    72 NGYF=   72 NGZF=  180
   ions per type =               6  12  24
   NGX,Y,Z   is equivalent  to a cutoff of  10.46, 10.59, 10.46 a.u.
   NGXF,Y,Z  is equivalent  to a cutoff of  20.93, 21.17, 20.91 a.u.

 SYSTEM =  LiCoO2                                  
 POSCAR =  Li6 Co12 O24                            

 Startparameter for this run:
   NWRITE =      2    write-flag & timer
   PREC   = normal    normal or accurate (medium, high low for compatibility)
   ISTART =      0    job   : 0-new  1-cont  2-samecut
   ICHARG =      2    charge: 1-file 2-atom 10-const
   ISPIN  =      2    spin polarized calculation?
   LNONCOLLINEAR =      F non collinear calculations
   LSORBIT =      F    spin-orbit coupling
   INIWAV =      1    electr: 0-lowe 1-rand  2-diag
   LASPH  =      F    aspherical Exc in radial PAW
   METAGGA=      F    non-selfconsistent MetaGGA calc.

 Electronic Relaxation 1
   ENCUT  =  600.0 eV  44.10 Ry    6.64 a.u.  11.42 11.29 28.58*2*pi/ulx,y,z
   ENINI  =  600.0     initial cutoff
   ENAUG  =  605.4 eV  augmentation charge cutoff
   NELM   =    600;   NELMIN=  2; NELMDL= -5     # of ELM steps 
   EDIFF  = 0.1E-05   stopping-criterion for ELM
   LREAL  =      T    real-space projection
   NLSPLINE    = F    spline interpolate recip. space projectors
   LCOMPAT=      F    compatible to vasp.4.4
   GGA_COMPAT  = T    GGA compatible to vasp.4.4-vasp.4.6
   LMAXPAW     = -100 max onsite density
   LMAXMIX     =    2 max onsite mixed and CHGCAR
   VOSKOWN=      0    Vosko Wilk Nusair interpolation
   ROPT   =   -0.00050  -0.00050  -0.00050
 Ionic relaxation
   EDIFFG = 0.1E-04   stopping-criterion for IOM
   NSW    =      0    number of steps for IOM
   NBLOCK =      1;   KBLOCK =      1    inner block; outer block 
   IBRION =     -1    ionic relax: 0-MD 1-quasi-New 2-CG
   NFREE  =      0    steps in history (QN), initial steepest desc. (CG)
   ISIF   =      2    stress and relaxation
   IWAVPR =     10    prediction:  0-non 1-charg 2-wave 3-comb
   ISYM   =      0    0-nonsym 1-usesym 2-fastsym
   LCORR  =      T    Harris-Foulkes like correction to forces

   POTIM  = 0.5000    time-step for ionic-motion
   TEIN   =    0.0    initial temperature
   TEBEG  =    0.0;   TEEND  =   0.0 temperature during run
   SMASS  =  -3.00    Nose mass-parameter (am)
   estimated Nose-frequenzy (Omega)   =  0.10E-29 period in steps =****** mass=  -0.748E-27a.u.
   SCALEE = 1.0000    scale energy and forces
   NPACO  =    256;   APACO  = 16.0  distance and # of slots for P.C.
   PSTRESS=    0.0 pullay stress

  Mass of Ions in am
   POMASS =   7.01 58.93 16.00
  Ionic Valenz
   ZVAL   =   1.00  9.00  6.00
  Atomic Wigner-Seitz radii
   RWIGS  =  -1.00 -1.00 -1.00
  virtual crystal weights 
   VCA    =   1.00  1.00  1.00
   NELECT =     258.0000    total number of electrons
   NUPDOWN=       6.0000    fix difference up-down

 DOS related values:
   EMIN   =  10.00;   EMAX   =-10.00  energy-range for DOS
   EFERMI =   0.00
   ISMEAR =     0;   SIGMA  =   0.05  broadening in eV -4-tet -1-fermi 0-gaus

 Electronic relaxation 2 (details)
   IALGO  =     58    algorithm
   LDIAG  =      T    sub-space diagonalisation (order eigenvalues)
   LSUBROT=      F    optimize rotation matrix (better conditioning)
   TURBO    =      0    0=normal 1=particle mesh
   IRESTART =      0    0=no restart 2=restart with 2 vectors
   NREBOOT  =      0    no. of reboots
   NMIN     =      0    reboot dimension
   EREF     =   0.00    reference energy to select bands
   IMIX   =      4    mixing-type and parameters
     AMIX     =   0.40;   BMIX     =  1.00
     AMIX_MAG =   1.60;   BMIX_MAG =  1.00
     AMIN     =   0.10
     WC   =   100.;   INIMIX=   1;  MIXPRE=   1;  MAXMIX= -45

 Intra band minimization:
   WEIMIN = 0.0000     energy-eigenvalue tresh-hold
   EBREAK =  0.16E-08  absolut break condition
   DEPER  =   0.30     relativ break condition  

   TIME   =   0.40     timestep for ELM

  volume/ion in A,a.u.               =       9.34        63.01
  Fermi-wavevector in a.u.,A,eV,Ry     =   1.423848  2.690682 27.583661  2.027342
  Thomas-Fermi vector in A             =   2.544401
 
 Write flags
   LWAVE        =      F    write WAVECAR
   LDOWNSAMPLE  =      F    k-point downsampling of WAVECAR
   LCHARG       =      F    write CHGCAR
   LVTOT        =      F    write LOCPOT, total local potential
   LVHAR        =      F    write LOCPOT, Hartree potential only
   LELF         =      F    write electronic localiz. function (ELF)
   LORBIT       =     11    0 simple, 1 ext, 2 COOP (PROOUT), +10 PAW based schemes


 Dipole corrections
   LMONO  =      F    monopole corrections only (constant potential shift)
   LDIPOL =      F    correct potential (dipole corrections)
   IDIPOL =      0    1-x, 2-y, 3-z, 4-all directions 
   EPSILON=  1.0000000 bulk dielectric constant

 LDA+U is selected, type is set to LDAUTYPE =  2
   angular momentum for each species LDAUL =    -1    2   -1
   U (eV)           for each species LDAUU =   0.0  5.1  0.0
   J (eV)           for each species LDAUJ =   0.0  0.0  0.0
 Exchange correlation treatment:
   GGA     =    --    GGA type
   LEXCH   =     8    internal setting for exchange type
   VOSKOWN=      0    Vosko Wilk Nusair interpolation
   LHFCALC =     F    Hartree Fock is set to
   LHFONE  =     F    Hartree Fock one center treatment
   AEXX    =    0.0000 exact exchange contribution

 Linear response parameters
   LEPSILON=     F    determine dielectric tensor
   LRPA    =     F    only Hartree local field effects (RPA)
   LNABLA  =     F    use nabla operator in PAW spheres
   LVEL    =     F    velocity operator in full k-point grid
   LINTERFAST=   F  fast interpolation
   KINTER  =     0    interpolate to denser k-point grid
   CSHIFT  =0.1000    complex shift for real part using Kramers Kronig
   OMEGAMAX=  -1.0    maximum frequency
   DEG_THRESHOLD= 0.2000000E-02 threshold for treating states as degnerate
   RTIME   =   -0.100 relaxation time in fs
  (WPLASMAI=    0.000 imaginary part of plasma frequency in eV, 0.658/RTIME)
   DFIELD  = 0.0000000 0.0000000 0.0000000 field for delta impulse in time
 
 Orbital magnetization related:
   ORBITALMAG=     F  switch on orbital magnetization
   LCHIMAG   =     F  perturbation theory with respect to B field
   DQ        =  0.001000  dq finite difference perturbation B field
   LLRAUG    =     F  two centre corrections for induced B field



--------------------------------------------------------------------------------------------------------


 Static calculation
 charge density and potential will be updated during run
 spin polarized calculation
 Conjugate gradient for all bands (Freysoldt, et al. PRB 79, 241103 (2009))
 preconditioned conjugated gradient                                        
 perform sub-space diagonalisation
    before iterative eigenvector-optimisation
 modified Broyden-mixing scheme, WC =      100.0
 initial mixing is a Kerker type mixing with AMIX =  0.4000 and BMIX =      1.0000
 Hartree-type preconditioning will be used
 using additional bands           31
 real space projection scheme for non local part
 use partial core corrections
 no Harris-corrections to forces 
 use gradient corrections 
 use of overlap-Matrix (Vanderbilt PP)
 Gauss-broadening in eV      SIGMA  =   0.05


--------------------------------------------------------------------------------------------------------


  energy-cutoff  :      600.00
  volume of cell :      392.15
      direct lattice vectors                 reciprocal lattice vectors
     5.719455719  0.000000000  0.000000000     0.174841812  0.100218729 -0.016596443
    -2.811412096  4.904795647  0.000000000     0.000000000  0.203882093  0.027424064
     2.404720068 -1.880315900 13.979063988     0.000000000  0.000000000  0.071535548

  length of vectors
     5.719455719  5.653411210 14.308476385     0.202210026  0.205718222  0.071535548


 
 k-points in units of 2pi/SCALE and weight: read from INCAR                         
   0.01457015  0.02534174  0.01878619       0.028
   0.04371045  0.04204486  0.01602011       0.028
   0.07285075  0.05874798  0.01325404       0.028
  -0.07285075 -0.02476763  0.02708441       0.028
  -0.04371045 -0.00806451  0.02431834       0.028
  -0.01457015  0.00863861  0.02155226       0.028
   0.01457015  0.05932208  0.02335687       0.028
   0.04371045  0.07602521  0.02059079       0.028
   0.07285075  0.09272833  0.01782472       0.028
  -0.07285075  0.00921272  0.03165509       0.028
  -0.04371045  0.02591584  0.02888901       0.028
  -0.01457015  0.04261896  0.02612294       0.028
   0.01457015  0.09330243  0.02792754       0.028
   0.04371045  0.11000555  0.02516147       0.028
   0.07285075  0.12670868  0.02239540       0.028
  -0.07285075  0.04319307  0.03622576       0.028
  -0.04371045  0.05989619  0.03345969       0.028
  -0.01457015  0.07659931  0.03069362       0.028
   0.01457015 -0.07659931  0.00507416       0.028
   0.04371045 -0.05989619  0.00230808       0.028
   0.07285075 -0.04319307 -0.00045799       0.028
  -0.07285075 -0.12670868  0.01337238       0.028
  -0.04371045 -0.11000555  0.01060630       0.028
  -0.01457015 -0.09330243  0.00784023       0.028
   0.01457015 -0.04261896  0.00964483       0.028
   0.04371045 -0.02591584  0.00687876       0.028
   0.07285075 -0.00921272  0.00411269       0.028
  -0.07285075 -0.09272833  0.01794306       0.028
  -0.04371045 -0.07602521  0.01517698       0.028
  -0.01457015 -0.05932208  0.01241091       0.028
   0.01457015 -0.00863861  0.01421551       0.028
   0.04371045  0.00806451  0.01144944       0.028
   0.07285075  0.02476763  0.00868336       0.028
  -0.07285075 -0.05874798  0.02251373       0.028
  -0.04371045 -0.04204486  0.01974766       0.028
  -0.01457015 -0.02534174  0.01698159       0.028
 
 k-points in reciprocal lattice and weights: read from INCAR                         
   0.08333333  0.08333333  0.25000000       0.028
   0.25000000  0.08333333  0.25000000       0.028
   0.41666667  0.08333333  0.25000000       0.028
  -0.41666667  0.08333333  0.25000000       0.028
  -0.25000000  0.08333333  0.25000000       0.028
  -0.08333333  0.08333333  0.25000000       0.028
   0.08333333  0.25000000  0.25000000       0.028
   0.25000000  0.25000000  0.25000000       0.028
   0.41666667  0.25000000  0.25000000       0.028
  -0.41666667  0.25000000  0.25000000       0.028
  -0.25000000  0.25000000  0.25000000       0.028
  -0.08333333  0.25000000  0.25000000       0.028
   0.08333333  0.41666667  0.25000000       0.028
   0.25000000  0.41666667  0.25000000       0.028
   0.41666667  0.41666667  0.25000000       0.028
  -0.41666667  0.41666667  0.25000000       0.028
  -0.25000000  0.41666667  0.25000000       0.028
  -0.08333333  0.41666667  0.25000000       0.028
   0.08333333 -0.41666667  0.25000000       0.028
   0.25000000 -0.41666667  0.25000000       0.028
   0.41666667 -0.41666667  0.25000000       0.028
  -0.41666667 -0.41666667  0.25000000       0.028
  -0.25000000 -0.41666667  0.25000000       0.028
  -0.08333333 -0.41666667  0.25000000       0.028
   0.08333333 -0.25000000  0.25000000       0.028
   0.25000000 -0.25000000  0.25000000       0.028
   0.41666667 -0.25000000  0.25000000       0.028
  -0.41666667 -0.25000000  0.25000000       0.028
  -0.25000000 -0.25000000  0.25000000       0.028
  -0.08333333 -0.25000000  0.25000000       0.028
   0.08333333 -0.08333333  0.25000000       0.028
   0.25000000 -0.08333333  0.25000000       0.028
   0.41666667 -0.08333333  0.25000000       0.028
  -0.41666667 -0.08333333  0.25000000       0.028
  -0.25000000 -0.08333333  0.25000000       0.028
  -0.08333333 -0.08333333  0.25000000       0.028
 
 position of ions in fractional coordinates (direct lattice) 
   0.40539097  0.09252648  0.98784652
   0.49207046  0.01618008  0.34134688
   0.31419984  0.30994683  0.67457594
   0.26253892  0.75731009  0.67352580
   0.74792069  0.30299473  0.66221173
   0.76467029  0.86732693  0.67507880
   0.98216413  0.40952686  0.17514907
   0.96757009  0.90003243  0.16468771
   0.48020876  0.40227555  0.17023171
   0.46465918  0.89980338  0.16628152
   0.10619816  0.88733377  0.49666703
   0.11979211  0.41486585  0.49784307
   0.62478804  0.89697639  0.50101995
   0.62490649  0.39835724  0.50197996
   0.37976833  0.18642020  0.83298926
   0.38337104  0.69236261  0.83486351
   0.88727185  0.19849714  0.83511388
   0.88236661  0.69698642  0.83459165
   0.78415250  0.07388127  0.22212359
   0.81738370  0.60663449  0.23491702
   0.26662866  0.07463335  0.23230741
   0.32176021  0.61457771  0.23636347
   0.18267467  0.22014396  0.10233446
   0.17255606  0.72066706  0.08567956
   0.65003694  0.19875933  0.09796435
   0.63428283  0.67170336  0.09567951
   0.44916003  0.09037687  0.58206184
   0.44618252  0.59996040  0.57198537
   0.92768766  0.10089006  0.57461360
   0.93960070  0.59527833  0.57528027
   0.31782917  0.20221680  0.42042515
   0.30178906  0.69455133  0.43346036
   0.79356313  0.19236492  0.42516294
   0.81892975  0.68354699  0.42745924
   0.18062365  0.37241141  0.90226428
   0.19979644  0.88693014  0.89268569
   0.69941999  0.40456641  0.90776533
   0.70300007  0.89073348  0.90513286
   0.08826695  0.01592818  0.75685394
   0.06640303  0.49708574  0.75621013
   0.59982336  0.02292509  0.76161826
   0.58460919  0.51173638  0.76037349
 
 position of ions in cartesian coordinates  (Angst):
   4.43397999 -1.40364003 13.80916977
   3.58973002 -0.56247997  4.77170992
   2.54783010  0.25181001  9.42994022
   0.99211001  2.44800997  9.41526031
   5.01829004  0.24096000  9.25710011
   3.55846000  2.98469996  9.43696976
   4.88727999  1.67930996  2.44842005
   3.39964008  4.10481024  2.30218005
   2.02493000  1.65298998  2.37967992
   0.52774000  4.10068989  2.32446003
  -0.69292003  3.41829991  6.94294024
   0.71596003  1.09872997  6.95938015
   2.25648999  3.45741010  7.00378990
   3.66129994  1.00997996  7.01721001
   3.65107012 -0.65192997 11.64441013
   2.25377011  1.82608998 11.67061043
   6.52486992 -0.59669000 11.67411041
   5.09410000  1.84928000 11.66681004
   4.81135988 -0.05529000  3.10507989
   3.53439999  2.53369999  3.28392005
   1.87378001 -0.07075000  3.24744010
   0.68085003  2.56994009  3.30414009
   0.67197001  0.88734001  1.43053997
  -0.83313000  3.37362003  1.19772005
   3.39463997  0.79066998  1.36944997
   1.96940005  3.11466002  1.33750999
   3.71456003 -0.65118003  8.13667965
   2.24064994  1.86716998  7.99582005
   6.40400982 -0.58560997  8.03256035
   5.08381987  1.83800995  8.04187965
   2.26029992  0.20130000  5.87715006
   0.81575000  2.59158993  6.05937004
   5.02032995  0.14407000  5.94337988
   3.79001999  2.54889989  5.97548008
   2.15576005  0.13006000 12.61281013
   0.79585999  2.67167997 12.47891045
   5.04582024  0.27743000 12.68970966
   3.69315004  2.66692996 12.65291023
   2.28008008 -1.34500003 10.58010960
   0.80075002  1.01619005 10.57110977
   5.19769001 -1.31964004 10.64671040
   3.73342991  1.08021998 10.62930965
 


--------------------------------------------------------------------------------------------------------


 k-point  1 :   0.0833 0.0833 0.2500  plane waves:   13105
 k-point  2 :   0.2500 0.0833 0.2500  plane waves:   13081
 k-point  3 :   0.4167 0.0833 0.2500  plane waves:   13049
 k-point  4 :  -0.4167 0.0833 0.2500  plane waves:   13074
 k-point  5 :  -0.2500 0.0833 0.2500  plane waves:   13114
 k-point  6 :  -0.0833 0.0833 0.2500  plane waves:   13119
 k-point  7 :   0.0833 0.2500 0.2500  plane waves:   13081
 k-point  8 :   0.2500 0.2500 0.2500  plane waves:   13065
 k-point  9 :   0.4167 0.2500 0.2500  plane waves:   13061
 k-point 10 :  -0.4167 0.2500 0.2500  plane waves:   13089
 k-point 11 :  -0.2500 0.2500 0.2500  plane waves:   13093
 k-point 12 :  -0.0833 0.2500 0.2500  plane waves:   13095
 k-point 13 :   0.0833 0.4167 0.2500  plane waves:   13098
 k-point 14 :   0.2500 0.4167 0.2500  plane waves:   13098
 k-point 15 :   0.4167 0.4167 0.2500  plane waves:   13080
 k-point 16 :  -0.4167 0.4167 0.2500  plane waves:   13079
 k-point 17 :  -0.2500 0.4167 0.2500  plane waves:   13081
 k-point 18 :  -0.0833 0.4167 0.2500  plane waves:   13096
 k-point 19 :   0.0833-0.4167 0.2500  plane waves:   13081
 k-point 20 :   0.2500-0.4167 0.2500  plane waves:   13074
 k-point 21 :   0.4167-0.4167 0.2500  plane waves:   13083
 k-point 22 :  -0.4167-0.4167 0.2500  plane waves:   13084
 k-point 23 :  -0.2500-0.4167 0.2500  plane waves:   13088
 k-point 24 :  -0.0833-0.4167 0.2500  plane waves:   13092
 k-point 25 :   0.0833-0.2500 0.2500  plane waves:   13109
 k-point 26 :   0.2500-0.2500 0.2500  plane waves:   13105
 k-point 27 :   0.4167-0.2500 0.2500  plane waves:   13067
 k-point 28 :  -0.4167-0.2500 0.2500  plane waves:   13065
 k-point 29 :  -0.2500-0.2500 0.2500  plane waves:   13085
 k-point 30 :  -0.0833-0.2500 0.2500  plane waves:   13079
 k-point 31 :   0.0833-0.0833 0.2500  plane waves:   13107
 k-point 32 :   0.2500-0.0833 0.2500  plane waves:   13105
 k-point 33 :   0.4167-0.0833 0.2500  plane waves:   13062
 k-point 34 :  -0.4167-0.0833 0.2500  plane waves:   13054
 k-point 35 :  -0.2500-0.0833 0.2500  plane waves:   13101
 k-point 36 :  -0.0833-0.0833 0.2500  plane waves:   13131

 maximum and minimum number of plane-waves per node :      3313     3235

 maximum number of plane-waves:     13131
 maximum index in each direction: 
   IXMAX=   11   IYMAX=   11   IZMAX=   28
   IXMIN=  -11   IYMIN=  -11   IZMIN=  -28


 real space projection operators:
  total allocation   :       7560.80 KBytes
  max/ min on nodes  :       1896.17       1886.38


 parallel 3D FFT for wavefunctions:
    minimum data exchange during FFTs selected (reduces bandwidth)
 parallel 3D FFT for charge:
    minimum data exchange during FFTs selected (reduces bandwidth)


 total amount of memory used by VASP MPI-rank0   158793. kBytes
=======================================================================

   base      :      30000. kBytes
   nonlr-proj:       4340. kBytes
   fftplans  :       1687. kBytes
   grid      :       4644. kBytes
   one-center:        342. kBytes
   wavefun   :     117780. kBytes
 
     INWAV:  cpu time    0.0001: real time    0.0003
 Broyden mixing: mesh for mixing (old mesh)
   NGX = 23   NGY = 23   NGZ = 57
  (NGX  = 72   NGY  = 72   NGZ  =180)
  gives a total of  30153 points

 initial charge density was supplied:
 charge density of overlapping atoms calculated
 number of electron     258.0000000 magnetization       6.0000000
 keeping initial charge density in first step


--------------------------------------------------------------------------------------------------------


 Maximum index for non-local projection operator          692
 Maximum index for augmentation-charges         1030 (set IRDMAX)


--------------------------------------------------------------------------------------------------------


 First call to EWALD:  gamma=   0.242
 Maximum number of real-space cells 4x 4x 2
 Maximum number of reciprocal cells 2x 2x 5

    FEWALD:  cpu time    0.0050: real time    0.0050


--------------------------------------- Iteration      1(   1)  ---------------------------------------


    POTLOK:  cpu time    0.0706: real time    0.0943
    SETDIJ:  cpu time    0.0188: real time    0.0198
    TRIAL :  cpu time   20.8252: real time   21.0462
    CORREC:  cpu time    0.0042: real time    0.0041
    --------------------------------------------
      LOOP:  cpu time   21.1231: real time   21.3702

 eigenvalue-minimisations  : 23040
 total energy-change (2. order) : 0.3476036E+04  (-0.1393991E+05)
 number of electron     258.0000000 magnetization       6.0000000
 augmentation part      258.0000000 magnetization       6.0000000

 Free energy of the ion-electron system (eV)
  ---------------------------------------------------
  alpha Z        PSCENC =       747.58571711
  Ewald energy   TEWEN  =    -14328.89956677
  -Hartree energ DENC   =     -6704.09106664
  -exchange      EXHF   =         0.00000000
  -V(xc)+E(xc)   XCENC  =       841.38919299
  PAW double counting   =     17015.18481625   -17491.61297812
  entropy T*S    EENTRO =        -0.00746101
  eigenvalues    EBANDS =      3227.61653463
  atomic energy  EATOM  =     20168.87094289
  ---------------------------------------------------
  free energy    TOTEN  =      3476.03613132 eV

  energy without entropy =     3476.04359233  energy(sigma->0) =     3476.03986183


--------------------------------------------------------------------------------------------------------




--------------------------------------- Iteration      1(   2)  ---------------------------------------


    TRIAL :  cpu time   21.8729: real time   21.9782
    CORREC:  cpu time    0.0043: real time    0.0043
    --------------------------------------------
      LOOP:  cpu time   21.8814: real time   21.9867

 eigenvalue-minimisations  : 24704
 total energy-change (2. order) :-0.3067334E+04  (-0.2833854E+04)
 number of electron     258.0000000 magnetization       6.0000000
 augmentation part      258.0000000 magnetization       6.0000000

 Free energy of the ion-electron system (eV)
  ---------------------------------------------------
  alpha Z        PSCENC =       747.58571711
  Ewald energy   TEWEN  =    -14328.89956677
  -Hartree energ DENC   =     -6704.09106664
  -exchange      EXHF   =         0.00000000
  -V(xc)+E(xc)   XCENC  =       841.38919299
  PAW double counting   =     17015.18481625   -17491.61297812
  entropy T*S    EENTRO =        -0.02132278
  eigenvalues    EBANDS =       160.29603807
  atomic energy  EATOM  =     20168.87094289
  ---------------------------------------------------
  free energy    TOTEN  =       408.70177300 eV

  energy without entropy =      408.72309578  energy(sigma->0) =      408.71243439


--------------------------------------------------------------------------------------------------------




--------------------------------------- Iteration      1(   3)  ---------------------------------------


    TRIAL :  cpu time   22.5620: real time   22.9303
    CORREC:  cpu time    0.0045: real time    0.0046
    --------------------------------------------
      LOOP:  cpu time   22.5706: real time   22.9389

 eigenvalue-minimisations  : 25632
 total energy-change (2. order) :-0.6272170E+03  (-0.5687192E+03)
 number of electron     258.0000000 magnetization       6.0000000
 augmentation part      258.0000000 magnetization       6.0000000

 Free energy of the ion-electron system (eV)
  ---------------------------------------------------
  alpha Z        PSCENC =       747.58571711
  Ewald energy   TEWEN  =    -14328.89956677
  -Hartree energ DENC   =     -6704.09106664
  -exchange      EXHF   =         0.00000000
  -V(xc)+E(xc)   XCENC  =       841.38919299
  PAW double counting   =     17015.18481625   -17491.61297812
  entropy T*S    EENTRO =        -0.02351023
  eigenvalues    EBANDS =      -466.91873981
  atomic energy  EATOM  =     20168.87094289
  ---------------------------------------------------
  free energy    TOTEN  =      -218.51519233 eV

  energy without entropy =     -218.49168210  energy(sigma->0) =     -218.50343722


--------------------------------------------------------------------------------------------------------




--------------------------------------- Iteration      1(   4)  ---------------------------------------


    TRIAL :  cpu time   22.0740: real time   22.2642
    CORREC:  cpu time    0.0043: real time    0.0043
    --------------------------------------------
      LOOP:  cpu time   22.0786: real time   22.2731

 eigenvalue-minimisations  : 25248
 total energy-change (2. order) :-0.5159711E+02  (-0.5056509E+02)
 number of electron     258.0000000 magnetization       6.0000000
 augmentation part      258.0000000 magnetization       6.0000000

 Free energy of the ion-electron system (eV)
  ---------------------------------------------------
  alpha Z        PSCENC =       747.58571711
  Ewald energy   TEWEN  =    -14328.89956677
  -Hartree energ DENC   =     -6704.09106664
  -exchange      EXHF   =         0.00000000
  -V(xc)+E(xc)   XCENC  =       841.38919299
  PAW double counting   =     17015.18481625   -17491.61297812
  entropy T*S    EENTRO =        -0.01940409
  eigenvalues    EBANDS =      -518.51995135
  atomic energy  EATOM  =     20168.87094289
  ---------------------------------------------------
  free energy    TOTEN  =      -270.11229774 eV

  energy without entropy =     -270.09289365  energy(sigma->0) =     -270.10259569


--------------------------------------------------------------------------------------------------------




--------------------------------------- Iteration      1(   5)  ---------------------------------------


    TRIAL :  cpu time   25.0304: real time   25.1870
    CORREC:  cpu time    0.0048: real time    0.0050
    CHARGE:  cpu time    0.4304: real time    0.4330
    --------------------------------------------
      LOOP:  cpu time   25.4698: real time   25.6292

 eigenvalue-minimisations  : 29056
 total energy-change (2. order) :-0.1835163E+01  (-0.1831885E+01)
 number of electron     257.9999969 magnetization       5.9999994
 augmentation part       67.8360535 magnetization       4.2554553

 Free energy of the ion-electron system (eV)
  ---------------------------------------------------
  alpha Z        PSCENC =       747.58571711
  Ewald energy   TEWEN  =    -14328.89956677
  -Hartree energ DENC   =     -6704.09106664
  -exchange      EXHF   =         0.00000000
  -V(xc)+E(xc)   XCENC  =       841.38919299
  PAW double counting   =     17015.18481625   -17491.61297812
  entropy T*S    EENTRO =        -0.01948720
  eigenvalues    EBANDS =      -520.35503118
  atomic energy  EATOM  =     20168.87094289
  ---------------------------------------------------
  free energy    TOTEN  =      -271.94746067 eV

  energy without entropy =     -271.92797347  energy(sigma->0) =     -271.93771707


--------------------------------------------------------------------------------------------------------




--------------------------------------- Iteration      1(   6)  ---------------------------------------


    POTLOK:  cpu time    0.0469: real time    0.0470
    SETDIJ:  cpu time    0.0128: real time    0.0128
    TRIAL :  cpu time   11.8752: real time   12.1012
    CORREC:  cpu time    4.0271: real time    4.0418
    CHARGE:  cpu time    0.4243: real time    0.4256
    --------------------------------------------
      LOOP:  cpu time   16.3909: real time   16.6334

 eigenvalue-minimisations  :     0
 total energy-change (2. order) : 0.4201304E+03  (-0.2259511E+03)
 number of electron     257.9999964 magnetization       6.0000000
 augmentation part       70.1769992 magnetization       4.3961349

 Free energy of the ion-electron system (eV)
  ---------------------------------------------------
  alpha Z        PSCENC =       747.58571711
  Ewald energy   TEWEN  =    -14328.89956677
  -Hartree energ DENC   =     -6462.06516875
  -exchange      EXHF   =         0.00000000
  -V(xc)+E(xc)   XCENC  =       875.95486655
  PAW double counting   =     23294.54961846   -23499.57895465
  entropy T*S    EENTRO =        -0.06767641
  eigenvalues    EBANDS =      -648.21501972
  atomic energy  EATOM  =     20168.87094289
  ---------------------------------------------------
  free energy    TOTEN  =       148.18294791 eV

  energy without entropy =      148.25062432  energy(sigma->0) =      148.21678611


--------------------------------------------------------------------------------------------------------




--------------------------------------- Iteration      1(   7)  ---------------------------------------


    POTLOK:  cpu time    0.0466: real time    0.0469
    SETDIJ:  cpu time    0.0128: real time    0.0128
    TRIAL :  cpu time   11.7217: real time   11.7756
    CORREC:  cpu time    5.0178: real time    5.0509
    CHARGE:  cpu time    0.4907: real time    0.4926
    --------------------------------------------
      LOOP:  cpu time   17.2936: real time   17.3829

 eigenvalue-minimisations  :     0
 total energy-change (2. order) :-0.7721508E+02  (-0.1359831E+03)
 number of electron     257.9999968 magnetization       5.9999999
 augmentation part       70.5683102 magnetization       3.9233451

 Free energy of the ion-electron system (eV)
  ---------------------------------------------------
  alpha Z        PSCENC =       747.58571711
  Ewald energy   TEWEN  =    -14328.89956677
  -Hartree energ DENC   =     -6426.78282099
  -exchange      EXHF   =         0.00000000
  -V(xc)+E(xc)   XCENC  =       866.02395183
  PAW double counting   =     23264.51372805   -23565.33056614
  entropy T*S    EENTRO =        -0.04961522
  eigenvalues    EBANDS =      -654.94584112
  atomic energy  EATOM  =     20168.87094289
  ---------------------------------------------------
  free energy    TOTEN  =        70.96786845 eV

  energy without entropy =       71.01748367  energy(sigma->0) =       70.99267606


--------------------------------------------------------------------------------------------------------




--------------------------------------- Iteration      1(   8)  ---------------------------------------


    POTLOK:  cpu time    0.0554: real time    0.0554
    SETDIJ:  cpu time    0.0169: real time    0.0171
    TRIAL :  cpu time   12.2188: real time   12.2669
    CORREC:  cpu time    4.3687: real time    4.3843
    CHARGE:  cpu time    0.4143: real time    0.4154
    --------------------------------------------
      LOOP:  cpu time   17.0783: real time   17.1434

 eigenvalue-minimisations  :     0
 total energy-change (2. order) : 0.1194906E+03  (-0.1385729E+04)
 number of electron     258.0000000 magnetization       6.0000001
 augmentation part       59.6041631 magnetization       1.3084314

 Free energy of the ion-electron system (eV)
  ---------------------------------------------------
  alpha Z        PSCENC =       747.58571711
  Ewald energy   TEWEN  =    -14328.89956677
  -Hartree energ DENC   =     -6422.18879959
  -exchange      EXHF   =         0.00000000
  -V(xc)+E(xc)   XCENC  =       852.21498889
  PAW double counting   =     23024.71641978   -23353.87179058
  entropy T*S    EENTRO =        -0.03077780
  eigenvalues    EBANDS =      -497.91980669
  atomic energy  EATOM  =     20168.87094289
  ---------------------------------------------------
  free energy    TOTEN  =       190.45848981 eV

  energy without entropy =      190.48926762  energy(sigma->0) =      190.47387871


--------------------------------------------------------------------------------------------------------




--------------------------------------- Iteration      1(   9)  ---------------------------------------


    POTLOK:  cpu time    0.0458: real time    0.0458
    SETDIJ:  cpu time    0.0126: real time    0.0128
    TRIAL :  cpu time   11.5527: real time   11.5994
    CORREC:  cpu time    4.1272: real time    4.1481
    CHARGE:  cpu time    0.4107: real time    0.4131
    --------------------------------------------
      LOOP:  cpu time   16.1532: real time   16.2235

 eigenvalue-minimisations  :     0
 total energy-change (2. order) : 0.1737212E+04  (-0.9171326E+03)
 number of electron     257.9999988 magnetization       6.0000001
 augmentation part       63.7050540 magnetization       1.3595313

 Free energy of the ion-electron system (eV)
  ---------------------------------------------------
  alpha Z        PSCENC =       747.58571711
  Ewald energy   TEWEN  =    -14328.89956677
  -Hartree energ DENC   =     -5497.67100662
  -exchange      EXHF   =         0.00000000
  -V(xc)+E(xc)   XCENC  =       752.83558144
  PAW double counting   =    166084.54111158  -166033.66207191
  entropy T*S    EENTRO =        -0.03161687
  eigenvalues    EBANDS =        34.10070851
  atomic energy  EATOM  =     20168.87094289
  ---------------------------------------------------
  free energy    TOTEN  =      1927.67063841 eV

  energy without entropy =     1927.70225528  energy(sigma->0) =     1927.68644685


--------------------------------------------------------------------------------------------------------




--------------------------------------- Iteration      1(  10)  ---------------------------------------


    POTLOK:  cpu time    0.0461: real time    0.0477
    SETDIJ:  cpu time    0.0127: real time    0.0127
    TRIAL :  cpu time   11.5121: real time   11.5990
    CORREC:  cpu time    4.1592: real time    4.1790
    CHARGE:  cpu time    0.4124: real time    0.4140
    --------------------------------------------
      LOOP:  cpu time   16.1466: real time   16.2565

 eigenvalue-minimisations  :     0
 total energy-change (2. order) : 0.4206984E+02  (-0.5254881E+03)
 number of electron     257.9999984 magnetization       6.0000000
 augmentation part       72.5227635 magnetization       1.2728658

 Free energy of the ion-electron system (eV)
  ---------------------------------------------------
  alpha Z        PSCENC =       747.58571711
  Ewald energy   TEWEN  =    -14328.89956677
  -Hartree energ DENC   =     -5485.21883688
  -exchange      EXHF   =         0.00000000
  -V(xc)+E(xc)   XCENC  =       740.39626589
  PAW double counting   =    147953.73798891  -148047.85714609
  entropy T*S    EENTRO =        -0.03105426
  eigenvalues    EBANDS =       221.15672832
  atomic energy  EATOM  =     20168.87094289
  ---------------------------------------------------
  free energy    TOTEN  =      1969.74047651 eV

  energy without entropy =     1969.77153076  energy(sigma->0) =     1969.75600363


--------------------------------------------------------------------------------------------------------




--------------------------------------- Iteration      1(  11)  ---------------------------------------


    POTLOK:  cpu time    0.0457: real time    0.0461
    SETDIJ:  cpu time    0.0127: real time    0.0127
    TRIAL :  cpu time   11.6613: real time   11.7156
    CORREC:  cpu time    3.9951: real time    4.0100
    CHARGE:  cpu time    0.4165: real time    0.4177
    --------------------------------------------
      LOOP:  cpu time   16.1355: real time   16.2064

 eigenvalue-minimisations  :     0
 total energy-change (2. order) :-0.2478148E+03  (-0.5104808E+03)
 number of electron     257.9999992 magnetization       6.0000000
 augmentation part       70.4710257 magnetization       1.3357526

 Free energy of the ion-electron system (eV)
  ---------------------------------------------------
  alpha Z        PSCENC =       747.58571711
  Ewald energy   TEWEN  =    -14328.89956677
  -Hartree energ DENC   =     -6114.21920786
  -exchange      EXHF   =         0.00000000
  -V(xc)+E(xc)   XCENC  =       758.03567742
  PAW double counting   =    104385.40772262  -104826.94883077
  entropy T*S    EENTRO =        -0.03592834
  eigenvalues    EBANDS =       932.12423358
  atomic energy  EATOM  =     20168.87094289
  ---------------------------------------------------
  free energy    TOTEN  =      1721.92563396 eV

  energy without entropy =     1721.96156230  energy(sigma->0) =     1721.94359813


--------------------------------------------------------------------------------------------------------




--------------------------------------- Iteration      1(  12)  ---------------------------------------


    POTLOK:  cpu time    0.0465: real time    0.0466
    SETDIJ:  cpu time    0.0128: real time    0.0128
    TRIAL :  cpu time   11.8381: real time   11.8886
    CORREC:  cpu time    3.9981: real time    4.0489
    CHARGE:  cpu time    0.4069: real time    0.4085
    --------------------------------------------
      LOOP:  cpu time   16.3067: real time   16.4095

 eigenvalue-minimisations  :     0
 total energy-change (2. order) :-0.1878634E+03  (-0.1123238E+04)
 number of electron     257.9999992 magnetization       5.9999999
 augmentation part       67.3295689 magnetization       1.6622883

 Free energy of the ion-electron system (eV)
  ---------------------------------------------------
  alpha Z        PSCENC =       747.58571711
  Ewald energy   TEWEN  =    -14328.89956677
  -Hartree energ DENC   =     -6098.24221231
  -exchange      EXHF   =         0.00000000
  -V(xc)+E(xc)   XCENC  =       759.80786879
  PAW double counting   =     83646.01771738   -84010.33592084
  entropy T*S    EENTRO =        -0.02748525
  eigenvalues    EBANDS =       649.29360604
  atomic energy  EATOM  =     20168.87094289
  ---------------------------------------------------
  free energy    TOTEN  =      1534.06222394 eV

  energy without entropy =     1534.08970919  energy(sigma->0) =     1534.07596656


--------------------------------------------------------------------------------------------------------




--------------------------------------- Iteration      1(  13)  ---------------------------------------


    POTLOK:  cpu time    0.0458: real time    0.0458
    SETDIJ:  cpu time    0.0127: real time    0.0127
    TRIAL :  cpu time   11.7608: real time   11.7890
    CORREC:  cpu time    4.0197: real time    4.0260
    CHARGE:  cpu time    0.4188: real time    0.4195
    --------------------------------------------
      LOOP:  cpu time   16.2619: real time   16.2971

 eigenvalue-minimisations  :     0
 total energy-change (2. order) :-0.7306424E+03  (-0.6649107E+03)
 number of electron     257.9999979 magnetization       5.9999998
 augmentation part       66.4006234 magnetization       1.9691141

 Free energy of the ion-electron system (eV)
  ---------------------------------------------------
  alpha Z        PSCENC =       747.58571711
  Ewald energy   TEWEN  =    -14328.89956677
  -Hartree energ DENC   =     -6062.46651707
  -exchange      EXHF   =         0.00000000
  -V(xc)+E(xc)   XCENC  =       794.11885306
  PAW double counting   =     33410.83094652   -33609.44683973
  entropy T*S    EENTRO =        -0.03052565
  eigenvalues    EBANDS =      -317.14626669
  atomic energy  EATOM  =     20168.87094289
  ---------------------------------------------------
  free energy    TOTEN  =       803.41978406 eV

  energy without entropy =      803.45030971  energy(sigma->0) =      803.43504688


--------------------------------------------------------------------------------------------------------




--------------------------------------- Iteration      1(  14)  ---------------------------------------


    POTLOK:  cpu time    0.0456: real time    0.0457
    SETDIJ:  cpu time    0.0128: real time    0.0128
    TRIAL :  cpu time   11.6706: real time   11.6972
    CORREC:  cpu time    4.0143: real time    4.0205
    CHARGE:  cpu time    0.4177: real time    0.4183
    --------------------------------------------
      LOOP:  cpu time   16.1650: real time   16.1984

 eigenvalue-minimisations  :     0
 total energy-change (2. order) : 0.1379697E+03  (-0.8714114E+03)
 number of electron     257.9999986 magnetization       5.9999998
 augmentation part       70.0844356 magnetization       2.0343447

 Free energy of the ion-electron system (eV)
  ---------------------------------------------------
  alpha Z        PSCENC =       747.58571711
  Ewald energy   TEWEN  =    -14328.89956677
  -Hartree energ DENC   =     -5872.20557435
  -exchange      EXHF   =         0.00000000
  -V(xc)+E(xc)   XCENC  =       802.15036501
  PAW double counting   =     40776.48410766   -40945.43591681
  entropy T*S    EENTRO =        -0.03555622
  eigenvalues    EBANDS =      -407.13008805
  atomic energy  EATOM  =     20168.87094289
  ---------------------------------------------------
  free energy    TOTEN  =       941.38946104 eV

  energy without entropy =      941.42501726  energy(sigma->0) =      941.40723915


--------------------------------------------------------------------------------------------------------




--------------------------------------- Iteration      1(  15)  ---------------------------------------


    POTLOK:  cpu time    0.0456: real time    0.0458
    SETDIJ:  cpu time    0.0128: real time    0.0128
    TRIAL :  cpu time   11.7242: real time   11.7477
    CORREC:  cpu time    4.0148: real time    4.0230
    CHARGE:  cpu time    0.4202: real time    0.4209
    --------------------------------------------
      LOOP:  cpu time   16.2217: real time   16.2543

 eigenvalue-minimisations  :     0
 total energy-change (2. order) :-0.1072754E+03  (-0.1042212E+04)
 number of electron     257.9999973 magnetization       5.9999999
 augmentation part       72.3482251 magnetization       2.0263623

 Free energy of the ion-electron system (eV)
  ---------------------------------------------------
  alpha Z        PSCENC =       747.58571711
  Ewald energy   TEWEN  =    -14328.89956677
  -Hartree energ DENC   =     -6308.97681608
  -exchange      EXHF   =         0.00000000
  -V(xc)+E(xc)   XCENC  =       809.27086462
  PAW double counting   =     37087.45314581   -37344.09404875
  entropy T*S    EENTRO =        -0.03004197
  eigenvalues    EBANDS =         2.93935025
  atomic energy  EATOM  =     20168.87094289
  ---------------------------------------------------
  free energy    TOTEN  =       834.11403286 eV

  energy without entropy =      834.14407482  energy(sigma->0) =      834.12905384


--------------------------------------------------------------------------------------------------------




--------------------------------------- Iteration      1(  16)  ---------------------------------------


    POTLOK:  cpu time    0.0464: real time    0.0465
    SETDIJ:  cpu time    0.0126: real time    0.0126
    TRIAL :  cpu time   11.7874: real time   11.8143
    CORREC:  cpu time    4.0073: real time    4.0149
    CHARGE:  cpu time    0.4176: real time    0.4183
    --------------------------------------------
      LOOP:  cpu time   16.2751: real time   16.3105

 eigenvalue-minimisations  :     0
 total energy-change (2. order) : 0.1912428E+03  (-0.1691890E+04)
 number of electron     257.9999984 magnetization       5.9999997
 augmentation part       75.1257344 magnetization       1.9664923

 Free energy of the ion-electron system (eV)
  ---------------------------------------------------
  alpha Z        PSCENC =       747.58571711
  Ewald energy   TEWEN  =    -14328.89956677
  -Hartree energ DENC   =     -6657.11904161
  -exchange      EXHF   =         0.00000000
  -V(xc)+E(xc)   XCENC  =       821.24332707
  PAW double counting   =     34264.53136481   -34585.56826743
  entropy T*S    EENTRO =        -0.02884081
  eigenvalues    EBANDS =       594.74238124
  atomic energy  EATOM  =     20168.87094289
  ---------------------------------------------------
  free energy    TOTEN  =      1025.35681535 eV

  energy without entropy =     1025.38565616  energy(sigma->0) =     1025.37123576


--------------------------------------------------------------------------------------------------------




--------------------------------------- Iteration      1(  17)  ---------------------------------------


    POTLOK:  cpu time    0.0465: real time    0.0466
    SETDIJ:  cpu time    0.0127: real time    0.0127
    TRIAL :  cpu time   11.6831: real time   11.7133
    CORREC:  cpu time    4.0372: real time    4.0480
    CHARGE:  cpu time    0.4147: real time    0.4170
    --------------------------------------------
      LOOP:  cpu time   16.1984: real time   16.2418

 eigenvalue-minimisations  :     0
 total energy-change (2. order) : 0.3066623E+03  (-0.2192748E+04)
 number of electron     257.9999967 magnetization       5.9999999
 augmentation part       75.7020682 magnetization       1.9639342

 Free energy of the ion-electron system (eV)
  ---------------------------------------------------
  alpha Z        PSCENC =       747.58571711
  Ewald energy   TEWEN  =    -14328.89956677
  -Hartree energ DENC   =     -7464.57005229
  -exchange      EXHF   =         0.00000000
  -V(xc)+E(xc)   XCENC  =       828.15861735
  PAW double counting   =     32305.00706877   -32699.13444927
  entropy T*S    EENTRO =        -0.02613152
  eigenvalues    EBANDS =      1775.02966318
  atomic energy  EATOM  =     20168.87094289
  ---------------------------------------------------
  free energy    TOTEN  =      1332.01910016 eV

  energy without entropy =     1332.04523168  energy(sigma->0) =     1332.03216592


--------------------------------------------------------------------------------------------------------




--------------------------------------- Iteration      1(  18)  ---------------------------------------


    POTLOK:  cpu time    0.0528: real time    0.0531
    SETDIJ:  cpu time    0.0127: real time    0.0127
    TRIAL :  cpu time   11.6481: real time   11.7342
    CORREC:  cpu time    3.9998: real time    4.0139
    CHARGE:  cpu time    0.4188: real time    0.4197
    --------------------------------------------
      LOOP:  cpu time   16.1362: real time   16.2378

 eigenvalue-minimisations  :     0
 total energy-change (2. order) : 0.4688856E+03  (-0.2674842E+04)
 number of electron     257.9999983 magnetization       5.9999997
 augmentation part       77.3332282 magnetization       1.9995683

 Free energy of the ion-electron system (eV)
  ---------------------------------------------------
  alpha Z        PSCENC =       747.58571711
  Ewald energy   TEWEN  =    -14328.89956677
  -Hartree energ DENC   =     -7817.28236442
  -exchange      EXHF   =         0.00000000
  -V(xc)+E(xc)   XCENC  =       837.61710658
  PAW double counting   =     30978.13741952   -31395.34105805
  entropy T*S    EENTRO =        -0.02612025
  eigenvalues    EBANDS =      2610.24267868
  atomic energy  EATOM  =     20168.87094289
  ---------------------------------------------------
  free energy    TOTEN  =      1800.90474401 eV

  energy without entropy =     1800.93086426  energy(sigma->0) =     1800.91780414


--------------------------------------------------------------------------------------------------------




--------------------------------------- Iteration      1(  19)  ---------------------------------------


    POTLOK:  cpu time    0.0462: real time    0.0462
    SETDIJ:  cpu time    0.0133: real time    0.0133
    TRIAL :  cpu time   11.6964: real time   11.7863
    CORREC:  cpu time    3.9730: real time    3.9969
    CHARGE:  cpu time    0.6190: real time    0.6215
    --------------------------------------------
      LOOP:  cpu time   16.3520: real time   16.4683

 eigenvalue-minimisations  :     0
 total energy-change (2. order) :-0.2988032E+03  (-0.1748298E+04)
 number of electron     257.9999966 magnetization       5.9999999
 augmentation part       76.9228569 magnetization       2.1603888

 Free energy of the ion-electron system (eV)
  ---------------------------------------------------
  alpha Z        PSCENC =       747.58571711
  Ewald energy   TEWEN  =    -14328.89956677
  -Hartree energ DENC   =     -7959.11614777
  -exchange      EXHF   =         0.00000000
  -V(xc)+E(xc)   XCENC  =       839.55965469
  PAW double counting   =     29609.44455499   -30066.95212877
  entropy T*S    EENTRO =        -0.02548376
  eigenvalues    EBANDS =      2491.63463278
  atomic energy  EATOM  =     20168.87094289
  ---------------------------------------------------
  free energy    TOTEN  =      1502.10153889 eV

  energy without entropy =     1502.12702266  energy(sigma->0) =     1502.11428077


--------------------------------------------------------------------------------------------------------




--------------------------------------- Iteration      1(  20)  ---------------------------------------


    POTLOK:  cpu time    0.0456: real time    0.0458
    SETDIJ:  cpu time    0.0129: real time    0.0130
    TRIAL :  cpu time   11.4932: real time   11.5801
    CORREC:  cpu time    4.1349: real time    4.1587
    CHARGE:  cpu time    0.4170: real time    0.4189
    --------------------------------------------
      LOOP:  cpu time   16.1077: real time   16.2206

 eigenvalue-minimisations  :     0
 total energy-change (2. order) :-0.4253151E+03  (-0.1393333E+04)
 number of electron     257.9999979 magnetization       5.9999997
 augmentation part       77.8259251 magnetization       2.1929276

 Free energy of the ion-electron system (eV)
  ---------------------------------------------------
  alpha Z        PSCENC =       747.58571711
  Ewald energy   TEWEN  =    -14328.89956677
  -Hartree energ DENC   =     -7373.90314900
  -exchange      EXHF   =         0.00000000
  -V(xc)+E(xc)   XCENC  =       843.82731584
  PAW double counting   =     28444.52513208   -28892.19494493
  entropy T*S    EENTRO =        -0.02961638
  eigenvalues    EBANDS =      1467.00044680
  atomic energy  EATOM  =     20168.87094289
  ---------------------------------------------------
  free energy    TOTEN  =      1076.78641025 eV

  energy without entropy =     1076.81602663  energy(sigma->0) =     1076.80121844


--------------------------------------------------------------------------------------------------------




--------------------------------------- Iteration      1(  21)  ---------------------------------------


    POTLOK:  cpu time    0.0466: real time    0.0468
    SETDIJ:  cpu time    0.0126: real time    0.0126
    TRIAL :  cpu time   11.4794: real time   11.5626
    CORREC:  cpu time    4.0516: real time    4.2285
    CHARGE:  cpu time    0.4267: real time    0.4303
    --------------------------------------------
      LOOP:  cpu time   16.0211: real time   16.2849

 eigenvalue-minimisations  :     0
 total energy-change (2. order) :-0.3842147E+03  (-0.7845959E+03)
 number of electron     257.9999969 magnetization       5.9999998
 augmentation part       77.2592236 magnetization       2.4155943

 Free energy of the ion-electron system (eV)
  ---------------------------------------------------
  alpha Z        PSCENC =       747.58571711
  Ewald energy   TEWEN  =    -14328.89956677
  -Hartree energ DENC   =     -7282.59383304
  -exchange      EXHF   =         0.00000000
  -V(xc)+E(xc)   XCENC  =       843.96446962
  PAW double counting   =     27502.00786032   -27969.42792064
  entropy T*S    EENTRO =        -0.03315182
  eigenvalues    EBANDS =      1011.09360978
  atomic energy  EATOM  =     20168.87094289
  ---------------------------------------------------
  free energy    TOTEN  =       692.57166288 eV

  energy without entropy =      692.60481470  energy(sigma->0) =      692.58823879


--------------------------------------------------------------------------------------------------------




--------------------------------------- Iteration      1(  22)  ---------------------------------------


    POTLOK:  cpu time    0.0463: real time    0.0465
    SETDIJ:  cpu time    0.0126: real time    0.0127
    TRIAL :  cpu time   11.5922: real time   11.6677
    CORREC:  cpu time    4.1759: real time    4.1982
    CHARGE:  cpu time    0.4292: real time    0.4311
    --------------------------------------------
      LOOP:  cpu time   16.2608: real time   16.3607

 eigenvalue-minimisations  :     0
 total energy-change (2. order) :-0.3747886E+03  (-0.3648547E+03)
 number of electron     257.9999976 magnetization       5.9999998
 augmentation part       77.7663767 magnetization       2.4349306

 Free energy of the ion-electron system (eV)
  ---------------------------------------------------
  alpha Z        PSCENC =       747.58571711
  Ewald energy   TEWEN  =    -14328.89956677
  -Hartree energ DENC   =     -6796.49263017
  -exchange      EXHF   =         0.00000000
  -V(xc)+E(xc)   XCENC  =       844.97781287
  PAW double counting   =     26825.63406186   -27276.33652352
  entropy T*S    EENTRO =        -0.03273680
  eigenvalues    EBANDS =       132.47638103
  atomic energy  EATOM  =     20168.87094289
  ---------------------------------------------------
  free energy    TOTEN  =       317.78304348 eV

  energy without entropy =      317.81578027  energy(sigma->0) =      317.79941187


--------------------------------------------------------------------------------------------------------




--------------------------------------- Iteration      1(  23)  ---------------------------------------


    POTLOK:  cpu time    0.0465: real time    0.0467
    SETDIJ:  cpu time    0.0127: real time    0.0127
    TRIAL :  cpu time   11.7228: real time   11.8299
    CORREC:  cpu time    4.0321: real time    4.0437
    CHARGE:  cpu time    0.4290: real time    0.4300
    --------------------------------------------
      LOOP:  cpu time   16.2477: real time   16.3676

 eigenvalue-minimisations  :     0
 total energy-change (2. order) :-0.1600464E+03  (-0.1176130E+03)
 number of electron     257.9999973 magnetization       5.9999998
 augmentation part       77.6300958 magnetization       2.5058495

 Free energy of the ion-electron system (eV)
  ---------------------------------------------------
  alpha Z        PSCENC =       747.58571711
  Ewald energy   TEWEN  =    -14328.89956677
  -Hartree energ DENC   =     -6770.50137073
  -exchange      EXHF   =         0.00000000
  -V(xc)+E(xc)   XCENC  =       845.29598285
  PAW double counting   =     26364.30554255   -26827.49394897
  entropy T*S    EENTRO =        -0.03211870
  eigenvalues    EBANDS =       -41.39394647
  atomic energy  EATOM  =     20168.87094289
  ---------------------------------------------------
  free energy    TOTEN  =       157.73661565 eV

  energy without entropy =      157.76873435  energy(sigma->0) =      157.75267500


--------------------------------------------------------------------------------------------------------




--------------------------------------- Iteration      1(  24)  ---------------------------------------


    POTLOK:  cpu time    0.0464: real time    0.0465
    SETDIJ:  cpu time    0.0127: real time    0.0128
    TRIAL :  cpu time   11.8064: real time   11.8376
    CORREC:  cpu time    4.0546: real time    4.0643
    CHARGE:  cpu time    0.4233: real time    0.4240
    --------------------------------------------
      LOOP:  cpu time   16.3478: real time   16.3896

 eigenvalue-minimisations  :     0
 total energy-change (2. order) :-0.9298287E+02  (-0.3432164E+02)
 number of electron     257.9999974 magnetization       5.9999998
 augmentation part       78.1038694 magnetization       2.6031814

 Free energy of the ion-electron system (eV)
  ---------------------------------------------------
  alpha Z        PSCENC =       747.58571711
  Ewald energy   TEWEN  =    -14328.89956677
  -Hartree energ DENC   =     -6662.53978823
  -exchange      EXHF   =         0.00000000
  -V(xc)+E(xc)   XCENC  =       845.77357942
  PAW double counting   =     26068.52035214   -26528.46701174
  entropy T*S    EENTRO =        -0.03062647
  eigenvalues    EBANDS =      -246.05836080
  atomic energy  EATOM  =     20168.87094289
  ---------------------------------------------------
  free energy    TOTEN  =        64.75374531 eV

  energy without entropy =       64.78437178  energy(sigma->0) =       64.76905855


--------------------------------------------------------------------------------------------------------




--------------------------------------- Iteration      1(  25)  ---------------------------------------


    POTLOK:  cpu time    0.0462: real time    0.0463
    SETDIJ:  cpu time    0.0130: real time    0.0130
    TRIAL :  cpu time   11.6937: real time   11.7195
    CORREC:  cpu time    4.0144: real time    4.0210
    CHARGE:  cpu time    0.4244: real time    0.4249
    --------------------------------------------
      LOOP:  cpu time   16.1962: real time   16.2291

 eigenvalue-minimisations  :     0
 total energy-change (2. order) :-0.3377973E+02  (-0.6138647E+02)
[...]
   20        1.583   3.373   0.000   4.956
   21        1.580   3.383   0.000   4.963
   22        1.577   3.404   0.000   4.981
   23        1.580   3.382   0.000   4.961
   24        1.587   3.293   0.000   4.881
   25        1.581   3.374   0.000   4.955
   26        1.591   3.316   0.000   4.907
   27        1.557   3.438   0.000   4.995
   28        1.556   3.468   0.000   5.024
   29        1.560   3.442   0.000   5.003
   30        1.565   3.448   0.000   5.012
   31        1.576   3.336   0.000   4.912
   32        1.578   3.404   0.000   4.982
   33        1.571   3.385   0.000   4.956
   34        1.586   3.344   0.000   4.929
   35        1.579   3.362   0.000   4.941
   36        1.564   3.497   0.000   5.061
   37        1.574   3.352   0.000   4.926
   38        1.577   3.351   0.000   4.928
   39        1.558   3.454   0.000   5.012
   40        1.557   3.458   0.000   5.015
   41        1.556   3.500   0.000   5.056
   42        1.553   3.484   0.000   5.037
--------------------------------------------------
tot         43.569  91.099  87.206 221.873
 


 magnetization (x)
 
# of ion       s       p       d       tot
------------------------------------------
    1        0.001   0.001   0.000   0.002
    2        0.001  -0.002   0.000  -0.001
    3        0.000   0.000   0.000   0.001
    4       -0.000  -0.002   0.000  -0.002
    5        0.001  -0.002   0.000  -0.001
    6        0.001  -0.001   0.000  -0.000
    7        0.016   0.017   1.964   1.996
    8       -0.007  -0.007  -1.253  -1.267
    9        0.011   0.013   1.296   1.320
   10        0.011   0.017   1.324   1.352
   11        0.015   0.009   1.674   1.697
   12        0.014   0.015   1.801   1.829
   13        0.003   0.005  -0.032  -0.024
   14        0.004   0.005  -0.029  -0.020
   15        0.002   0.002  -0.042  -0.038
   16        0.003   0.001  -0.011  -0.006
   17        0.012   0.010   1.419   1.441
   18        0.001   0.001  -0.050  -0.047
   19        0.004  -0.032   0.000  -0.028
   20       -0.000  -0.111   0.000  -0.111
   21        0.000  -0.049   0.000  -0.049
   22        0.003  -0.082   0.000  -0.079
   23        0.000  -0.074   0.000  -0.073
   24        0.001  -0.052   0.000  -0.051
   25        0.003  -0.121   0.000  -0.118
   26        0.000  -0.102   0.000  -0.101
   27        0.000  -0.037   0.000  -0.037
   28        0.002  -0.042   0.000  -0.040
   29        0.001  -0.091   0.000  -0.091
   30        0.002  -0.079   0.000  -0.077
   31        0.001  -0.194   0.000  -0.193
   32        0.000  -0.181   0.000  -0.181
   33        0.001  -0.080   0.000  -0.079
   34        0.000  -0.155   0.000  -0.155
   35        0.001  -0.059   0.000  -0.058
   36       -0.001  -0.047   0.000  -0.048
   37       -0.001  -0.148   0.000  -0.149
   38       -0.000  -0.125   0.000  -0.125
   39        0.001  -0.051   0.000  -0.051
   40        0.001  -0.031   0.000  -0.030
   41        0.001  -0.017   0.000  -0.017
   42       -0.001  -0.021   0.000  -0.022
--------------------------------------------------
tot          0.108  -1.899   8.061   6.270
 
    FORLOC:  cpu time    0.0084: real time    0.0084
    FORNL :  cpu time    3.9450: real time    3.9939
    STRESS:  cpu time   11.9752: real time   12.0933
    FORCOR:  cpu time    0.0489: real time    0.0491
    OFIELD:  cpu time    0.0003: real time    0.0003

  DFT-D2 method for vdW energy calculation
  -------------------------------------------------------------------

  Parameters of vdW forcefield:
         C6(Jnm^6/mol)     R0(A)
   -----------------------------
   Li       1.610          0.825
   Co      10.800          1.562
   O        0.700          1.342

  IVDW =   1
  VDW_RADIUS =    50.000 A
  VDW_S6 =     0.750
  VDW_SR =     1.000
  VDW_D =    20.000
  LVDW_EWALD = F

  Number of pair interactions contributing to vdW energy: 1206428
  Edisp (eV):   -9.80160
    FORVDW:  cpu time    0.1783: real time    0.1798

  FORCE on cell =-STRESS in cart. coord.  units (eV):
  Direction    XX          YY          ZZ          XY          YZ          ZX
  --------------------------------------------------------------------------------------
  Alpha Z   747.58572   747.58572   747.58572
  Ewald   -2181.81454 -2096.26052-10050.88894    77.88120   -51.65385    44.19567
  Hartree  4118.79214  4160.52938 -1631.02680    24.13519   -21.36057    17.49950
  E(xc)   -1284.21665 -1284.30824 -1285.17628     0.25052    -0.04380     0.07243
  Local   -6889.63969 -7016.39864  6696.88681   -92.18136    68.76616   -59.22992
  n-local  -594.53347  -592.54919  -600.75177     3.06639    -1.72621     2.35554
  augment  2024.41336  2024.76303  2001.99064    -5.43272     1.97657    -1.63420
  Kinetic  4058.10990  4061.71547  4132.27053    -7.70597     2.59279     3.28997
  Fock        0.00000     0.00000     0.00000     0.00000     0.00000     0.00000
  vdW        -6.42571    -6.45192   -12.77690     0.22240    -0.25505     0.17617
  -------------------------------------------------------------------------------------
  Total      -7.72896    -1.37491    -1.88700     0.23564    -1.70396     6.72518
  in kB     -31.57751    -5.61735    -7.70955     0.96275    -6.96171    27.47645
  external pressure =      -14.97 kB  Pullay stress =        0.00 kB


 VOLUME and BASIS-vectors are now :
 -----------------------------------------------------------------------------
  energy-cutoff  :      600.00
  volume of cell :      392.15
      direct lattice vectors                 reciprocal lattice vectors
     5.719455719  0.000000000  0.000000000     0.174841812  0.100218729 -0.016596443
    -2.811412096  4.904795647  0.000000000     0.000000000  0.203882093  0.027424064
     2.404720068 -1.880315900 13.979063988     0.000000000  0.000000000  0.071535548

  length of vectors
     5.719455719  5.653411210 14.308476385     0.202210026  0.205718222  0.071535548


 FORCES acting on ions:
    Electron-Ion                     Ewald-Force                    Non-Local-Force
 -----------------------------------------------------------------------------------------------
   -.307E+01 -.101E+01 -.166E+02   0.283E+01 0.721E+00 0.164E+02   0.910E+00 0.618E+00 0.139E+01
   -.123E+01 0.179E+01 0.108E+02   0.134E+01 -.136E+01 -.101E+02   0.197E+00 -.689E+00 -.962E+00
   0.733E+01 -.179E+01 0.126E+02   -.685E+01 0.154E+01 -.122E+02   -.122E+01 0.153E+00 -.751E+00
   0.995E+00 -.382E+01 0.679E+01   -.107E+01 0.345E+01 -.675E+01   -.388E+00 0.121E+01 -.398E+00
   -.136E+01 -.160E+01 -.390E+01   0.120E+01 0.155E+01 0.400E+01   0.417E+00 0.241E+00 0.524E+00
   -.462E+01 0.743E+01 0.107E+02   0.446E+01 -.702E+01 -.103E+02   0.115E+01 -.137E+01 -.922E+00
   -.722E+01 -.535E+01 -.183E+02   0.767E+01 0.531E+01 0.166E+02   0.633E+00 0.887E+00 -.950E+00
   0.138E+02 0.213E+02 0.566E+02   -.126E+02 -.224E+02 -.581E+02   0.528E+00 -.308E+00 -.822E+00
   -.415E+02 0.135E+02 -.831E+02   0.418E+02 -.136E+02 0.830E+02   0.356E+00 -.292E+00 0.842E+00
   -.469E+00 0.768E-01 0.144E+02   0.465E+00 -.861E+00 -.184E+02   0.398E+00 -.459E+00 0.608E+00
   -.214E+02 -.972E+02 0.489E+02   0.221E+02 0.987E+02 -.494E+02   0.988E+00 0.429E+00 0.124E+01
   -.511E+02 0.818E+02 0.794E+02   0.520E+02 -.847E+02 -.806E+02   0.679E+00 -.871E+00 0.107E+01
   -.133E+02 -.882E+00 0.106E+03   0.129E+02 0.183E+01 -.106E+03   0.317E+00 -.779E+00 -.413E+00
   0.463E+02 0.467E+02 0.378E+02   -.470E+02 -.476E+02 -.400E+02   0.419E+00 -.223E+00 0.122E+01
   -.191E+02 -.458E+02 -.603E+02   0.185E+02 0.481E+02 0.607E+02   0.869E+00 0.804E+00 -.876E+00
   -.106E+02 0.875E+01 -.617E+02   0.114E+02 -.981E+01 0.638E+02   -.276E+00 0.887E+00 -.239E+01
   0.103E+02 -.374E+01 -.845E+02   -.102E+02 0.432E+01 0.866E+02   -.772E-02 -.126E+00 -.100E+01
   0.274E+01 -.319E+01 -.573E+02   -.340E+01 0.251E+01 0.591E+02   0.527E+00 0.883E+00 -.220E+01
   0.310E+01 -.157E+02 -.290E+03   -.279E+01 0.178E+02 0.310E+03   -.892E+00 -.226E+01 -.171E+02
   0.150E+02 0.114E+02 -.302E+03   -.175E+02 -.991E+01 0.327E+03   0.100E+01 -.203E+01 -.250E+02
   -.147E+01 -.147E+02 -.314E+03   -.487E+00 0.157E+02 0.338E+03   0.301E+01 -.139E+00 -.228E+02
   0.821E+01 0.212E+02 -.314E+03   -.892E+01 -.244E+02 0.336E+03   0.214E+00 0.299E+01 -.214E+02
   0.464E+02 -.227E+01 0.304E+03   -.514E+02 0.434E+01 -.325E+03   0.371E+01 -.245E+01 0.214E+02
   0.149E+02 0.377E+02 0.296E+03   -.157E+02 -.430E+02 -.317E+03   0.302E+00 0.549E+01 0.233E+02
   -.420E+02 -.267E+02 0.296E+03   0.487E+02 0.303E+02 -.316E+03   -.747E+01 -.328E+01 0.201E+02
   -.720E+01 -.344E+02 0.311E+03   0.586E+01 0.375E+02 -.336E+03   0.183E+01 -.124E+01 0.254E+02
   0.453E+02 0.143E+01 -.218E+03   -.481E+02 -.428E+01 0.229E+03   0.191E+01 0.298E+01 -.128E+02
   0.538E+01 0.348E+02 -.243E+03   -.576E+01 -.373E+02 0.256E+03   0.611E+00 0.193E+01 -.119E+02
   -.436E+02 -.165E+02 -.223E+03   0.462E+02 0.192E+02 0.237E+03   -.161E+01 -.251E+01 -.145E+02
   0.342E+01 -.112E+02 -.265E+03   -.469E+01 0.125E+02 0.283E+03   0.686E+00 -.959E+00 -.174E+02
   0.182E+02 -.415E+01 0.283E+03   -.230E+02 0.761E+01 -.299E+03   0.466E+01 -.382E+01 0.191E+02
   -.171E+02 -.311E+02 0.334E+03   0.191E+02 0.338E+02 -.358E+03   -.229E+01 -.657E+00 0.232E+02
   -.186E+02 0.868E+01 0.329E+03   0.222E+02 -.684E+01 -.349E+03   -.393E+01 -.164E+01 0.211E+02
   0.371E+02 -.136E+02 0.341E+03   -.406E+02 0.131E+02 -.366E+03   0.215E+01 0.121E+01 0.264E+02
   -.190E+02 -.160E+02 -.345E+03   0.215E+02 0.173E+02 0.370E+03   -.159E+01 -.550E+00 -.255E+02
   -.447E+01 0.181E+02 -.334E+03   0.140E+01 -.230E+02 0.353E+03   0.353E+01 0.409E+01 -.171E+02
   -.512E+00 0.940E+01 -.331E+03   0.141E+01 -.740E+01 0.352E+03   -.527E+00 -.332E+01 -.221E+02
   0.729E+01 0.346E+01 -.339E+03   -.600E+01 -.456E+01 0.363E+03   -.167E+01 0.141E+01 -.243E+02
   0.134E+02 0.110E+02 0.271E+03   -.144E+02 -.131E+02 -.285E+03   0.594E-01 0.113E+01 0.142E+02
   -.108E+02 -.830E+01 0.257E+03   0.967E+01 0.699E+01 -.269E+03   0.141E+01 0.119E+01 0.129E+02
   0.146E+02 0.223E+02 0.253E+03   -.181E+02 -.225E+02 -.265E+03   0.189E+01 -.824E+00 0.116E+02
   0.149E+02 0.960E+00 0.254E+03   -.142E+02 -.675E+00 -.266E+03   -.147E+01 -.672E+00 0.119E+02
 -----------------------------------------------------------------------------------------------
   -.120E+02 0.297E+01 0.605E+01   0.799E-13 0.137E-13 0.119E-11   0.120E+02 -.294E+01 -.606E+01
 
 
 POSITION                                       TOTAL-FORCE (eV/Angst)
 -----------------------------------------------------------------------------------
      4.43398     -1.40364     13.80917         0.641040      0.022249      1.132651
      3.58973     -0.56248      4.77171         0.183916     -0.188965      0.077880
      2.54783      0.25181      9.42994        -0.571321     -0.049687     -0.242207
      0.99211      2.44801      9.41526        -0.381056      0.647750     -0.219605
      5.01829      0.24096      9.25710         0.117671      0.104472      0.508256
      3.55846      2.98470      9.43697         0.701925     -0.845866     -0.444961
      4.88728      1.67931      2.44842         0.943329      0.787972     -2.368871
      3.39964      4.10481      2.30218         1.669195     -1.199593     -2.027174
      2.02493      1.65299      2.37968         0.524815     -0.272803      0.348733
      0.52774      4.10069      2.32446         0.329957     -1.150729     -3.285059
     -0.69292      3.41830      6.94294         1.516085      1.551133      0.611844
      0.71596      1.09873      6.95938         1.352162     -3.226100      0.058935
      2.25649      3.45741      7.00379        -0.202593      0.244500     -0.729854
      3.66130      1.00998      7.01721        -0.148493     -1.048092     -0.818481
      3.65107     -0.65193     11.64441         0.171948      2.838135     -0.774229
      2.25377      1.82609     11.67061         0.486199     -0.090192     -0.487941
      6.52487     -0.59669     11.67411         0.104828      0.400656      0.896267
      5.09410      1.84928     11.66681        -0.147384      0.147429     -0.555124
      4.81136     -0.05529      3.10508        -0.533152     -0.103020      2.354855
      3.53440      2.53370      3.28392        -1.582514     -0.531952      0.051947
      1.87378     -0.07075      3.24744         1.092993      0.905070      0.749134
      0.68085      2.56994      3.30414        -0.512021     -0.226447      0.743102
      0.67197      0.88734      1.43054        -1.353465     -0.373364     -0.208641
     -0.83313      3.37362      1.19772        -0.449288      0.287583      1.897175
      3.39464      0.79067      1.36945        -0.746185      0.296651      0.341408
      1.96940      3.11466      1.33751         0.498790      1.834190      0.306883
      3.71456     -0.65118      8.13668        -0.897579      0.080324     -1.390795
      2.24065      1.86717      7.99582         0.278041     -0.517307      0.568304
      6.40401     -0.58561      8.03256         1.100267      0.157612     -1.064555
      5.08382      1.83801      8.04188        -0.646032      0.443657      0.101520
      2.26030      0.20130      5.87715        -0.154537     -0.337122      2.309891
      0.81575      2.59159      6.05937        -0.330956      1.980086     -0.571289
      5.02033      0.14407      5.94338        -0.197331      0.222893      1.286020
      3.79002      2.54890      5.97548        -1.426502      0.703579      0.618624
      2.15576      0.13006     12.61281         0.986004      0.700133     -0.435041
      0.79586      2.67168     12.47891         0.452151     -0.846393      1.227041
      5.04582      0.27743     12.68971         0.402825     -1.246202     -0.925319
      3.69315      2.66693     12.65291        -0.449167      0.329015     -0.608931
      2.28008     -1.34500     10.58011        -0.806075     -0.953524      0.078181
      0.80075      1.01619     10.57111         0.320256     -0.101008      0.730573
      5.19769     -1.31964     10.64671        -1.591692     -1.064387     -0.026121
      3.73343      1.08022     10.62931        -0.747056     -0.312337      0.184976
 -----------------------------------------------------------------------------------
    total drift:                                0.028316      0.030713     -0.013796


--------------------------------------------------------------------------------------------------------



  FREE ENERGIE OF THE ION-ELECTRON SYSTEM (eV)
  ---------------------------------------------------
  free  energy   TOTEN  =      -232.20751998 eV

  energy  without entropy=     -232.19698352  energy(sigma->0) =     -232.20225175
 


--------------------------------------------------------------------------------------------------------


    POTLOK:  cpu time    0.0652: real time    0.0652


--------------------------------------------------------------------------------------------------------


     LOOP+:  cpu time 3704.9621: real time 3724.8907
    4ORBIT:  cpu time    0.0000: real time    0.0000
 


 total charge     
 
# of ion       s       p       d       tot
------------------------------------------
    1        0.097   0.208   0.000   0.305
    2        0.091   0.187   0.000   0.278
    3        0.104   0.225   0.000   0.329
    4        0.100   0.214   0.000   0.314
    5        0.106   0.227   0.000   0.333
    6        0.111   0.240   0.000   0.351
    7        0.416   0.614   7.182   8.212
    8        0.465   0.746   7.233   8.445
    9        0.472   0.760   7.241   8.474
   10        0.475   0.772   7.257   8.503
   11        0.421   0.608   7.170   8.199
   12        0.431   0.649   7.196   8.276
   13        0.418   0.646   7.339   8.403
   14        0.414   0.633   7.334   8.381
   15        0.436   0.669   7.386   8.491
   16        0.406   0.598   7.314   8.318
   17        0.453   0.717   7.212   8.383
   18        0.431   0.669   7.342   8.442
   19        1.574   3.468   0.000   5.042
   20        1.583   3.373   0.000   4.956
   21        1.580   3.383   0.000   4.963
   22        1.577   3.404   0.000   4.981
   23        1.580   3.382   0.000   4.961
   24        1.587   3.293   0.000   4.881
   25        1.581   3.374   0.000   4.955
   26        1.591   3.316   0.000   4.907
   27        1.557   3.438   0.000   4.995
   28        1.556   3.468   0.000   5.024
   29        1.560   3.442   0.000   5.003
   30        1.565   3.448   0.000   5.012
   31        1.576   3.336   0.000   4.912
   32        1.578   3.404   0.000   4.982
   33        1.571   3.385   0.000   4.956
   34        1.586   3.344   0.000   4.929
   35        1.579   3.362   0.000   4.941
   36        1.564   3.497   0.000   5.061
   37        1.574   3.352   0.000   4.926
   38        1.577   3.351   0.000   4.928
   39        1.558   3.454   0.000   5.012
   40        1.557   3.458   0.000   5.015
   41        1.556   3.500   0.000   5.056
   42        1.553   3.484   0.000   5.037
--------------------------------------------------
tot         43.569  91.099  87.206 221.873
 


 magnetization (x)
 
# of ion       s       p       d       tot
------------------------------------------
    1        0.001   0.001   0.000   0.002
    2        0.001  -0.002   0.000  -0.001
    3        0.000   0.000   0.000   0.001
    4       -0.000  -0.002   0.000  -0.002
    5        0.001  -0.002   0.000  -0.001
    6        0.001  -0.001   0.000  -0.000
    7        0.016   0.017   1.964   1.996
    8       -0.007  -0.007  -1.253  -1.267
    9        0.011   0.013   1.296   1.320
   10        0.011   0.017   1.324   1.352
   11        0.015   0.009   1.674   1.697
   12        0.014   0.015   1.801   1.829
   13        0.003   0.005  -0.032  -0.024
   14        0.004   0.005  -0.029  -0.020
   15        0.002   0.002  -0.042  -0.038
   16        0.003   0.001  -0.011  -0.006
   17        0.012   0.010   1.419   1.441
   18        0.001   0.001  -0.050  -0.047
   19        0.004  -0.032   0.000  -0.028
   20       -0.000  -0.111   0.000  -0.111
   21        0.000  -0.049   0.000  -0.049
   22        0.003  -0.082   0.000  -0.079
   23        0.000  -0.074   0.000  -0.073
   24        0.001  -0.052   0.000  -0.051
   25        0.003  -0.121   0.000  -0.118
   26        0.000  -0.102   0.000  -0.101
   27        0.000  -0.037   0.000  -0.037
   28        0.002  -0.042   0.000  -0.040
   29        0.001  -0.091   0.000  -0.091
   30        0.002  -0.079   0.000  -0.077
   31        0.001  -0.194   0.000  -0.193
   32        0.000  -0.181   0.000  -0.181
   33        0.001  -0.080   0.000  -0.079
   34        0.000  -0.155   0.000  -0.155
   35        0.001  -0.059   0.000  -0.058
   36       -0.001  -0.047   0.000  -0.048
   37       -0.001  -0.148   0.000  -0.149
   38       -0.000  -0.125   0.000  -0.125
   39        0.001  -0.051   0.000  -0.051
   40        0.001  -0.031   0.000  -0.030
   41        0.001  -0.017   0.000  -0.017
   42       -0.001  -0.021   0.000  -0.022
--------------------------------------------------
tot          0.108  -1.899   8.061   6.270
 

 total amount of memory used by VASP MPI-rank0   158793. kBytes
=======================================================================

   base      :      30000. kBytes
   nonlr-proj:       4340. kBytes
   fftplans  :       1687. kBytes
   grid      :       4644. kBytes
   one-center:        342. kBytes
   wavefun   :     117780. kBytes
 
  
  
 General timing and accounting informations for this job:
 ========================================================
  
                  Total CPU time used (sec):     3730.201
                            User time (sec):     3487.797
                          System time (sec):      242.404
                         Elapsed time (sec):     3750.681
  
                   Maximum memory used (kb):      949144.
                   Average memory used (kb):           0.
  
                          Minor page faults:        71100
                          Major page faults:           76
                 Voluntary context switches:          639
