 running on   64 total cores
 distrk:  each k-point on   64 cores,    1 groups
 distr:  one band on    4 cores,   16 groups
 using from now: INCAR     
 vasp.5.4.4.18Apr17-6-g9f103f2a35 (build Nov 22 2021 14:44:17) complex          
  
 POSCAR found type information on POSCAR  Li Co O 
 POSCAR found :  3 types and      42 ions
 scaLAPACK will be used
 LDA part: xc-table for Pade appr. of Perdew
 generate k-points for:    6    6    2
 POSCAR, INCAR and KPOINTS ok, starting setup
 FFT: planning ...
 WAVECAR not read
 entering main loop
       N       E                     dE             d eps       ncg     rms          ort
DAV:   1     0.349603256293E+04    0.34960E+04   -0.13975E+05  5760   0.220E+03
DAV:   2     0.407318627459E+03   -0.30887E+04   -0.28496E+04  5760   0.538E+02
DAV:   3    -0.219174773628E+03   -0.62649E+03   -0.56965E+03  5760   0.254E+02
DAV:   4    -0.269763726466E+03   -0.50589E+02   -0.49521E+02  5760   0.745E+01
DAV:   5    -0.271516388810E+03   -0.17527E+01   -0.17492E+01  5760   0.137E+01
 gam= 0.000 g(H,U,f)=  0.181E+04 0.225E+04 0.440E+04 ort(H,U,f) = 0.000E+00 0.000E+00 0.000E+00
SDA:   6     0.128381212912E+03    0.39990E+03   -0.17492E+01  5760   0.846E+04 0.000E+00
 gam= 0.000 trial= 0.400  step= 0.101 mean= 0.400
 gam= 1.018 g(H,U,f)=  0.954E+03 0.201E+04 0.565E+04 ort(H,U,f) = 0.612E+03-0.359E+03-0.311E+04
CGA:   7     0.529975331599E+02   -0.75384E+02   -0.42602E+03  5760   0.862E+04-0.285E+04
 gam= 1.018 trial= 0.385  step= 0.086 mean= 0.385
 gam= 0.279 g(H,U,f)=  0.125E+03 0.838E+03 0.144E+04 ort(H,U,f) = 0.104E+03 0.820E+03 0.777E+03
CGA:   8    -0.162622555463E+03   -0.21562E+03   -0.24565E+03  5760   0.240E+04 0.170E+04
 gam= 0.279 trial= 0.370  step= 0.043 mean= 0.370
 gam= 0.000 g(H,U,f)=  0.102E+03 0.940E+03 0.831E+03 ort(H,U,f) =-0.865E+02-0.926E+03-0.949E+03
CGA:   9    -0.176337042222E+03   -0.13714E+02   -0.61390E+02  5760   0.187E+04-0.196E+04
 gam= 0.000 trial= 0.354  step= 0.036 mean= 0.354
 gam= 0.076 g(H,U,f)=  0.374E+02 0.604E+02 0.442E+02 ort(H,U,f) = 0.297E+02-0.121E+03-0.188E+03
CGA:  10    -0.198791385095E+03   -0.22454E+02   -0.33278E+02  5760   0.142E+03-0.279E+03
 gam= 0.076 trial= 0.338  step= 0.114 mean= 0.338
 gam= 1.303 g(H,U,f)=  0.260E+02 0.875E+02 0.717E+02 ort(H,U,f) = 0.237E+02-0.256E+02-0.230E+02
CGA:  11    -0.202806408849E+03   -0.40150E+01   -0.68909E+01  5760   0.185E+03-0.249E+02
 gam= 1.303 trial= 0.327  step= 0.136 mean= 0.327
 gam= 0.426 g(H,U,f)=  0.124E+02 0.471E+02 0.193E+02 ort(H,U,f) = 0.130E+02-0.582E+01-0.131E+02
CGA:  12    -0.211045128480E+03   -0.82387E+01   -0.10375E+02  5760   0.788E+02-0.587E+01
 gam= 0.426 trial= 0.317  step= 0.123 mean= 0.317
 gam= 0.941 g(H,U,f)=  0.733E+01 0.366E+02 0.302E+02 ort(H,U,f) = 0.297E+01-0.756E+01-0.150E+02
CGA:  13    -0.214401439171E+03   -0.33563E+01   -0.46919E+01  5760   0.741E+02-0.196E+02
 gam= 0.941 trial= 0.307  step= 0.104 mean= 0.307
 gam= 0.294 g(H,U,f)=  0.641E+01 0.142E+02 0.116E+01 ort(H,U,f) = 0.307E+00-0.548E+01-0.198E+01
CGA:  14    -0.216688601894E+03   -0.22872E+01   -0.28988E+01  5760   0.218E+02-0.715E+01
 gam= 0.294 trial= 0.297  step= 0.152 mean= 0.297
 gam= 0.281 g(H,U,f)=  0.263E+01 0.287E+01 0.613E+00 ort(H,U,f) = 0.181E+01-0.171E+01-0.441E+00
CGA:  15    -0.218150307496E+03   -0.14617E+01   -0.14996E+01  5760   0.612E+01-0.342E+00
 gam= 0.281 trial= 0.290  step= 0.175 mean= 0.290
 gam= 1.271 g(H,U,f)=  0.157E+01 0.404E+01 0.216E+01 ort(H,U,f) = 0.140E+01-0.574E+00-0.876E+00
CGA:  16    -0.218652037158E+03   -0.50173E+00   -0.52541E+00  5760   0.777E+01-0.529E-01
 gam= 1.271 trial= 0.284  step= 0.138 mean= 0.284
 gam= 0.489 g(H,U,f)=  0.935E+00 0.259E+01 0.277E+00 ort(H,U,f) =-0.217E-01 0.669E-01-0.246E+00
CGA:  17    -0.219144855199E+03   -0.49282E+00   -0.53240E+00  5760   0.380E+01-0.201E+00
 gam= 0.489 trial= 0.277  step= 0.203 mean= 0.277
 gam= 0.365 g(H,U,f)=  0.375E+00 0.844E+00 0.169E+00 ort(H,U,f) =-0.510E+00 0.602E+00-0.404E-01
CGA:  18    -0.219510500919E+03   -0.36565E+00   -0.37650E+00  5760   0.139E+01 0.516E-01
 gam= 0.365 trial= 0.273  step= 0.173 mean= 0.273
 gam= 1.005 g(H,U,f)=  0.325E+00 0.877E+00 0.194E+00 ort(H,U,f) =-0.631E-01 0.182E+00-0.119E+00
CGA:  19    -0.219633560846E+03   -0.12306E+00   -0.12148E+00  5760   0.139E+01 0.492E-03
 gam= 1.005 trial= 0.268  step= 0.248 mean= 0.268
 gam= 1.196 g(H,U,f)=  0.398E+00 0.974E+00 0.296E+00 ort(H,U,f) =-0.146E+00 0.218E+00-0.396E-01
CGA:  20    -0.219806019316E+03   -0.17246E+00   -0.17322E+00  5760   0.167E+01 0.319E-01
 gam= 1.196 trial= 0.267  step= 0.248 mean= 0.267
 gam= 1.097 g(H,U,f)=  0.414E+00 0.109E+01 0.326E+00 ort(H,U,f) =-0.254E+00 0.301E+00-0.671E-01
CGA:  21    -0.220018306659E+03   -0.21229E+00   -0.21185E+00  5760   0.183E+01-0.204E-01
 gam= 1.097 trial= 0.266  step= 0.272 mean= 0.266
 gam= 0.542 g(H,U,f)=  0.553E+00 0.398E+00 0.417E-01 ort(H,U,f) =-0.499E+00 0.560E+00 0.589E-01
CGA:  22    -0.220264446237E+03   -0.24614E+00   -0.24553E+00  5760   0.993E+00 0.120E+00
 gam= 0.542 trial= 0.267  step= 0.491 mean= 0.267
 gam= 1.241 g(H,U,f)=  0.585E+00 0.622E+00 0.252E-01 ort(H,U,f) =-0.122E+00 0.258E+00 0.323E-02
CGA:  23    -0.220542082199E+03   -0.27764E+00   -0.26002E+00  5760   0.123E+01 0.139E+00
 gam= 1.241 trial= 0.278  step= 0.386 mean= 0.278
 gam= 1.179 g(H,U,f)=  0.478E+00 0.806E+00 0.168E+00 ort(H,U,f) =-0.231E+00 0.228E+00-0.312E-01
CGA:  24    -0.220811379476E+03   -0.26930E+00   -0.27117E+00  5760   0.145E+01-0.341E-01
 gam= 1.179 trial= 0.283  step= 0.242 mean= 0.283
 gam= 0.858 g(H,U,f)=  0.447E+00 0.672E+00 0.127E+00 ort(H,U,f) =-0.253E+00 0.359E+00-0.933E-01
CGA:  25    -0.220981954028E+03   -0.17057E+00   -0.17119E+00  5760   0.125E+01 0.123E-01
 gam= 0.858 trial= 0.281  step= 0.274 mean= 0.281
 gam= 0.542 g(H,U,f)=  0.296E+00 0.352E+00 0.286E-01 ort(H,U,f) =-0.176E+00 0.265E+00-0.159E-01
CGA:  26    -0.221153731590E+03   -0.17178E+00   -0.17231E+00  5760   0.676E+00 0.730E-01
 gam= 0.542 trial= 0.281  step= 0.360 mean= 0.281
 gam= 1.248 g(H,U,f)=  0.275E+00 0.436E+00 0.133E+00 ort(H,U,f) =-0.624E-01 0.109E+00-0.504E-01
CGA:  27    -0.221282369878E+03   -0.12864E+00   -0.12877E+00  5760   0.844E+00-0.426E-02
 gam= 1.248 trial= 0.285  step= 0.227 mean= 0.285
 gam= 0.925 g(H,U,f)=  0.228E+00 0.355E+00 0.198E+00 ort(H,U,f) =-0.114E+00 0.194E+00-0.903E-01
CGA:  28    -0.221378088865E+03   -0.95719E-01   -0.95301E-01  5760   0.780E+00-0.108E-01
 gam= 0.925 trial= 0.282  step= 0.243 mean= 0.282
 gam= 0.594 g(H,U,f)=  0.208E+00 0.208E+00 0.474E-01 ort(H,U,f) =-0.122E+00 0.159E+00-0.465E-01
CGA:  29    -0.221472103788E+03   -0.94015E-01   -0.93450E-01  5760   0.464E+00-0.945E-02
 gam= 0.594 trial= 0.280  step= 0.360 mean= 0.280
 gam= 1.702 g(H,U,f)=  0.218E+00 0.366E+00 0.204E+00 ort(H,U,f) =-0.436E-01 0.612E-01-0.496E-01
CGA:  30    -0.221553884590E+03   -0.81781E-01   -0.82381E-01  5760   0.789E+00-0.320E-01
 gam= 1.702 trial= 0.284  step= 0.168 mean= 0.284
 gam= 0.522 g(H,U,f)=  0.163E+00 0.170E+00 0.785E-01 ort(H,U,f) =-0.630E-01 0.158E+00-0.104E+00
CGA:  31    -0.221614936610E+03   -0.61052E-01   -0.61569E-01  5760   0.412E+00-0.989E-02
 gam= 0.522 trial= 0.278  step= 0.273 mean= 0.278
 gam= 0.825 g(H,U,f)=  0.983E-01 0.124E+00 0.118E+00 ort(H,U,f) =-0.528E-01 0.738E-01-0.264E-01
CGA:  32    -0.221670348711E+03   -0.55412E-01   -0.55446E-01  5760   0.340E+00-0.541E-02
 gam= 0.825 trial= 0.278  step= 0.213 mean= 0.278
 gam= 1.336 g(H,U,f)=  0.143E+00 0.186E+00 0.126E+00 ort(H,U,f) =-0.166E-01 0.128E+00-0.108E+00
CGA:  33    -0.221705046001E+03   -0.34697E-01   -0.35783E-01  5760   0.454E+00 0.320E-02
 gam= 1.336 trial= 0.275  step= 0.278 mean= 0.275
 gam= 1.081 g(H,U,f)=  0.133E+00 0.164E+00 0.194E+00 ort(H,U,f) =-0.109E+00 0.569E-01 0.469E-01
CGA:  34    -0.221768610840E+03   -0.63565E-01   -0.63671E-01  5760   0.491E+00-0.562E-02
 gam= 1.081 trial= 0.275  step= 0.051 mean= 0.275
 gam= 0.000 g(H,U,f)=  0.120E+00 0.152E+00 0.145E+00 ort(H,U,f) =-0.548E-02 0.210E+00 0.260E+00
CGA:  35    -0.221788646447E+03   -0.20036E-01   -0.12488E-01  5760   0.418E+00 0.465E+00
 gam= 0.000 trial= 0.264  step= 0.170 mean= 0.264
 gam= 1.019 g(H,U,f)=  0.870E-01 0.170E+00 0.169E+00 ort(H,U,f) = 0.443E-01 0.678E-01-0.921E-01
CGA:  36    -0.221820010127E+03   -0.31364E-01   -0.35559E-01  5760   0.426E+00 0.200E-01
 gam= 1.019 trial= 0.259  step= 0.231 mean= 0.259
 gam= 0.659 g(H,U,f)=  0.748E-01 0.125E+00 0.809E-01 ort(H,U,f) =-0.529E-01 0.588E-01 0.620E-01
CGA:  37    -0.221871024768E+03   -0.51015E-01   -0.51594E-01  5760   0.281E+00 0.679E-01
 gam= 0.659 trial= 0.258  step= 0.418 mean= 0.258
 gam= 1.959 g(H,U,f)=  0.117E+00 0.184E+00 0.249E+00 ort(H,U,f) =-0.292E-01 0.829E-01 0.215E-01
CGA:  38    -0.221941082046E+03   -0.70057E-01   -0.68049E-01  5760   0.550E+00 0.752E-01
 gam= 1.959 trial= 0.266  step= 0.161 mean= 0.266
 gam= 0.484 g(H,U,f)=  0.119E+00 0.142E+00 0.559E-02 ort(H,U,f) =-0.682E-01 0.164E+00 0.653E-02
CGA:  39    -0.221986082571E+03   -0.45001E-01   -0.56207E-01  5760   0.266E+00 0.102E+00
 gam= 0.484 trial= 0.260  step= 0.153 mean= 0.260
 gam= 0.716 g(H,U,f)=  0.931E-01 0.974E-01 0.554E-05 ort(H,U,f) =-0.251E-01 0.593E-01-0.103E-04
CGA:  40    -0.222015592427E+03   -0.29510E-01   -0.24136E-01  5760   0.190E+00 0.342E-01
 gam= 0.716 trial= 0.255  step= 0.317 mean= 0.255
 gam= 0.648 g(H,U,f)=  0.674E-01 0.560E-01 0.329E-04 ort(H,U,f) =-0.405E-01 0.400E-01-0.325E-04
CGA:  41    -0.222049802665E+03   -0.34210E-01   -0.34110E-01  5760   0.123E+00-0.490E-03
 gam= 0.648 trial= 0.258  step= 0.171 mean= 0.258
 gam= 0.870 g(H,U,f)=  0.384E-01 0.689E-01 0.932E-05 ort(H,U,f) =-0.586E-03 0.308E-01 0.273E-05
CGA:  42    -0.222063026883E+03   -0.13224E-01   -0.10500E-01  5760   0.107E+00 0.303E-01
 gam= 0.870 trial= 0.254  step= 0.314 mean= 0.254
 gam= 0.744 g(H,U,f)=  0.343E-01 0.455E-01 0.824E-06 ort(H,U,f) =-0.249E-01 0.148E-01-0.124E-06
CGA:  43    -0.222083629367E+03   -0.20602E-01   -0.21000E-01  5760   0.798E-01-0.101E-01
 gam= 0.744 trial= 0.257  step= 0.232 mean= 0.257
 gam= 1.046 g(H,U,f)=  0.312E-01 0.523E-01 0.231E-05 ort(H,U,f) =-0.202E-02 0.164E-01 0.165E-05
CGA:  44    -0.222092197309E+03   -0.85679E-02   -0.83818E-02  5760   0.835E-01 0.144E-01
 gam= 1.046 trial= 0.256  step= 0.272 mean= 0.256
 gam= 0.633 g(H,U,f)=  0.249E-01 0.280E-01 0.728E-05 ort(H,U,f) =-0.211E-01 0.835E-02 0.948E-05
CGA:  45    -0.222105328696E+03   -0.13131E-01   -0.13413E-01  5760   0.529E-01-0.127E-01
 gam= 0.633 trial= 0.256  step= 0.559 mean= 0.256
 gam= 0.780 g(H,U,f)=  0.231E-01 0.182E-01 0.766E-05 ort(H,U,f) =-0.129E-01 0.113E-01 0.265E-05
CGA:  46    -0.222117529947E+03   -0.12201E-01   -0.12533E-01  5760   0.412E-01-0.155E-02
 gam= 0.780 trial= 0.271  step= 0.413 mean= 0.271
 gam= 0.855 g(H,U,f)=  0.157E-01 0.192E-01 0.266E-03 ort(H,U,f) =-0.665E-02 0.649E-02-0.538E-05
CGA:  47    -0.222125752712E+03   -0.82228E-02   -0.82619E-02  5760   0.352E-01-0.165E-03
 gam= 0.855 trial= 0.279  step= 0.464 mean= 0.279
 gam= 1.604 g(H,U,f)=  0.206E-01 0.316E-01 0.429E-02 ort(H,U,f) =-0.433E-02 0.487E-02-0.158E-02
CGA:  48    -0.222132899234E+03   -0.71465E-02   -0.81480E-02  5760   0.566E-01-0.104E-02
 gam= 1.604 trial= 0.288  step= 0.215 mean= 0.288
 gam= 0.594 g(H,U,f)=  0.169E-01 0.167E-01 0.135E-05 ort(H,U,f) =-0.126E-01 0.133E-01-0.299E-05
CGA:  49    -0.222139226495E+03   -0.63273E-02   -0.59000E-02  5760   0.336E-01 0.660E-03
 gam= 0.594 trial= 0.284  step= 0.495 mean= 0.284
 gam= 0.933 g(H,U,f)=  0.155E-01 0.158E-01 0.415E-06 ort(H,U,f) =-0.694E-02 0.109E-02 0.202E-05
CGA:  50    -0.222146852075E+03   -0.76256E-02   -0.84078E-02  5760   0.314E-01-0.585E-02
 gam= 0.933 trial= 0.295  step= 0.308 mean= 0.295
 gam= 0.762 g(H,U,f)=  0.856E-02 0.153E-01 0.727E-04 ort(H,U,f) =-0.428E-03 0.445E-02-0.406E-04
CGA:  51    -0.222150827219E+03   -0.39751E-02   -0.39885E-02  5760   0.239E-01 0.398E-02
 gam= 0.762 trial= 0.295  step= 0.247 mean= 0.295
 gam= 0.828 g(H,U,f)=  0.809E-02 0.117E-01 0.424E-04 ort(H,U,f) =-0.241E-02 0.358E-02-0.398E-04
CGA:  52    -0.222154532731E+03   -0.37055E-02   -0.33296E-02  5760   0.198E-01 0.113E-02
 gam= 0.828 trial= 0.293  step= 0.337 mean= 0.293
 gam= 1.023 g(H,U,f)=  0.862E-02 0.116E-01 0.107E-04 ort(H,U,f) =-0.443E-02 0.256E-02-0.756E-05
CGA:  53    -0.222157935013E+03   -0.34023E-02   -0.34896E-02  5760   0.202E-01-0.187E-02
 gam= 1.023 trial= 0.295  step= 0.417 mean= 0.295
 gam= 0.962 g(H,U,f)=  0.945E-02 0.100E-01 0.139E-04 ort(H,U,f) =-0.575E-02 0.545E-02 0.354E-05
CGA:  54    -0.222161737353E+03   -0.38023E-02   -0.38224E-02  5760   0.195E-01-0.304E-03
 gam= 0.962 trial= 0.301  step= 0.312 mean= 0.301
 gam= 1.004 g(H,U,f)=  0.781E-02 0.116E-01 0.211E-03 ort(H,U,f) =-0.259E-02 0.418E-02-0.766E-04
CGA:  55    -0.222164725999E+03   -0.29886E-02   -0.29957E-02  5760   0.196E-01 0.151E-02
 gam= 1.004 trial= 0.302  step= 0.266 mean= 0.302
 gam= 0.708 g(H,U,f)=  0.719E-02 0.666E-02 0.153E-05 ort(H,U,f) =-0.424E-02 0.459E-02-0.826E-07
CGA:  56    -0.222167662220E+03   -0.29362E-02   -0.28108E-02  5760   0.139E-01 0.351E-03
 gam= 0.708 trial= 0.300  step= 0.574 mean= 0.300
 gam= 1.974 g(H,U,f)=  0.103E-01 0.171E-01 0.158E-05 ort(H,U,f) =-0.436E-02 0.180E-02 0.836E-06
CGA:  57    -0.222170621248E+03   -0.29590E-02   -0.40485E-02  5760   0.274E-01-0.256E-02
 gam= 1.974 trial= 0.314  step= 0.286 mean= 0.314
 gam= 0.947 g(H,U,f)=  0.122E-01 0.137E-01 0.377E-06 ort(H,U,f) =-0.892E-02 0.681E-02 0.131E-05
CGA:  58    -0.222173912767E+03   -0.32915E-02   -0.31932E-02  5760   0.259E-01-0.210E-02
 gam= 0.947 trial= 0.312  step= 0.278 mean= 0.312
 gam= 0.783 g(H,U,f)=  0.115E-01 0.878E-02 0.864E-06 ort(H,U,f) =-0.609E-02 0.645E-02-0.120E-05
CGA:  59    -0.222177228745E+03   -0.33160E-02   -0.33215E-02  5760   0.203E-01 0.352E-03
 gam= 0.783 trial= 0.311  step= 0.297 mean= 0.311
 gam= 1.306 g(H,U,f)=  0.112E-01 0.153E-01 0.237E-04 ort(H,U,f) =-0.149E-02 0.297E-02-0.483E-05
CGA:  60    -0.222180294617E+03   -0.30659E-02   -0.30569E-02  5760   0.265E-01 0.147E-02
 gam= 1.306 trial= 0.310  step= 0.350 mean= 0.310
 gam= 0.806 g(H,U,f)=  0.104E-01 0.108E-01 0.696E-04 ort(H,U,f) =-0.758E-02 0.572E-02-0.619E-04
CGA:  61    -0.222185077353E+03   -0.47827E-02   -0.49673E-02  5760   0.214E-01-0.193E-02
 gam= 0.806 trial= 0.312  step= 0.388 mean= 0.312
 gam= 0.926 g(H,U,f)=  0.118E-01 0.784E-02 0.123E-03 ort(H,U,f) =-0.700E-02 0.489E-02-0.943E-04
CGA:  62    -0.222188709378E+03   -0.36320E-02   -0.38456E-02  5760   0.198E-01-0.220E-02
 gam= 0.926 trial= 0.316  step= 0.292 mean= 0.316
 gam= 0.775 g(H,U,f)=  0.886E-02 0.632E-02 0.142E-03 ort(H,U,f) =-0.217E-02 0.199E-02-0.441E-04
CGA:  63    -0.222191311545E+03   -0.26022E-02   -0.25939E-02  5760   0.153E-01-0.220E-03
 gam= 0.775 trial= 0.315  step= 0.339 mean= 0.315
 gam= 0.690 g(H,U,f)=  0.544E-02 0.499E-02 0.155E-03 ort(H,U,f) =-0.593E-03 0.458E-03-0.151E-03
CGA:  64    -0.222193871364E+03   -0.25598E-02   -0.25678E-02  5760   0.106E-01-0.286E-03
 gam= 0.690 trial= 0.316  step= 0.341 mean= 0.316
 gam= 0.626 g(H,U,f)=  0.326E-02 0.330E-02 0.666E-04 ort(H,U,f) =-0.308E-03 0.146E-03 0.387E-04
CGA:  65    -0.222195640318E+03   -0.17690E-02   -0.17713E-02  5760   0.662E-02-0.123E-03
 gam= 0.626 trial= 0.317  step= 0.323 mean= 0.317
 gam= 0.000 g(H,U,f)=  0.200E-02 0.210E-02 0.135E-05 ort(H,U,f) =-0.121E-03 0.227E-03-0.304E-05
SDA:  66    -0.222196697464E+03   -0.10571E-02   -0.10574E-02  5760   0.409E-02 0.103E-03
 gam= 0.000 trial= 0.317  step= 0.418 mean= 0.317
 gam= 0.798 g(H,U,f)=  0.102E-02 0.223E-02 0.144E-04 ort(H,U,f) = 0.462E-03-0.225E-03-0.386E-05
CGA:  67    -0.222197536086E+03   -0.83862E-03   -0.85571E-03  5760   0.326E-02 0.234E-03
 gam= 0.798 trial= 0.322  step= 0.254 mean= 0.322
 gam= 1.016 g(H,U,f)=  0.949E-03 0.236E-02 0.126E-04 ort(H,U,f) = 0.356E-03 0.202E-03-0.103E-04
CGA:  68    -0.222198045498E+03   -0.50941E-03   -0.43855E-03  5760   0.332E-02 0.547E-03
 gam= 1.016 trial= 0.319  step= 0.473 mean= 0.319
 gam= 0.854 g(H,U,f)=  0.119E-02 0.164E-02 0.279E-05 ort(H,U,f) =-0.107E-02 0.566E-03-0.374E-06
CGA:  69    -0.222198880482E+03   -0.83498E-03   -0.91533E-03  5760   0.283E-02-0.509E-03
 gam= 0.854 trial= 0.327  step= 0.582 mean= 0.327
 gam= 0.817 g(H,U,f)=  0.138E-02 0.930E-03 0.586E-05 ort(H,U,f) =-0.777E-03 0.482E-03-0.335E-05
CGA:  70    -0.222199466506E+03   -0.58602E-03   -0.69806E-03  5760   0.232E-02-0.298E-03
 gam= 0.817 trial= 0.339  step= 0.314 mean= 0.339
 gam= 1.102 g(H,U,f)=  0.106E-02 0.148E-02 0.972E-05 ort(H,U,f) = 0.112E-03 0.125E-03-0.377E-05
CGA:  71    -0.222199802425E+03   -0.33592E-03   -0.32500E-03  5760   0.255E-02 0.233E-03
 gam= 1.102 trial= 0.338  step= 0.299 mean= 0.338
 gam= 0.485 g(H,U,f)=  0.539E-03 0.697E-03 0.205E-05 ort(H,U,f) =-0.232E-03 0.425E-04-0.242E-05
CGA:  72    -0.222200244448E+03   -0.44202E-03   -0.41977E-03  5760   0.124E-02-0.192E-03
 gam= 0.485 trial= 0.336  step= 0.426 mean= 0.336
 gam= 0.940 g(H,U,f)=  0.471E-03 0.686E-03 0.633E-05 ort(H,U,f) =-0.892E-04 0.113E-03-0.133E-05
CGA:  73    -0.222200471040E+03   -0.22659E-03   -0.24356E-03  5760   0.116E-02 0.226E-04
 gam= 0.940 trial= 0.341  step= 0.254 mean= 0.341
 gam= 0.752 g(H,U,f)=  0.414E-03 0.457E-03 0.415E-05 ort(H,U,f) =-0.253E-04 0.171E-03-0.445E-05
CGA:  74    -0.222200658772E+03   -0.18773E-03   -0.15046E-03  5760   0.875E-03 0.141E-03
 gam= 0.752 trial= 0.336  step= 0.557 mean= 0.336
 gam= 1.390 g(H,U,f)=  0.414E-03 0.798E-03 0.456E-05 ort(H,U,f) =-0.247E-03 0.907E-04-0.931E-06
CGA:  75    -0.222200884741E+03   -0.22597E-03   -0.27330E-03  5760   0.122E-02-0.157E-03
 gam= 1.390 trial= 0.347  step= 0.245 mean= 0.347
 gam= 0.555 g(H,U,f)=  0.369E-03 0.304E-03 0.193E-05 ort(H,U,f) =-0.354E-03 0.400E-03-0.229E-05
CGA:  76    -0.222201033083E+03   -0.14834E-03   -0.12245E-03  5760   0.675E-03 0.432E-04
 gam= 0.555 trial= 0.342  step= 0.479 mean= 0.342
 gam= 1.133 g(H,U,f)=  0.399E-03 0.364E-03 0.168E-05 ort(H,U,f) =-0.185E-03 0.127E-03-0.629E-06
CGA:  77    -0.222201188280E+03   -0.15520E-03   -0.16743E-03  5760   0.765E-03-0.592E-04
 gam= 1.133 trial= 0.349  step= 0.551 mean= 0.349
 gam= 1.664 g(H,U,f)=  0.534E-03 0.731E-03 0.886E-05 ort(H,U,f) =-0.149E-03 0.135E-03-0.247E-05
CGA:  78    -0.222201353056E+03   -0.16478E-03   -0.19230E-03  5760   0.127E-02-0.165E-04
 gam= 1.664 trial= 0.359  step= 0.235 mean= 0.359
 gam= 0.568 g(H,U,f)=  0.398E-03 0.323E-03 0.247E-05 ort(H,U,f) =-0.216E-03 0.277E-03-0.251E-05
CGA:  79    -0.222201526465E+03   -0.17341E-03   -0.14634E-03  5760   0.723E-03 0.588E-04
 gam= 0.568 trial= 0.353  step= 0.403 mean= 0.353
 gam= 0.712 g(H,U,f)=  0.294E-03 0.221E-03 0.541E-06 ort(H,U,f) =-0.111E-03 0.834E-04-0.496E-06
CGA:  80    -0.222201676666E+03   -0.15020E-03   -0.15259E-03  5760   0.515E-03-0.278E-04
 gam= 0.712 trial= 0.355  step= 0.646 mean= 0.355
 gam= 1.036 g(H,U,f)=  0.266E-03 0.267E-03 0.102E-05 ort(H,U,f) =-0.993E-04 0.913E-04-0.270E-06
CGA:  81    -0.222201831112E+03   -0.15445E-03   -0.15998E-03  5760   0.534E-03-0.833E-05
 gam= 1.036 trial= 0.370  step= 0.337 mean= 0.370
 gam= 0.847 g(H,U,f)=  0.224E-03 0.225E-03 0.303E-05 ort(H,U,f) =-0.658E-04 0.107E-03-0.104E-05
CGA:  82    -0.222201920448E+03   -0.89336E-04   -0.88385E-04  5760   0.452E-03 0.402E-04
 gam= 0.847 trial= 0.368  step= 0.287 mean= 0.368
 gam= 0.833 g(H,U,f)=  0.151E-03 0.222E-03 0.326E-05 ort(H,U,f) =-0.170E-04 0.754E-04-0.224E-05
CGA:  83    -0.222201998968E+03   -0.78521E-04   -0.69846E-04  5760   0.377E-03 0.562E-04
 gam= 0.833 trial= 0.364  step= 0.384 mean= 0.364
 gam= 0.949 g(H,U,f)=  0.158E-03 0.198E-03 0.167E-05 ort(H,U,f) =-0.105E-03 0.847E-04-0.102E-05
CGA:  84    -0.222202079006E+03   -0.80038E-04   -0.81210E-04  5760   0.358E-03-0.212E-04
 gam= 0.949 trial= 0.365  step= 0.408 mean= 0.365
 gam= 0.989 g(H,U,f)=  0.185E-03 0.166E-03 0.260E-05 ort(H,U,f) =-0.108E-03 0.106E-03-0.882E-06
CGA:  85    -0.222202145978E+03   -0.66972E-04   -0.68901E-04  5760   0.354E-03-0.268E-05
 gam= 0.989 trial= 0.367  step= 0.371 mean= 0.367
 gam= 0.989 g(H,U,f)=  0.192E-03 0.154E-03 0.385E-05 ort(H,U,f) =-0.698E-04 0.749E-04-0.220E-05
CGA:  86    -0.222202210853E+03   -0.64875E-04   -0.65101E-04  5760   0.350E-03 0.286E-05
 gam= 0.989 trial= 0.368  step= 0.354 mean= 0.368
 gam= 1.041 g(H,U,f)=  0.151E-03 0.209E-03 0.389E-05 ort(H,U,f) =-0.607E-04 0.605E-04-0.162E-05
CGA:  87    -0.222202274339E+03   -0.63486E-04   -0.62503E-04  5760   0.364E-03-0.183E-05
 gam= 1.041 trial= 0.367  step= 0.370 mean= 0.367
 gam= 0.824 g(H,U,f)=  0.137E-03 0.161E-03 0.210E-05 ort(H,U,f) =-0.808E-04 0.616E-04-0.163E-05
CGA:  88    -0.222202341185E+03   -0.66847E-04   -0.67047E-04  5760   0.300E-03-0.208E-04
 gam= 0.824 trial= 0.367  step= 0.354 mean= 0.367
 gam= 0.841 g(H,U,f)=  0.124E-03 0.126E-03 0.200E-05 ort(H,U,f) =-0.545E-04 0.579E-04-0.817E-06
CGA:  89    -0.222202391774E+03   -0.50588E-04   -0.50172E-04  5760   0.253E-03 0.260E-05
 gam= 0.841 trial= 0.366  step= 0.410 mean= 0.366
 gam= 1.078 g(H,U,f)=  0.104E-03 0.163E-03 0.487E-05 ort(H,U,f) =-0.395E-04 0.479E-04-0.225E-05
CGA:  90    -0.222202442128E+03   -0.50354E-04   -0.52233E-04  5760   0.272E-03 0.613E-05
 gam= 1.078 trial= 0.369  step= 0.369 mean= 0.369
 gam= 1.218 g(H,U,f)=  0.138E-03 0.189E-03 0.496E-05 ort(H,U,f) =-0.632E-04 0.660E-04-0.247E-05
CGA:  91    -0.222202493535E+03   -0.51407E-04   -0.51424E-04  5760   0.332E-03 0.280E-06
 gam= 1.218 trial= 0.369  step= 0.336 mean= 0.369
 gam= 0.790 g(H,U,f)=  0.135E-03 0.126E-03 0.950E-06 ort(H,U,f) =-0.858E-04 0.665E-04-0.785E-06
CGA:  92    -0.222202550754E+03   -0.57219E-04   -0.55790E-04  5760   0.262E-03-0.201E-04
 gam= 0.790 trial= 0.367  step= 0.572 mean= 0.367
 gam= 0.891 g(H,U,f)=  0.118E-03 0.114E-03 0.128E-05 ort(H,U,f) =-0.619E-04 0.502E-04-0.311E-06
CGA:  93    -0.222202617188E+03   -0.66434E-04   -0.70309E-04  5760   0.233E-03-0.120E-04
 gam= 0.891 trial= 0.377  step= 0.355 mean= 0.377
 gam= 0.803 g(H,U,f)=  0.108E-03 0.763E-04 0.275E-05 ort(H,U,f) =-0.368E-04 0.526E-04-0.154E-05
CGA:  94    -0.222202657189E+03   -0.40000E-04   -0.39520E-04  5760   0.187E-03 0.143E-04
 gam= 0.803 trial= 0.376  step= 0.302 mean= 0.376
 gam= 1.099 g(H,U,f)=  0.849E-04 0.119E-03 0.235E-05 ort(H,U,f) = 0.144E-04 0.599E-05-0.141E-05
CGA:  95    -0.222202689742E+03   -0.32553E-04   -0.30018E-04  5760   0.206E-03 0.190E-04
 gam= 1.099 trial= 0.372  step= 0.488 mean= 0.372
 gam= 0.887 g(H,U,f)=  0.791E-04 0.103E-03 0.847E-06 ort(H,U,f) =-0.485E-04 0.286E-04-0.470E-06
CGA:  96    -0.222202741991E+03   -0.52249E-04   -0.55305E-04  5760   0.183E-03-0.204E-04
 gam= 0.887 trial= 0.378  step= 0.319 mean= 0.378
 gam= 0.000 g(H,U,f)=  0.678E-04 0.397E-04 0.129E-05 ort(H,U,f) =-0.449E-04 0.503E-04-0.462E-06
SDA:  97    -0.222202768749E+03   -0.26758E-04   -0.26209E-04  5760   0.109E-03 0.496E-05
 gam= 0.000 trial= 0.375  step= 0.277 mean= 0.375
 gam= 1.067 g(H,U,f)=  0.474E-04 0.654E-04 0.319E-05 ort(H,U,f) = 0.384E-04-0.467E-05-0.204E-05
CGA:  98    -0.222202785960E+03   -0.17211E-04   -0.15070E-04  5760   0.116E-03 0.317E-04
 gam= 1.067 trial= 0.370  step= 0.340 mean= 0.370
 gam= 0.651 g(H,U,f)=  0.197E-04 0.551E-04 0.767E-06 ort(H,U,f) =-0.351E-05-0.537E-05-0.491E-06
CGA:  99    -0.222202812112E+03   -0.26151E-04   -0.25435E-04  5760   0.755E-04-0.937E-05
 gam= 0.651 trial= 0.369  step= 0.358 mean= 0.369
 gam= 0.612 g(H,U,f)=  0.207E-04 0.247E-04 0.864E-06 ort(H,U,f) =-0.145E-04 0.145E-04-0.483E-06
CGA: 100    -0.222202824659E+03   -0.12547E-04   -0.12432E-04  5760   0.462E-04-0.474E-06
 gam= 0.612 trial= 0.368  step= 0.335 mean= 0.368
 gam= 1.024 g(H,U,f)=  0.204E-04 0.255E-04 0.137E-05 ort(H,U,f) =-0.450E-05 0.994E-05-0.709E-06
CGA: 101    -0.222202832743E+03   -0.80839E-05   -0.76919E-05  5760   0.474E-04 0.473E-05
 gam= 1.024 trial= 0.367  step= 0.410 mean= 0.367
 gam= 1.146 g(H,U,f)=  0.178E-04 0.353E-04 0.115E-05 ort(H,U,f) =-0.832E-05 0.311E-05-0.595E-06
CGA: 102    -0.222202842724E+03   -0.99808E-05   -0.10709E-04  5760   0.543E-04-0.580E-05
 gam= 1.146 trial= 0.369  step= 0.299 mean= 0.369
 gam= 0.628 g(H,U,f)=  0.163E-04 0.174E-04 0.371E-06 ort(H,U,f) =-0.119E-04 0.107E-04-0.252E-06
CGA: 103    -0.222202850488E+03   -0.77636E-05   -0.71235E-05  5760   0.341E-04-0.154E-05
 gam= 0.628 trial= 0.365  step= 0.481 mean= 0.365
 gam= 0.713 g(H,U,f)=  0.118E-04 0.123E-04 0.278E-06 ort(H,U,f) =-0.630E-05 0.395E-05-0.184E-06
CGA: 104    -0.222202857907E+03   -0.74196E-05   -0.79630E-05  5760   0.243E-04-0.253E-05
 gam= 0.713 trial= 0.371  step= 0.332 mean= 0.371
 gam= 1.067 g(H,U,f)=  0.105E-04 0.149E-04 0.537E-06 ort(H,U,f) = 0.237E-06 0.232E-05-0.211E-06
CGA: 105    -0.222202861751E+03   -0.38434E-05   -0.37338E-05  5760   0.259E-04 0.235E-05
 gam= 1.067 trial= 0.369  step= 0.396 mean= 0.369
 gam= 0.844 g(H,U,f)=  0.793E-05 0.133E-04 0.623E-06 ort(H,U,f) =-0.329E-05 0.324E-05-0.342E-06
CGA: 106    -0.222202867193E+03   -0.54429E-05   -0.56302E-05  5760   0.219E-04-0.398E-06
 gam= 0.844 trial= 0.370  step= 0.297 mean= 0.370
 gam= 0.836 g(H,U,f)=  0.679E-05 0.112E-04 0.347E-06 ort(H,U,f) =-0.227E-05 0.408E-05-0.250E-06
CGA: 107    -0.222202870772E+03   -0.35788E-05   -0.31981E-05  5760   0.183E-04 0.155E-05
 gam= 0.836 trial= 0.367  step= 0.430 mean= 0.367
 gam= 0.858 g(H,U,f)=  0.669E-05 0.884E-05 0.167E-06 ort(H,U,f) =-0.383E-05 0.312E-05-0.973E-07
CGA: 108    -0.222202874815E+03   -0.40431E-05   -0.42157E-05  5760   0.157E-04-0.806E-06
 gam= 0.858 trial= 0.370  step= 0.368 mean= 0.370
 gam= 0.799 g(H,U,f)=  0.591E-05 0.631E-05 0.335E-06 ort(H,U,f) =-0.169E-05 0.290E-05-0.119E-06
CGA: 109    -0.222202877578E+03   -0.27626E-05   -0.27593E-05  5760   0.126E-04 0.110E-05
 gam= 0.799 trial= 0.370  step= 0.380 mean= 0.370
 gam= 1.313 g(H,U,f)=  0.529E-05 0.106E-04 0.560E-06 ort(H,U,f) =-0.480E-06 0.169E-05-0.313E-06
CGA: 110    -0.222202880081E+03   -0.25032E-05   -0.25525E-05  5760   0.165E-04 0.893E-06
 gam= 1.313 trial= 0.370  step= 0.331 mean= 0.370
 gam= 0.746 g(H,U,f)=  0.460E-05 0.760E-05 0.909E-07 ort(H,U,f) =-0.329E-05 0.178E-05-0.566E-07
CGA: 111    -0.222202883115E+03   -0.30342E-05   -0.29183E-05  5760   0.123E-04-0.157E-05
 gam= 0.746 trial= 0.368  step= 0.429 mean= 0.368
 gam= 0.687 g(H,U,f)=  0.461E-05 0.380E-05 0.400E-07 ort(H,U,f) =-0.296E-05 0.203E-05-0.301E-07
CGA: 112    -0.222202885435E+03   -0.23196E-05   -0.23859E-05  5760   0.844E-05-0.960E-06
 gam= 0.687 trial= 0.371  step= 0.699 mean= 0.371
 gam= 1.380 g(H,U,f)=  0.490E-05 0.649E-05 0.256E-06 ort(H,U,f) =-0.204E-05 0.104E-05-0.504E-07
CGA: 113    -0.222202887763E+03   -0.23281E-05   -0.27222E-05  5760   0.117E-04-0.106E-05
 gam= 1.380 trial= 0.388  step= 0.267 mean= 0.388
 gam= 1.056 g(H,U,f)=  0.468E-05 0.742E-05 0.210E-06 ort(H,U,f) =-0.812E-06 0.209E-05-0.173E-06
CGA: 114    -0.222202889423E+03   -0.16597E-05   -0.13614E-05  5760   0.123E-04 0.110E-05
 gam= 1.056 trial= 0.382  step= 0.418 mean= 0.382
 gam= 0.572 g(H,U,f)=  0.408E-05 0.295E-05 0.718E-08 ort(H,U,f) =-0.343E-05 0.213E-05-0.302E-08
CGA: 115    -0.222202892203E+03   -0.27804E-05   -0.28156E-05  5760   0.703E-05-0.129E-05
 gam= 0.572 trial= 0.384  step= 0.740 mean= 0.384
 gam= 1.251 g(H,U,f)=  0.437E-05 0.442E-05 0.739E-08 ort(H,U,f) =-0.141E-05 0.834E-06 0.487E-08
CGA: 116    -0.222202894427E+03   -0.22242E-05   -0.23287E-05  5760   0.880E-05-0.573E-06
 gam= 1.251 trial= 0.401  step= 0.440 mean= 0.401
 gam= 0.776 g(H,U,f)=  0.313E-05 0.342E-05 0.275E-06 ort(H,U,f) =-0.105E-05 0.150E-05-0.716E-07
CGA: 117    -0.222202896195E+03   -0.17680E-05   -0.17786E-05  5760   0.683E-05 0.386E-06
 gam= 0.776 trial= 0.403  step= 0.204 mean= 0.403
 gam= 0.707 g(H,U,f)=  0.243E-05 0.232E-05 0.804E-07 ort(H,U,f) = 0.664E-06 0.124E-05-0.119E-06
CGA: 118    -0.222202897252E+03   -0.10564E-05   -0.72683E-06  5760   0.483E-05 0.179E-05
 gam= 0.707 trial= 0.393  step= 0.416 mean= 0.393
 gam= 0.787 g(H,U,f)=  0.183E-05 0.195E-05 0.234E-07 ort(H,U,f) =-0.325E-06 0.845E-06-0.315E-08
CGA: 119    -0.222202898525E+03   -0.12735E-05   -0.12671E-05  5760   0.380E-05 0.517E-06
 gam= 0.787 trial= 0.394  step= 0.368 mean= 0.394
 gam= 1.472 g(H,U,f)=  0.199E-05 0.346E-05 0.152E-06 ort(H,U,f) =-0.363E-06 0.124E-05-0.561E-07
CGA: 120    -0.222202899301E+03   -0.77579E-06   -0.77370E-06  5760   0.560E-05 0.819E-06
 gam= 1.472 trial= 0.393  step= 0.236 mean= 0.393
 final diagonalization
   1 F= -.23220518E+03 E0= -.23220150E+03  d E =-.734644E-02  mag=     6.0000
