 vasp.5.4.4.18Apr17-6-g9f103f2a35 (build Nov 22 2021 14:44:17) complex          
  
 executed on             LinuxIFC date 2022.08.08  10:57:14
 running on   64 total cores
 distrk:  each k-point on   64 cores,    1 groups
 distr:  one band on NCORES_PER_BAND=   4 cores,   16 groups


--------------------------------------------------------------------------------------------------------


 INCAR:
 POTCAR:    PAW_PBE Li 17Jan2003                  
 POTCAR:    PAW_PBE Co 02Aug2007                  
 POTCAR:    PAW_PBE O 08Apr2002                   
 POTCAR:    PAW_PBE Li 17Jan2003                  
   VRHFIN =Li: s1p0                                                             
   LEXCH  = PE                                                                  
   EATOM  =     5.3001 eV,    0.3895 Ry                                         
                                                                                
   TITEL  = PAW_PBE Li 17Jan2003                                                
   LULTRA =        F    use ultrasoft PP ?                                      
   IUNSCR =        1    unscreen: 0-lin 1-nonlin 2-no                           
   RPACOR =    1.500    partial core radius                                     
   POMASS =    7.010; ZVAL   =    1.000    mass and valenz                      
   RCORE  =    2.050    outmost cutoff radius                                   
   RWIGS  =    2.600; RWIGS  =    1.376    wigner-seitz radius (au A)           
   ENMAX  =  140.000; ENMIN  =  100.000 eV                                      
   ICORE  =        2    local potential                                         
   LCOR   =        T    correct aug charges                                     
   LPAW   =        T    paw PP                                                  
   EAUG   =  331.638                                                            
   DEXC   =    0.000                                                            
   RMAX   =    2.098    core radius for proj-oper                               
   RAUG   =    1.300    factor for augmentation sphere                          
   RDEP   =    2.094    radius for radial grids                                 
   RDEPT  =    1.810    core radius for aug-charge                              
                                                                                
   Atomic configuration                                                         
    4 entries                                                                   
     n  l   j            E        occ.                                          
     1  0  0.50       -51.8549   2.0000                                         
     2  0  0.50        -2.8742   1.0000                                         
     2  1  0.50        -1.3606   0.0000                                         
     3  2  1.50        -1.3606   0.0000                                         
   Description                                                                  
     l       E           TYP  RCUT    TYP  RCUT                                 
     0     -2.8742052     23  2.050                                             
     0     27.2116520     23  2.050                                             
     1     -1.3605826     23  2.050                                             
     2     -1.3605826     23  2.050                                             
  local pseudopotential read in
  partial core-charges read in
  partial kinetic energy density read in
  atomic valenz-charges read in
  non local Contribution for L=           0  read in
    real space projection operators read in
  non local Contribution for L=           0  read in
    real space projection operators read in
  non local Contribution for L=           1  read in
    real space projection operators read in
    PAW grid and wavefunctions read in
 
   number of l-projection  operators is LMAX  =           3
   number of lm-projection operators is LMMAX =           5
 
 POTCAR:    PAW_PBE Co 02Aug2007                  
   VRHFIN =Co: d8 s1                                                            
   LEXCH  = PE                                                                  
   EATOM  =   813.3670 eV,   59.7808 Ry                                         
                                                                                
   TITEL  = PAW_PBE Co 02Aug2007                                                
   LULTRA =        F    use ultrasoft PP ?                                      
   IUNSCR =        1    unscreen: 0-lin 1-nonlin 2-no                           
   RPACOR =    2.000    partial core radius                                     
   POMASS =   58.933; ZVAL   =    9.000    mass and valenz                      
   RCORE  =    2.300    outmost cutoff radius                                   
   RWIGS  =    2.460; RWIGS  =    1.302    wigner-seitz radius (au A)           
   ENMAX  =  267.968; ENMIN  =  200.976 eV                                      
   RCLOC  =    1.203    cutoff for local pot                                    
   LCOR   =        T    correct aug charges                                     
   LPAW   =        T    paw PP                                                  
   EAUG   =  477.818                                                            
   DEXC   =    0.000                                                            
   RMAX   =    2.360    core radius for proj-oper                               
   RAUG   =    1.300    factor for augmentation sphere                          
   RDEP   =    2.393    radius for radial grids                                 
   RDEPT  =    1.864    core radius for aug-charge                              
                                                                                
   Atomic configuration                                                         
    9 entries                                                                   
     n  l   j            E        occ.                                          
     1  0  0.50     -7587.6674   2.0000                                         
     2  0  0.50      -893.6084   2.0000                                         
     2  1  1.50      -764.5805   6.0000                                         
     3  0  0.50       -97.5973   2.0000                                         
     3  1  1.50       -60.9648   6.0000                                         
     3  2  2.50        -4.2382   8.0000                                         
     4  0  0.50        -4.3746   1.0000                                         
     4  1  1.50        -4.0817   0.0000                                         
     4  3  2.50        -1.3606   0.0000                                         
   Description                                                                  
     l       E           TYP  RCUT    TYP  RCUT                                 
     2     -4.2382362     23  2.300                                             
     2     -5.5988188     23  2.300                                             
     0     -4.3745797     23  2.300                                             
     0      5.7660125     23  2.300                                             
     1     -2.7211652     23  2.300                                             
     1     16.9860234     23  2.300                                             
  local pseudopotential read in
  partial core-charges read in
  partial kinetic energy density read in
  atomic valenz-charges read in
  non local Contribution for L=           2  read in
    real space projection operators read in
  non local Contribution for L=           2  read in
    real space projection operators read in
  non local Contribution for L=           0  read in
    real space projection operators read in
  non local Contribution for L=           0  read in
    real space projection operators read in
  non local Contribution for L=           1  read in
    real space projection operators read in
  non local Contribution for L=           1  read in
    real space projection operators read in
    PAW grid and wavefunctions read in
 
   number of l-projection  operators is LMAX  =           6
   number of lm-projection operators is LMMAX =          18
 
 POTCAR:    PAW_PBE O 08Apr2002                   
   VRHFIN =O: s2p4                                                              
   LEXCH  = PE                                                                  
   EATOM  =   432.3788 eV,   31.7789 Ry                                         
                                                                                
   TITEL  = PAW_PBE O 08Apr2002                                                 
   LULTRA =        F    use ultrasoft PP ?                                      
   IUNSCR =        1    unscreen: 0-lin 1-nonlin 2-no                           
   RPACOR =    1.200    partial core radius                                     
   POMASS =   16.000; ZVAL   =    6.000    mass and valenz                      
   RCORE  =    1.520    outmost cutoff radius                                   
   RWIGS  =    1.550; RWIGS  =    0.820    wigner-seitz radius (au A)           
   ENMAX  =  400.000; ENMIN  =  300.000 eV                                      
   ICORE  =        2    local potential                                         
   LCOR   =        T    correct aug charges                                     
   LPAW   =        T    paw PP                                                  
   EAUG   =  605.392                                                            
   DEXC   =    0.000                                                            
   RMAX   =    1.553    core radius for proj-oper                               
   RAUG   =    1.300    factor for augmentation sphere                          
   RDEP   =    1.550    radius for radial grids                                 
   RDEPT  =    1.329    core radius for aug-charge                              
                                                                                
   Atomic configuration                                                         
    4 entries                                                                   
     n  l   j            E        occ.                                          
     1  0  0.50      -514.6923   2.0000                                         
     2  0  0.50       -23.9615   2.0000                                         
     2  1  0.50        -9.0305   4.0000                                         
     3  2  1.50        -9.5241   0.0000                                         
   Description                                                                  
     l       E           TYP  RCUT    TYP  RCUT                                 
     0    -23.9615318     23  1.200                                             
     0     -9.5240782     23  1.200                                             
     1     -9.0304911     23  1.520                                             
     1      8.1634956     23  1.520                                             
     2     -9.5240782      7  1.500                                             
  local pseudopotential read in
  partial core-charges read in
  partial kinetic energy density read in
  kinetic energy density of atom read in
  atomic valenz-charges read in
  non local Contribution for L=           0  read in
    real space projection operators read in
  non local Contribution for L=           0  read in
    real space projection operators read in
  non local Contribution for L=           1  read in
    real space projection operators read in
  non local Contribution for L=           1  read in
    real space projection operators read in
    PAW grid and wavefunctions read in
 
   number of l-projection  operators is LMAX  =           4
   number of lm-projection operators is LMMAX =           8
 
 Optimization of the real space projectors (new method)

 maximal supplied QI-value         = 18.33
 optimisation between [QCUT,QGAM] = [ 12.46, 24.93] = [ 43.51,174.03] Ry 
 Optimized for a Real-space Cutoff    1.13 Angstroem

   l    n(q)    QCUT    max X(q) W(low)/X(q) W(high)/X(q)  e(spline) 
   0      8    12.465    33.825    0.12E-03    0.29E-03    0.99E-07
   0      8    12.465     8.944    0.86E-04    0.22E-03    0.72E-07
   1      8    12.465     4.214    0.27E-03    0.11E-03    0.82E-07
 Optimization of the real space projectors (new method)

 maximal supplied QI-value         = 16.25
 optimisation between [QCUT,QGAM] = [ 12.51, 25.03] = [ 43.85,175.40] Ry 
 Optimized for a Real-space Cutoff    1.31 Angstroem

   l    n(q)    QCUT    max X(q) W(low)/X(q) W(high)/X(q)  e(spline) 
   2      9    12.514    65.824    0.30E-03    0.46E-03    0.43E-06
   2      9    12.514    61.429    0.31E-03    0.46E-03    0.44E-06
   0     10    12.514    56.174    0.90E-04    0.33E-03    0.30E-06
   0     10    12.514    31.263    0.81E-04    0.30E-03    0.28E-06
   1      9    12.514    19.828    0.38E-03    0.65E-04    0.24E-06
   1      9    12.514    15.139    0.32E-03    0.60E-04    0.20E-06
 Optimization of the real space projectors (new method)

 maximal supplied QI-value         = 24.76
 optimisation between [QCUT,QGAM] = [ 12.38, 25.00] = [ 42.90,175.06] Ry 
 Optimized for a Real-space Cutoff    1.13 Angstroem

   l    n(q)    QCUT    max X(q) W(low)/X(q) W(high)/X(q)  e(spline) 
   0      8    12.378    20.381    0.16E-03    0.54E-05    0.27E-06
   0      8    12.378    15.268    0.17E-03    0.61E-05    0.29E-06
   1      8    12.378     5.964    0.38E-03    0.23E-03    0.28E-06
   1      8    12.378     5.382    0.33E-03    0.20E-03    0.25E-06
  PAW_PBE Li 17Jan2003                  :
 energy of atom  1       EATOM=   -5.3001
 kinetic energy error for atom=    0.0000 (will be added to EATOM!!)
  PAW_PBE Co 02Aug2007                  :
 energy of atom  2       EATOM= -813.3670
 kinetic energy error for atom=    0.0018 (will be added to EATOM!!)
  PAW_PBE O 08Apr2002                   :
 energy of atom  3       EATOM= -432.3788
 kinetic energy error for atom=    0.0168 (will be added to EATOM!!)
 
 
 POSCAR: Li6 Co12 O24                            
  positions in cartesian coordinates
  No initial velocities read in
 exchange correlation table for  LEXCH =        8
   RHO(1)=    0.500       N(1)  =     2000
   RHO(2)=  100.500       N(2)  =     4000
 


--------------------------------------------------------------------------------------------------------


 ion  position               nearest neighbor table
   1  0.462  0.989  0.003-  36 1.85  24 1.86  23 1.88  37 2.03  25 2.04  38 2.16  15 2.54   8 2.59
                            16 2.62   9 2.66  10 2.72  17 2.79
   2  0.796  0.161  0.332-  33 1.82  21 1.87  34 1.88  19 1.89  20 1.94  31 2.07  13 2.54   9 2.60
                            12 2.65  10 2.65   3 2.68  11 2.74   3 2.76   7 2.76
   3  0.863  0.702  0.333-  32 1.77  34 1.83  20 1.89  19 1.92  33 2.03  22 2.15  11 2.52   8 2.52
                            10 2.65  14 2.67   2 2.68  12 2.69   2 2.76   9 2.79
   4  0.153  0.322  0.656-  27 1.81  29 1.84  28 1.97  39 2.00  40 2.08  42 2.23  12 2.56  11 2.59
                             5 2.61  14 2.67   6 2.70   6 2.72  17 2.77   5 2.80  16 2.90  15 2.90
   5  0.137  0.795  0.662-  30 1.76  28 1.84  40 1.91  39 2.06  41 2.18  27 2.19   6 2.57  12 2.59
                             4 2.61  18 2.66  11 2.70  13 2.73   4 2.80  16 2.82   6 2.82  15 2.94
   6  0.668  0.810  0.662-  30 1.87  28 1.89  29 2.00  42 2.01  41 2.06  39 2.13   5 2.57  14 2.63
                            11 2.69   4 2.70   4 2.72  16 2.74  13 2.75  18 2.78   5 2.82  17 2.84
   7  0.159  0.334  0.164-  19 1.77  23 1.81  22 1.82  25 1.85  24 1.86  20 1.93   8 2.65   9 2.65
                            10 2.69  10 2.72   9 2.74   8 2.76   2 2.76
   8  0.156  0.823  0.170-  21 1.81  20 1.81  24 1.83  23 1.86  26 1.90  19 2.01   3 2.52   1 2.59
                             7 2.65  10 2.66   9 2.68   9 2.73  10 2.73   7 2.76
   9  0.646  0.324  0.167-  20 1.80  23 1.81  25 1.88  21 1.89  22 1.89  26 1.93   2 2.60   7 2.65
                             1 2.66   8 2.68  10 2.69  10 2.72   8 2.73   7 2.74   3 2.79
  10  0.667  0.832  0.167-  22 1.77  25 1.80  26 1.84  19 1.84  21 1.87  24 1.94   3 2.65   2 2.65
                             8 2.66   7 2.69   9 2.69   9 2.72   7 2.72   1 2.72   8 2.73
  11  0.008  0.999  0.494-  32 1.81  30 1.84  34 1.85  31 1.86  29 1.87  27 1.88   3 2.52   4 2.59
                            13 2.62  12 2.68   6 2.69   5 2.70  14 2.70  14 2.71  12 2.73   2 2.74
  12  0.992  0.488  0.498-  31 1.82  29 1.82  30 1.84  33 1.86  32 1.94  28 1.95   4 2.56   5 2.59
                            14 2.63  13 2.64   2 2.65  11 2.68   3 2.69  11 2.73  14 2.77  13 2.77
  13  0.498  0.007  0.497-  28 1.85  33 1.86  29 1.87  32 1.90  27 1.91  34 1.96   2 2.54  11 2.62
                            12 2.64  14 2.66   5 2.73  14 2.75   6 2.75  11 2.77  12 2.77
  14  0.493  0.513  0.490-  31 1.80  34 1.80  27 1.85  33 1.88  28 1.90  30 2.01  12 2.63   6 2.63
                            13 2.66   4 2.67   3 2.67  11 2.70  11 2.71  13 2.75  12 2.77
  15  0.346  0.175  0.842-  36 1.75  42 1.80  39 1.83  35 1.83  37 1.83  41 1.92   1 2.54  16 2.66
                            18 2.67  17 2.68  17 2.72  18 2.74  16 2.75   4 2.90   5 2.94
  16  0.352  0.668  0.840-  41 1.76  42 1.78  38 1.86  36 1.88  40 1.89  35 1.95   1 2.62  15 2.66
                            17 2.67  18 2.70  18 2.70  17 2.73   6 2.74  15 2.75   5 2.82   4 2.90
  17  0.845  0.164  0.838-  39 1.81  38 1.83  40 1.86  41 1.86  35 1.88  37 1.90  16 2.67  18 2.67
                            15 2.68  15 2.72  18 2.73  16 2.73   4 2.77   1 2.79   6 2.84
  18  0.847  0.660  0.839-  36 1.77  40 1.77  37 1.79  38 1.81  42 1.83  39 1.94   5 2.66  15 2.67
                            17 2.67  16 2.70  16 2.70  17 2.73  15 2.74   6 2.78
  19  0.990  0.032  0.246-   7 1.77  10 1.84   2 1.89   3 1.92   8 2.01
  20  0.968  0.494  0.243-   9 1.80   8 1.81   3 1.89   7 1.93   2 1.94
  21  0.481  0.982  0.245-   8 1.81   2 1.87  10 1.87   9 1.89
  22  0.485  0.515  0.240-  10 1.77   7 1.82   9 1.89   3 2.15
  23  0.319  0.159  0.094-   9 1.81   7 1.81   8 1.86   1 1.88
  24  0.317  0.667  0.087-   8 1.83   7 1.86   1 1.86  10 1.94
  25  0.820  0.154  0.092-  10 1.80   7 1.85   9 1.88   1 2.04
  26  0.826  0.669  0.086-  10 1.84   8 1.90   9 1.93
  27  0.339  0.194  0.574-   4 1.81  14 1.85  11 1.88  13 1.91   5 2.19
  28  0.340  0.684  0.579-   5 1.84  13 1.85   6 1.89  14 1.90  12 1.95   4 1.97
  29  0.835  0.160  0.573-  12 1.82   4 1.84  11 1.87  13 1.87   6 2.00
  30  0.851  0.676  0.575-   5 1.76  12 1.84  11 1.84   6 1.87  14 2.01
  31  0.165  0.338  0.419-  14 1.80  12 1.82  11 1.86   2 2.07
  32  0.162  0.834  0.415-   3 1.77  11 1.81  13 1.90  12 1.94
  33  0.665  0.338  0.418-   2 1.82  12 1.86  13 1.86  14 1.88   3 2.03
  34  0.680  0.835  0.415-  14 1.80   3 1.83  11 1.85   2 1.88  13 1.96
  35  0.170  0.320  0.922-  15 1.83  17 1.88  16 1.95
  36  0.174  0.847  0.906-  15 1.75  18 1.77   1 1.85  16 1.88
  37  0.678  0.344  0.916-  18 1.79  15 1.83  17 1.90   1 2.03
  38  0.692  0.833  0.913-  18 1.81  17 1.83  16 1.86   1 2.16
  39  0.024  0.016  0.763-  17 1.81  15 1.83  18 1.94   4 2.00   5 2.06   6 2.13
  40  0.009  0.504  0.764-  18 1.77  17 1.86  16 1.89   5 1.91   4 2.08
  41  0.505  0.982  0.765-  16 1.76  17 1.86  15 1.92   6 2.06   5 2.18
  42  0.509  0.500  0.769-  16 1.78  15 1.80  18 1.83   6 2.01   4 2.23
 

IMPORTANT INFORMATION: All symmetrisations will be switched off!
NOSYMM: (Re-)initialisation of all symmetry stuff for point group C_1.

 
 

Automatic generation of k-mesh.
 generate k-points for:    6    6    2
Space group operators:
 irot       det(A)        alpha          n_x          n_y          n_z        tau_x        tau_y        tau_z
    1     1.000000     0.000000     1.000000     0.000000     0.000000     0.000000     0.000000     0.000000
 
 Subroutine IBZKPT returns following result:
 ===========================================
 
 Found     36 irreducible k-points:
 
 Following reciprocal coordinates:
            Coordinates               Weight
  0.083333  0.083333  0.250000      2.000000
  0.250000  0.083333  0.250000      2.000000
  0.416667  0.083333  0.250000      2.000000
 -0.416667  0.083333  0.250000      2.000000
 -0.250000  0.083333  0.250000      2.000000
 -0.083333  0.083333  0.250000      2.000000
  0.083333  0.250000  0.250000      2.000000
  0.250000  0.250000  0.250000      2.000000
  0.416667  0.250000  0.250000      2.000000
 -0.416667  0.250000  0.250000      2.000000
 -0.250000  0.250000  0.250000      2.000000
 -0.083333  0.250000  0.250000      2.000000
  0.083333  0.416667  0.250000      2.000000
  0.250000  0.416667  0.250000      2.000000
  0.416667  0.416667  0.250000      2.000000
 -0.416667  0.416667  0.250000      2.000000
 -0.250000  0.416667  0.250000      2.000000
 -0.083333  0.416667  0.250000      2.000000
  0.083333 -0.416667  0.250000      2.000000
  0.250000 -0.416667  0.250000      2.000000
  0.416667 -0.416667  0.250000      2.000000
 -0.416667 -0.416667  0.250000      2.000000
 -0.250000 -0.416667  0.250000      2.000000
 -0.083333 -0.416667  0.250000      2.000000
  0.083333 -0.250000  0.250000      2.000000
  0.250000 -0.250000  0.250000      2.000000
  0.416667 -0.250000  0.250000      2.000000
 -0.416667 -0.250000  0.250000      2.000000
 -0.250000 -0.250000  0.250000      2.000000
 -0.083333 -0.250000  0.250000      2.000000
  0.083333 -0.083333  0.250000      2.000000
  0.250000 -0.083333  0.250000      2.000000
  0.416667 -0.083333  0.250000      2.000000
 -0.416667 -0.083333  0.250000      2.000000
 -0.250000 -0.083333  0.250000      2.000000
 -0.083333 -0.083333  0.250000      2.000000
 
 Following cartesian coordinates:
            Coordinates               Weight
  0.015455  0.026671  0.019075      2.000000
  0.046364  0.044453  0.018871      2.000000
  0.077273  0.062235  0.018666      2.000000
 -0.077273 -0.026677  0.019687      2.000000
 -0.046364 -0.008894  0.019483      2.000000
 -0.015455  0.008888  0.019279      2.000000
  0.015455  0.062229  0.018983      2.000000
  0.046364  0.080012  0.018779      2.000000
  0.077273  0.097794  0.018575      2.000000
 -0.077273  0.008882  0.019595      2.000000
 -0.046364  0.026664  0.019391      2.000000
 -0.015455  0.044447  0.019187      2.000000
  0.015455  0.097788  0.018891      2.000000
  0.046364  0.115570  0.018687      2.000000
  0.077273  0.133353  0.018483      2.000000
 -0.077273  0.044440  0.019504      2.000000
 -0.046364  0.062223  0.019300      2.000000
 -0.015455  0.080005  0.019096      2.000000
  0.015455 -0.080005  0.019350      2.000000
  0.046364 -0.062223  0.019146      2.000000
  0.077273 -0.044440  0.018942      2.000000
 -0.077273 -0.133353  0.019962      2.000000
 -0.046364 -0.115570  0.019758      2.000000
 -0.015455 -0.097788  0.019554      2.000000
  0.015455 -0.044447  0.019258      2.000000
  0.046364 -0.026664  0.019054      2.000000
  0.077273 -0.008882  0.018850      2.000000
 -0.077273 -0.097794  0.019871      2.000000
 -0.046364 -0.080012  0.019666      2.000000
 -0.015455 -0.062229  0.019462      2.000000
  0.015455 -0.008888  0.019166      2.000000
  0.046364  0.008894  0.018962      2.000000
  0.077273  0.026677  0.018758      2.000000
 -0.077273 -0.062235  0.019779      2.000000
 -0.046364 -0.044453  0.019575      2.000000
 -0.015455 -0.026671  0.019371      2.000000
 


--------------------------------------------------------------------------------------------------------




 Dimension of arrays:
   k-points           NKPTS =     36   k-points in BZ     NKDIM =     36   number of bands    NBANDS=    160
   number of dos      NEDOS =    301   number of ions     NIONS =     42
   non local maximal  LDIM  =      6   non local SUM 2l+1 LMDIM =     18
   total plane-waves  NPLWV =  81920
   max r-space proj   IRMAX =   2379   max aug-charges    IRDMAX=  10028
   dimension x,y,z NGX =    32 NGY =   32 NGZ =   80
   dimension x,y,z NGXF=    64 NGYF=   64 NGZF=  160
   support grid    NGXF=    64 NGYF=   64 NGZF=  160
   ions per type =               6  12  24
   NGX,Y,Z   is equivalent  to a cutoff of   9.87,  9.84, 10.23 a.u.
   NGXF,Y,Z  is equivalent  to a cutoff of  19.73, 19.68, 20.45 a.u.

 SYSTEM =  LiCoO2                                  
 POSCAR =  Li6 Co12 O24                            

 Startparameter for this run:
   NWRITE =      2    write-flag & timer
   PREC   = normal    normal or accurate (medium, high low for compatibility)
   ISTART =      0    job   : 0-new  1-cont  2-samecut
   ICHARG =      2    charge: 1-file 2-atom 10-const
   ISPIN  =      2    spin polarized calculation?
   LNONCOLLINEAR =      F non collinear calculations
   LSORBIT =      F    spin-orbit coupling
   INIWAV =      1    electr: 0-lowe 1-rand  2-diag
   LASPH  =      F    aspherical Exc in radial PAW
   METAGGA=      F    non-selfconsistent MetaGGA calc.

 Electronic Relaxation 1
   ENCUT  =  600.0 eV  44.10 Ry    6.64 a.u.  10.77 10.80 25.98*2*pi/ulx,y,z
   ENINI  =  600.0     initial cutoff
   ENAUG  =  605.4 eV  augmentation charge cutoff
   NELM   =    600;   NELMIN=  2; NELMDL= -5     # of ELM steps 
   EDIFF  = 0.1E-05   stopping-criterion for ELM
   LREAL  =      T    real-space projection
   NLSPLINE    = F    spline interpolate recip. space projectors
   LCOMPAT=      F    compatible to vasp.4.4
   GGA_COMPAT  = T    GGA compatible to vasp.4.4-vasp.4.6
   LMAXPAW     = -100 max onsite density
   LMAXMIX     =    2 max onsite mixed and CHGCAR
   VOSKOWN=      0    Vosko Wilk Nusair interpolation
   ROPT   =   -0.00050  -0.00050  -0.00050
 Ionic relaxation
   EDIFFG = 0.1E-04   stopping-criterion for IOM
   NSW    =      0    number of steps for IOM
   NBLOCK =      1;   KBLOCK =      1    inner block; outer block 
   IBRION =     -1    ionic relax: 0-MD 1-quasi-New 2-CG
   NFREE  =      0    steps in history (QN), initial steepest desc. (CG)
   ISIF   =      2    stress and relaxation
   IWAVPR =     10    prediction:  0-non 1-charg 2-wave 3-comb
   ISYM   =      0    0-nonsym 1-usesym 2-fastsym
   LCORR  =      T    Harris-Foulkes like correction to forces

   POTIM  = 0.5000    time-step for ionic-motion
   TEIN   =    0.0    initial temperature
   TEBEG  =    0.0;   TEEND  =   0.0 temperature during run
   SMASS  =  -3.00    Nose mass-parameter (am)
   estimated Nose-frequenzy (Omega)   =  0.10E-29 period in steps =****** mass=  -0.664E-27a.u.
   SCALEE = 1.0000    scale energy and forces
   NPACO  =    256;   APACO  = 16.0  distance and # of slots for P.C.
   PSTRESS=    0.0 pullay stress

  Mass of Ions in am
   POMASS =   7.01 58.93 16.00
  Ionic Valenz
   ZVAL   =   1.00  9.00  6.00
  Atomic Wigner-Seitz radii
   RWIGS  =  -1.00 -1.00 -1.00
  virtual crystal weights 
   VCA    =   1.00  1.00  1.00
   NELECT =     258.0000    total number of electrons
   NUPDOWN=       6.0000    fix difference up-down

 DOS related values:
   EMIN   =  10.00;   EMAX   =-10.00  energy-range for DOS
   EFERMI =   0.00
   ISMEAR =     0;   SIGMA  =   0.05  broadening in eV -4-tet -1-fermi 0-gaus

 Electronic relaxation 2 (details)
   IALGO  =     58    algorithm
   LDIAG  =      T    sub-space diagonalisation (order eigenvalues)
   LSUBROT=      F    optimize rotation matrix (better conditioning)
   TURBO    =      0    0=normal 1=particle mesh
   IRESTART =      0    0=no restart 2=restart with 2 vectors
   NREBOOT  =      0    no. of reboots
   NMIN     =      0    reboot dimension
   EREF     =   0.00    reference energy to select bands
   IMIX   =      4    mixing-type and parameters
     AMIX     =   0.40;   BMIX     =  1.00
     AMIX_MAG =   1.60;   BMIX_MAG =  1.00
     AMIN     =   0.10
     WC   =   100.;   INIMIX=   1;  MIXPRE=   1;  MAXMIX= -45

 Intra band minimization:
   WEIMIN = 0.0000     energy-eigenvalue tresh-hold
   EBREAK =  0.16E-08  absolut break condition
   DEPER  =   0.30     relativ break condition  

   TIME   =   0.40     timestep for ELM

  volume/ion in A,a.u.               =       7.83        52.81
  Fermi-wavevector in a.u.,A,eV,Ry     =   1.510139  2.853748 31.028340  2.280519
  Thomas-Fermi vector in A             =   2.620368
 
 Write flags
   LWAVE        =      F    write WAVECAR
   LDOWNSAMPLE  =      F    k-point downsampling of WAVECAR
   LCHARG       =      F    write CHGCAR
   LVTOT        =      F    write LOCPOT, total local potential
   LVHAR        =      F    write LOCPOT, Hartree potential only
   LELF         =      F    write electronic localiz. function (ELF)
   LORBIT       =     11    0 simple, 1 ext, 2 COOP (PROOUT), +10 PAW based schemes


 Dipole corrections
   LMONO  =      F    monopole corrections only (constant potential shift)
   LDIPOL =      F    correct potential (dipole corrections)
   IDIPOL =      0    1-x, 2-y, 3-z, 4-all directions 
   EPSILON=  1.0000000 bulk dielectric constant

 LDA+U is selected, type is set to LDAUTYPE =  2
   angular momentum for each species LDAUL =    -1    2   -1
   U (eV)           for each species LDAUU =   0.0  5.1  0.0
   J (eV)           for each species LDAUJ =   0.0  0.0  0.0
 Exchange correlation treatment:
   GGA     =    --    GGA type
   LEXCH   =     8    internal setting for exchange type
   VOSKOWN=      0    Vosko Wilk Nusair interpolation
   LHFCALC =     F    Hartree Fock is set to
   LHFONE  =     F    Hartree Fock one center treatment
   AEXX    =    0.0000 exact exchange contribution

 Linear response parameters
   LEPSILON=     F    determine dielectric tensor
   LRPA    =     F    only Hartree local field effects (RPA)
   LNABLA  =     F    use nabla operator in PAW spheres
   LVEL    =     F    velocity operator in full k-point grid
   LINTERFAST=   F  fast interpolation
   KINTER  =     0    interpolate to denser k-point grid
   CSHIFT  =0.1000    complex shift for real part using Kramers Kronig
   OMEGAMAX=  -1.0    maximum frequency
   DEG_THRESHOLD= 0.2000000E-02 threshold for treating states as degnerate
   RTIME   =   -0.100 relaxation time in fs
  (WPLASMAI=    0.000 imaginary part of plasma frequency in eV, 0.658/RTIME)
   DFIELD  = 0.0000000 0.0000000 0.0000000 field for delta impulse in time
 
 Orbital magnetization related:
   ORBITALMAG=     F  switch on orbital magnetization
   LCHIMAG   =     F  perturbation theory with respect to B field
   DQ        =  0.001000  dq finite difference perturbation B field
   LLRAUG    =     F  two centre corrections for induced B field



--------------------------------------------------------------------------------------------------------


 Static calculation
 charge density and potential will be updated during run
 spin polarized calculation
 Conjugate gradient for all bands (Freysoldt, et al. PRB 79, 241103 (2009))
 preconditioned conjugated gradient                                        
 perform sub-space diagonalisation
    before iterative eigenvector-optimisation
 modified Broyden-mixing scheme, WC =      100.0
 initial mixing is a Kerker type mixing with AMIX =  0.4000 and BMIX =      1.0000
 Hartree-type preconditioning will be used
 using additional bands           31
 real space projection scheme for non local part
 use partial core corrections
 no Harris-corrections to forces 
 use gradient corrections 
 use of overlap-Matrix (Vanderbilt PP)
 Gauss-broadening in eV      SIGMA  =   0.05


--------------------------------------------------------------------------------------------------------


  energy-cutoff  :      600.00
  volume of cell :      328.70
      direct lattice vectors                 reciprocal lattice vectors
     5.392165661  0.000000000  0.000000000     0.185454243  0.106694802 -0.001224824
    -2.696566820  4.687105179  0.000000000     0.000000000  0.213351304 -0.000550216
     0.066597886  0.033540033 13.005463600     0.000000000  0.000000000  0.076890762

  length of vectors
     5.392165661  5.407441870 13.005677363     0.213959242  0.213352013  0.076890762


 
 k-points in units of 2pi/SCALE and weight: read from INCAR                         
   0.01545452  0.02667051  0.01907477       0.028
   0.04636356  0.04445298  0.01887063       0.028
   0.07727260  0.06223544  0.01866650       0.028
  -0.07727260 -0.02667689  0.01968718       0.028
  -0.04636356 -0.00889443  0.01948305       0.028
  -0.01545452  0.00888804  0.01927891       0.028
   0.01545452  0.06222906  0.01898307       0.028
   0.04636356  0.08001153  0.01877893       0.028
   0.07727260  0.09779399  0.01857479       0.028
  -0.07727260  0.00888166  0.01959548       0.028
  -0.04636356  0.02666413  0.01939134       0.028
  -0.01545452  0.04444659  0.01918721       0.028
   0.01545452  0.09778761  0.01889137       0.028
   0.04636356  0.11557008  0.01868723       0.028
   0.07727260  0.13335254  0.01848309       0.028
  -0.07727260  0.04444021  0.01950378       0.028
  -0.04636356  0.06222268  0.01929964       0.028
  -0.01545452  0.08000514  0.01909550       0.028
   0.01545452 -0.08000514  0.01934988       0.028
   0.04636356 -0.06222268  0.01914574       0.028
   0.07727260 -0.04444021  0.01894160       0.028
  -0.07727260 -0.13335254  0.01996229       0.028
  -0.04636356 -0.11557008  0.01975815       0.028
  -0.01545452 -0.09778761  0.01955402       0.028
   0.01545452 -0.04444659  0.01925818       0.028
   0.04636356 -0.02666413  0.01905404       0.028
   0.07727260 -0.00888166  0.01884990       0.028
  -0.07727260 -0.09779399  0.01987059       0.028
  -0.04636356 -0.08001153  0.01966645       0.028
  -0.01545452 -0.06222906  0.01946231       0.028
   0.01545452 -0.00888804  0.01916647       0.028
   0.04636356  0.00889443  0.01896234       0.028
   0.07727260  0.02667689  0.01875820       0.028
  -0.07727260 -0.06223544  0.01977889       0.028
  -0.04636356 -0.04445298  0.01957475       0.028
  -0.01545452 -0.02667051  0.01937061       0.028
 
 k-points in reciprocal lattice and weights: read from INCAR                         
   0.08333333  0.08333333  0.25000000       0.028
   0.25000000  0.08333333  0.25000000       0.028
   0.41666667  0.08333333  0.25000000       0.028
  -0.41666667  0.08333333  0.25000000       0.028
  -0.25000000  0.08333333  0.25000000       0.028
  -0.08333333  0.08333333  0.25000000       0.028
   0.08333333  0.25000000  0.25000000       0.028
   0.25000000  0.25000000  0.25000000       0.028
   0.41666667  0.25000000  0.25000000       0.028
  -0.41666667  0.25000000  0.25000000       0.028
  -0.25000000  0.25000000  0.25000000       0.028
  -0.08333333  0.25000000  0.25000000       0.028
   0.08333333  0.41666667  0.25000000       0.028
   0.25000000  0.41666667  0.25000000       0.028
   0.41666667  0.41666667  0.25000000       0.028
  -0.41666667  0.41666667  0.25000000       0.028
  -0.25000000  0.41666667  0.25000000       0.028
  -0.08333333  0.41666667  0.25000000       0.028
   0.08333333 -0.41666667  0.25000000       0.028
   0.25000000 -0.41666667  0.25000000       0.028
   0.41666667 -0.41666667  0.25000000       0.028
  -0.41666667 -0.41666667  0.25000000       0.028
  -0.25000000 -0.41666667  0.25000000       0.028
  -0.08333333 -0.41666667  0.25000000       0.028
   0.08333333 -0.25000000  0.25000000       0.028
   0.25000000 -0.25000000  0.25000000       0.028
   0.41666667 -0.25000000  0.25000000       0.028
  -0.41666667 -0.25000000  0.25000000       0.028
  -0.25000000 -0.25000000  0.25000000       0.028
  -0.08333333 -0.25000000  0.25000000       0.028
   0.08333333 -0.08333333  0.25000000       0.028
   0.25000000 -0.08333333  0.25000000       0.028
   0.41666667 -0.08333333  0.25000000       0.028
  -0.41666667 -0.08333333  0.25000000       0.028
  -0.25000000 -0.08333333  0.25000000       0.028
  -0.08333333 -0.08333333  0.25000000       0.028
 
 position of ions in fractional coordinates (direct lattice) 
   0.46242184  0.98863751  0.00333245
   0.79553318  0.16112769  0.33236646
   0.86302401  0.70213191  0.33285241
   0.15312916  0.32157679  0.65550911
   0.13726867  0.79548616  0.66227552
   0.66814028  0.81002690  0.66156123
   0.15902811  0.33389539  0.16419868
   0.15639266  0.82306826  0.16972559
   0.64628494  0.32424131  0.16746731
   0.66711486  0.83225490  0.16707824
   0.00779468  0.99944284  0.49392086
   0.99242271  0.48773229  0.49754088
   0.49792728  0.00682450  0.49650673
   0.49262562  0.51287441  0.49027243
   0.34632940  0.17459436  0.84161702
   0.35152789  0.66833654  0.83977933
   0.84461630  0.16422279  0.83811851
   0.84739092  0.66014701  0.83904121
   0.99018375  0.03166296  0.24574748
   0.96768027  0.49392224  0.24282948
   0.48135632  0.98238953  0.24499242
   0.48516520  0.51472621  0.23983535
   0.31909285  0.15933739  0.09418272
   0.31720955  0.66745533  0.08696191
   0.82016271  0.15366440  0.09179450
   0.82609157  0.66938122  0.08586545
   0.33853195  0.19370694  0.57439399
   0.34014734  0.68415494  0.57852764
   0.83480760  0.16013755  0.57300148
   0.85145853  0.67569041  0.57477691
   0.16477818  0.33798149  0.41875861
   0.16167398  0.83360602  0.41534930
   0.66537122  0.33830387  0.41753838
   0.67975593  0.83522429  0.41520165
   0.17041837  0.32004315  0.92200637
   0.17394687  0.84737820  0.90635905
   0.67821397  0.34355374  0.91554751
   0.69229806  0.83298744  0.91294859
   0.02364548  0.01600000  0.76315769
   0.00856665  0.50364730  0.76422653
   0.50456487  0.98173867  0.76468784
   0.50925414  0.50034492  0.76865544
 
 position of ions in cartesian coordinates  (Angst):
  -0.17225000  4.63395977  0.04334000
   3.87729001  0.76637000  4.32257986
   2.78239012  3.30212998  4.32889986
   0.00220000  1.52925003  8.52519989
  -1.36080003  3.75074005  8.61320019
   1.46248996  3.81887007  8.60391045
  -0.03193000  1.57051003  2.13547993
  -1.36486006  3.86350012  2.20736003
   2.62169003  1.52537000  2.17798996
   1.36408997  3.90647006  2.17293000
  -2.62014008  4.70105982  6.42366982
   4.06924009  2.30274010  6.47074985
   2.69956994  0.04864000  6.45730019
   1.30596995  2.42034006  6.37622023
   1.45271003  0.84657002 10.94561958
   0.14921001  3.16072989 10.92171955
   4.16729021  0.79784000 10.90011978
   2.84502006  3.12231994 10.91211987
   5.27021980  0.15665001  3.19605994
   3.90216994  2.32321000  3.15810990
  -0.03721000  4.61278009  3.18623996
   1.24407005  2.42061996  3.11916995
   1.29720998  0.74998999  1.22488999
  -0.08360000  3.13135004  1.13098001
   4.01420021  0.72332001  1.19383001
   2.65510988  3.14034009  1.11671996
   1.34133005  0.92719001  7.47026014
   0.02779000  3.22610998  7.52402020
   4.10775995  0.76980001  7.45214987
   2.80744004  3.18631005  7.47524023
   0.00501000  1.59819996  5.44614983
  -1.34844005  3.92112994  5.40181017
   2.70334005  1.59967005  5.43028021
   1.44077003  3.92870998  5.39988995
   0.11731000  1.53100002 11.99112034
  -1.28670001  4.00215006 11.78761959
   2.79159999  1.64098001 11.90711975
   1.54758000  3.93492007 11.87331963
   0.13518000  0.10059000  9.92521954
  -1.26102996  2.38628006  9.93912029
   0.12430000  4.62716007  9.94511986
   1.44796002  2.37094998  9.99672031
 


--------------------------------------------------------------------------------------------------------


 k-point  1 :   0.0833 0.0833 0.2500  plane waves:   10971
 k-point  2 :   0.2500 0.0833 0.2500  plane waves:   10963
 k-point  3 :   0.4167 0.0833 0.2500  plane waves:   10966
 k-point  4 :  -0.4167 0.0833 0.2500  plane waves:   10975
 k-point  5 :  -0.2500 0.0833 0.2500  plane waves:   10950
 k-point  6 :  -0.0833 0.0833 0.2500  plane waves:   10972
 k-point  7 :   0.0833 0.2500 0.2500  plane waves:   10967
 k-point  8 :   0.2500 0.2500 0.2500  plane waves:   10970
 k-point  9 :   0.4167 0.2500 0.2500  plane waves:   10977
 k-point 10 :  -0.4167 0.2500 0.2500  plane waves:   10976
 k-point 11 :  -0.2500 0.2500 0.2500  plane waves:   10956
 k-point 12 :  -0.0833 0.2500 0.2500  plane waves:   10958
 k-point 13 :   0.0833 0.4167 0.2500  plane waves:   10972
 k-point 14 :   0.2500 0.4167 0.2500  plane waves:   10979
 k-point 15 :   0.4167 0.4167 0.2500  plane waves:   10966
 k-point 16 :  -0.4167 0.4167 0.2500  plane waves:   10978
 k-point 17 :  -0.2500 0.4167 0.2500  plane waves:   10971
 k-point 18 :  -0.0833 0.4167 0.2500  plane waves:   10975
 k-point 19 :   0.0833-0.4167 0.2500  plane waves:   10974
 k-point 20 :   0.2500-0.4167 0.2500  plane waves:   10959
 k-point 21 :   0.4167-0.4167 0.2500  plane waves:   10983
 k-point 22 :  -0.4167-0.4167 0.2500  plane waves:   10972
 k-point 23 :  -0.2500-0.4167 0.2500  plane waves:   10972
 k-point 24 :  -0.0833-0.4167 0.2500  plane waves:   10976
 k-point 25 :   0.0833-0.2500 0.2500  plane waves:   10958
 k-point 26 :   0.2500-0.2500 0.2500  plane waves:   10953
 k-point 27 :   0.4167-0.2500 0.2500  plane waves:   10969
 k-point 28 :  -0.4167-0.2500 0.2500  plane waves:   10965
 k-point 29 :  -0.2500-0.2500 0.2500  plane waves:   10965
 k-point 30 :  -0.0833-0.2500 0.2500  plane waves:   10962
 k-point 31 :   0.0833-0.0833 0.2500  plane waves:   10993
 k-point 32 :   0.2500-0.0833 0.2500  plane waves:   10953
 k-point 33 :   0.4167-0.0833 0.2500  plane waves:   10965
 k-point 34 :  -0.4167-0.0833 0.2500  plane waves:   10967
 k-point 35 :  -0.2500-0.0833 0.2500  plane waves:   10966
 k-point 36 :  -0.0833-0.0833 0.2500  plane waves:   10979

 maximum and minimum number of plane-waves per node :      2765     2715

 maximum number of plane-waves:     10993
 maximum index in each direction: 
   IXMAX=   11   IYMAX=   11   IZMAX=   25
   IXMIN=  -11   IYMIN=  -11   IZMIN=  -26


 real space projection operators:
  total allocation   :       6323.78 KBytes
  max/ min on nodes  :       1584.59       1578.55


 parallel 3D FFT for wavefunctions:
    minimum data exchange during FFTs selected (reduces bandwidth)
 parallel 3D FFT for charge:
    minimum data exchange during FFTs selected (reduces bandwidth)


 total amount of memory used by VASP MPI-rank0   136510. kBytes
=======================================================================

   base      :      30000. kBytes
   nonlr-proj:       3620. kBytes
   fftplans  :       1013. kBytes
   grid      :       2556. kBytes
   one-center:        342. kBytes
   wavefun   :      98979. kBytes
 
     INWAV:  cpu time    0.0000: real time    0.0002
 Broyden mixing: mesh for mixing (old mesh)
   NGX = 21   NGY = 21   NGZ = 51
  (NGX  = 64   NGY  = 64   NGZ  =160)
  gives a total of  22491 points

 initial charge density was supplied:
 charge density of overlapping atoms calculated
 number of electron     258.0000000 magnetization       6.0000000
 keeping initial charge density in first step


--------------------------------------------------------------------------------------------------------


 Maximum index for non-local projection operator          574
 Maximum index for augmentation-charges          501 (set IRDMAX)


--------------------------------------------------------------------------------------------------------


 First call to EWALD:  gamma=   0.257
 Maximum number of real-space cells 4x 4x 2
 Maximum number of reciprocal cells 2x 2x 5

    FEWALD:  cpu time    0.0045: real time    0.0045


--------------------------------------- Iteration      1(   1)  ---------------------------------------


    POTLOK:  cpu time    0.0493: real time    0.0584
    SETDIJ:  cpu time    0.0184: real time    0.0199
    TRIAL :  cpu time   17.3066: real time   17.4014
    CORREC:  cpu time    0.0041: real time    0.0042
    --------------------------------------------
      LOOP:  cpu time   17.5672: real time   17.6747

 eigenvalue-minimisations  : 23040
 total energy-change (2. order) : 0.3602918E+04  (-0.1408357E+05)
 number of electron     258.0000000 magnetization       6.0000000
 augmentation part      258.0000000 magnetization       6.0000000

 Free energy of the ion-electron system (eV)
  ---------------------------------------------------
  alpha Z        PSCENC =       891.90981759
  Ewald energy   TEWEN  =    -15905.23357385
  -Hartree energ DENC   =     -5688.53980889
  -exchange      EXHF   =         0.00000000
  -V(xc)+E(xc)   XCENC  =       854.27041229
  PAW double counting   =     17015.18481625   -17491.61297812
  entropy T*S    EENTRO =        -0.00591718
  eigenvalues    EBANDS =      3758.07422953
  atomic energy  EATOM  =     20168.87094289
  ---------------------------------------------------
  free energy    TOTEN  =      3602.91794051 eV

  energy without entropy =     3602.92385769  energy(sigma->0) =     3602.92089910


--------------------------------------------------------------------------------------------------------




--------------------------------------- Iteration      1(   2)  ---------------------------------------


    TRIAL :  cpu time   20.8592: real time   21.2927
    CORREC:  cpu time    0.0044: real time    0.0044
    --------------------------------------------
      LOOP:  cpu time   20.8678: real time   21.3014

 eigenvalue-minimisations  : 24784
 total energy-change (2. order) :-0.3195974E+04  (-0.2936757E+04)
 number of electron     258.0000000 magnetization       6.0000000
 augmentation part      258.0000000 magnetization       6.0000000

 Free energy of the ion-electron system (eV)
  ---------------------------------------------------
  alpha Z        PSCENC =       891.90981759
  Ewald energy   TEWEN  =    -15905.23357385
  -Hartree energ DENC   =     -5688.53980889
  -exchange      EXHF   =         0.00000000
  -V(xc)+E(xc)   XCENC  =       854.27041229
  PAW double counting   =     17015.18481625   -17491.61297812
  entropy T*S    EENTRO =        -0.01929353
  eigenvalues    EBANDS =       562.11358761
  atomic energy  EATOM  =     20168.87094289
  ---------------------------------------------------
  free energy    TOTEN  =       406.94392225 eV

  energy without entropy =      406.96321578  energy(sigma->0) =      406.95356901


--------------------------------------------------------------------------------------------------------




--------------------------------------- Iteration      1(   3)  ---------------------------------------


    TRIAL :  cpu time   19.0168: real time   19.0808
    CORREC:  cpu time    0.0036: real time    0.0036
    --------------------------------------------
      LOOP:  cpu time   19.0250: real time   19.0891

 eigenvalue-minimisations  : 24496
 total energy-change (2. order) :-0.6276483E+03  (-0.5651449E+03)
 number of electron     258.0000000 magnetization       6.0000000
 augmentation part      258.0000000 magnetization       6.0000000

 Free energy of the ion-electron system (eV)
  ---------------------------------------------------
  alpha Z        PSCENC =       891.90981759
  Ewald energy   TEWEN  =    -15905.23357385
  -Hartree energ DENC   =     -5688.53980889
  -exchange      EXHF   =         0.00000000
  -V(xc)+E(xc)   XCENC  =       854.27041229
  PAW double counting   =     17015.18481625   -17491.61297812
  entropy T*S    EENTRO =        -0.03328639
  eigenvalues    EBANDS =       -65.52069554
  atomic energy  EATOM  =     20168.87094289
  ---------------------------------------------------
  free energy    TOTEN  =      -220.70435377 eV

  energy without entropy =     -220.67106738  energy(sigma->0) =     -220.68771057


--------------------------------------------------------------------------------------------------------




--------------------------------------- Iteration      1(   4)  ---------------------------------------


    TRIAL :  cpu time   19.2470: real time   19.3081
    CORREC:  cpu time    0.0032: real time    0.0032
    --------------------------------------------
      LOOP:  cpu time   19.2554: real time   19.3164

 eigenvalue-minimisations  : 25344
 total energy-change (2. order) :-0.4882359E+02  (-0.4795212E+02)
 number of electron     258.0000000 magnetization       6.0000000
 augmentation part      258.0000000 magnetization       6.0000000

 Free energy of the ion-electron system (eV)
  ---------------------------------------------------
  alpha Z        PSCENC =       891.90981759
  Ewald energy   TEWEN  =    -15905.23357385
  -Hartree energ DENC   =     -5688.53980889
  -exchange      EXHF   =         0.00000000
  -V(xc)+E(xc)   XCENC  =       854.27041229
  PAW double counting   =     17015.18481625   -17491.61297812
  entropy T*S    EENTRO =        -0.03464781
  eigenvalues    EBANDS =      -114.34291957
  atomic energy  EATOM  =     20168.87094289
  ---------------------------------------------------
  free energy    TOTEN  =      -269.52793921 eV

  energy without entropy =     -269.49329140  energy(sigma->0) =     -269.51061531


--------------------------------------------------------------------------------------------------------




--------------------------------------- Iteration      1(   5)  ---------------------------------------


    TRIAL :  cpu time   19.9614: real time   20.2085
    CORREC:  cpu time    0.0037: real time    0.0037
    CHARGE:  cpu time    0.2950: real time    0.2998
    --------------------------------------------
      LOOP:  cpu time   20.2648: real time   20.5168

 eigenvalue-minimisations  : 27328
 total energy-change (2. order) :-0.1417387E+01  (-0.1415200E+01)
 number of electron     257.9999985 magnetization       5.9999998
 augmentation part       68.5126292 magnetization       4.3521517

 Free energy of the ion-electron system (eV)
  ---------------------------------------------------
  alpha Z        PSCENC =       891.90981759
  Ewald energy   TEWEN  =    -15905.23357385
  -Hartree energ DENC   =     -5688.53980889
  -exchange      EXHF   =         0.00000000
  -V(xc)+E(xc)   XCENC  =       854.27041229
  PAW double counting   =     17015.18481625   -17491.61297812
  entropy T*S    EENTRO =        -0.03460067
  eigenvalues    EBANDS =      -115.76035419
  atomic energy  EATOM  =     20168.87094289
  ---------------------------------------------------
  free energy    TOTEN  =      -270.94532670 eV

  energy without entropy =     -270.91072603  energy(sigma->0) =     -270.92802636


--------------------------------------------------------------------------------------------------------




--------------------------------------- Iteration      1(   6)  ---------------------------------------


    POTLOK:  cpu time    0.0266: real time    0.0266
    SETDIJ:  cpu time    0.0116: real time    0.0116
    TRIAL :  cpu time   10.1657: real time   10.3614
    CORREC:  cpu time    3.9311: real time    3.9384
    CHARGE:  cpu time    0.3035: real time    0.3038
    --------------------------------------------
      LOOP:  cpu time   14.4426: real time   14.6461

 eigenvalue-minimisations  :     0
 total energy-change (2. order) : 0.3547092E+03  (-0.1705482E+03)
 number of electron     257.9999977 magnetization       6.0000005
 augmentation part       71.0999170 magnetization       4.4574421

 Free energy of the ion-electron system (eV)
  ---------------------------------------------------
  alpha Z        PSCENC =       891.90981759
  Ewald energy   TEWEN  =    -15905.23357385
  -Hartree energ DENC   =     -5365.58951077
  -exchange      EXHF   =         0.00000000
  -V(xc)+E(xc)   XCENC  =       887.42614709
  PAW double counting   =     25591.39898278   -25808.81358060
  entropy T*S    EENTRO =        -0.03278979
  eigenvalues    EBANDS =      -376.17077898
  atomic energy  EATOM  =     20168.87094289
  ---------------------------------------------------
  free energy    TOTEN  =        83.76384548 eV

  energy without entropy =       83.79663526  energy(sigma->0) =       83.78024037


--------------------------------------------------------------------------------------------------------




--------------------------------------- Iteration      1(   7)  ---------------------------------------


    POTLOK:  cpu time    0.0264: real time    0.0264
    SETDIJ:  cpu time    0.0118: real time    0.0118
    TRIAL :  cpu time   10.2561: real time   10.2740
    CORREC:  cpu time    3.8717: real time    3.8776
    CHARGE:  cpu time    0.3047: real time    0.3050
    --------------------------------------------
      LOOP:  cpu time   14.4749: real time   14.4990

 eigenvalue-minimisations  :     0
 total energy-change (2. order) :-0.9722602E+02  (-0.1678527E+03)
 number of electron     257.9999981 magnetization       6.0000000
 augmentation part       74.6310550 magnetization       4.2621783

 Free energy of the ion-electron system (eV)
  ---------------------------------------------------
  alpha Z        PSCENC =       891.90981759
  Ewald energy   TEWEN  =    -15905.23357385
  -Hartree energ DENC   =     -5485.44609261
  -exchange      EXHF   =         0.00000000
  -V(xc)+E(xc)   XCENC  =       878.83956152
  PAW double counting   =     25613.45059940   -25935.40634216
  entropy T*S    EENTRO =        -0.02050947
  eigenvalues    EBANDS =      -240.41429778
  atomic energy  EATOM  =     20168.87094289
  ---------------------------------------------------
  free energy    TOTEN  =       -13.46217479 eV

  energy without entropy =      -13.44166532  energy(sigma->0) =      -13.45192006


--------------------------------------------------------------------------------------------------------




--------------------------------------- Iteration      1(   8)  ---------------------------------------


    POTLOK:  cpu time    0.0266: real time    0.0266
    SETDIJ:  cpu time    0.0118: real time    0.0118
    TRIAL :  cpu time   10.2100: real time   10.2283
    CORREC:  cpu time    3.8598: real time    3.8675
    CHARGE:  cpu time    0.3046: real time    0.3050
    --------------------------------------------
      LOOP:  cpu time   14.4167: real time   14.4432

 eigenvalue-minimisations  :     0
 total energy-change (2. order) :-0.1532079E+03  (-0.1656270E+02)
 number of electron     257.9999982 magnetization       5.9999998
 augmentation part       75.3638461 magnetization       4.2376085

 Free energy of the ion-electron system (eV)
  ---------------------------------------------------
  alpha Z        PSCENC =       891.90981759
  Ewald energy   TEWEN  =    -15905.23357385
  -Hartree energ DENC   =     -5456.53003427
  -exchange      EXHF   =         0.00000000
  -V(xc)+E(xc)   XCENC  =       866.94580932
  PAW double counting   =     25602.63381167   -26071.05881754
  entropy T*S    EENTRO =        -0.03955671
  eigenvalues    EBANDS =      -264.18752515
  atomic energy  EATOM  =     20168.87094289
  ---------------------------------------------------
  free energy    TOTEN  =      -166.67007880 eV

  energy without entropy =     -166.63052209  energy(sigma->0) =     -166.65030045


--------------------------------------------------------------------------------------------------------




--------------------------------------- Iteration      1(   9)  ---------------------------------------


    POTLOK:  cpu time    0.0267: real time    0.0267
    SETDIJ:  cpu time    0.0119: real time    0.0119
    TRIAL :  cpu time   10.6468: real time   10.6776
    CORREC:  cpu time    3.9685: real time    3.9809
    CHARGE:  cpu time    0.3002: real time    0.3006
    --------------------------------------------
      LOOP:  cpu time   14.9582: real time   15.0018

 eigenvalue-minimisations  :     0
 total energy-change (2. order) :-0.9422644E+01  (-0.5438331E+02)
 number of electron     257.9999981 magnetization       5.9999999
 augmentation part       75.4905729 magnetization       4.2036051

 Free energy of the ion-electron system (eV)
  ---------------------------------------------------
  alpha Z        PSCENC =       891.90981759
  Ewald energy   TEWEN  =    -15905.23357385
  -Hartree energ DENC   =     -5519.24847894
  -exchange      EXHF   =         0.00000000
  -V(xc)+E(xc)   XCENC  =       864.87831505
  PAW double counting   =     25802.08727203   -26303.75573003
  entropy T*S    EENTRO =        -0.02061203
  eigenvalues    EBANDS =      -175.56173107
  atomic energy  EATOM  =     20168.87094289
  ---------------------------------------------------
  free energy    TOTEN  =      -176.09272304 eV

  energy without entropy =     -176.07211101  energy(sigma->0) =     -176.08241703


--------------------------------------------------------------------------------------------------------




--------------------------------------- Iteration      1(  10)  ---------------------------------------


    POTLOK:  cpu time    0.0264: real time    0.0264
    SETDIJ:  cpu time    0.0117: real time    0.0117
    TRIAL :  cpu time   10.5253: real time   10.5494
    CORREC:  cpu time    3.8537: real time    3.8613
    CHARGE:  cpu time    0.3019: real time    0.3023
    --------------------------------------------
      LOOP:  cpu time   14.7230: real time   14.7551

 eigenvalue-minimisations  :     0
 total energy-change (2. order) :-0.1142098E+02  (-0.1996536E+01)
 number of electron     257.9999980 magnetization       5.9999999
 augmentation part       75.5252639 magnetization       4.1886904

 Free energy of the ion-electron system (eV)
  ---------------------------------------------------
  alpha Z        PSCENC =       891.90981759
  Ewald energy   TEWEN  =    -15905.23357385
  -Hartree energ DENC   =     -5507.39960143
  -exchange      EXHF   =         0.00000000
  -V(xc)+E(xc)   XCENC  =       864.47943610
  PAW double counting   =     25799.20745668   -26302.52196153
  entropy T*S    EENTRO =        -0.02749922
  eigenvalues    EBANDS =      -196.80560808
  atomic energy  EATOM  =     20168.87094289
  ---------------------------------------------------
  free energy    TOTEN  =      -187.51370366 eV

  energy without entropy =     -187.48620444  energy(sigma->0) =     -187.49995405


--------------------------------------------------------------------------------------------------------




--------------------------------------- Iteration      1(  11)  ---------------------------------------


    POTLOK:  cpu time    0.0262: real time    0.0263
    SETDIJ:  cpu time    0.0118: real time    0.0118
    TRIAL :  cpu time   10.3778: real time   10.4220
    CORREC:  cpu time    3.8188: real time    3.8385
    CHARGE:  cpu time    0.3501: real time    0.3514
    --------------------------------------------
      LOOP:  cpu time   14.5888: real time   14.6541

 eigenvalue-minimisations  :     0
 total energy-change (2. order) :-0.6407053E+01  (-0.1370331E+02)
 number of electron     257.9999980 magnetization       6.0000000
 augmentation part       75.5558390 magnetization       4.1922639

 Free energy of the ion-electron system (eV)
  ---------------------------------------------------
  alpha Z        PSCENC =       891.90981759
  Ewald energy   TEWEN  =    -15905.23357385
  -Hartree energ DENC   =     -5510.06415291
  -exchange      EXHF   =         0.00000000
  -V(xc)+E(xc)   XCENC  =       864.17903285
  PAW double counting   =     25800.82279904   -26304.68895247
  entropy T*S    EENTRO =        -0.03564975
  eigenvalues    EBANDS =      -199.68917013
  atomic energy  EATOM  =     20168.87094289
  ---------------------------------------------------
  free energy    TOTEN  =      -193.92075621 eV

  energy without entropy =     -193.88510647  energy(sigma->0) =     -193.90293134


--------------------------------------------------------------------------------------------------------




--------------------------------------- Iteration      1(  12)  ---------------------------------------


    POTLOK:  cpu time    0.0259: real time    0.0260
    SETDIJ:  cpu time    0.0118: real time    0.0118
    TRIAL :  cpu time   10.3743: real time   10.4384
    CORREC:  cpu time    3.9334: real time    3.9535
    CHARGE:  cpu time    0.2972: real time    0.2986
    --------------------------------------------
      LOOP:  cpu time   14.6468: real time   14.7324

 eigenvalue-minimisations  :     0
 total energy-change (2. order) : 0.8946514E+01  (-0.5610616E+02)
 number of electron     257.9999981 magnetization       5.9999999
 augmentation part       75.6399684 magnetization       4.1728162

 Free energy of the ion-electron system (eV)
  ---------------------------------------------------
  alpha Z        PSCENC =       891.90981759
  Ewald energy   TEWEN  =    -15905.23357385
  -Hartree energ DENC   =     -5553.50773237
  -exchange      EXHF   =         0.00000000
  -V(xc)+E(xc)   XCENC  =       863.80783420
  PAW double counting   =     25826.23445147   -26331.91401600
  entropy T*S    EENTRO =        -0.01950024
  eigenvalues    EBANDS =      -145.10631681
  atomic energy  EATOM  =     20168.87094289
  ---------------------------------------------------
  free energy    TOTEN  =      -184.97424262 eV

  energy without entropy =     -184.95474238  energy(sigma->0) =     -184.96449250


--------------------------------------------------------------------------------------------------------




--------------------------------------- Iteration      1(  13)  ---------------------------------------


    POTLOK:  cpu time    0.0259: real time    0.0259
    SETDIJ:  cpu time    0.0116: real time    0.0117
    TRIAL :  cpu time   10.3938: real time   10.4598
    CORREC:  cpu time    3.8637: real time    3.8737
    CHARGE:  cpu time    0.3052: real time    0.3057
    --------------------------------------------
      LOOP:  cpu time   14.6043: real time   14.6810

 eigenvalue-minimisations  :     0
 total energy-change (2. order) :-0.7696179E+01  (-0.1123708E+01)
 number of electron     257.9999980 magnetization       5.9999999
 augmentation part       75.6499321 magnetization       4.1651472

 Free energy of the ion-electron system (eV)
  ---------------------------------------------------
  alpha Z        PSCENC =       891.90981759
  Ewald energy   TEWEN  =    -15905.23357385
  -Hartree energ DENC   =     -5534.61160925
  -exchange      EXHF   =         0.00000000
  -V(xc)+E(xc)   XCENC  =       863.65885143
  PAW double counting   =     25811.93515198   -26317.51276146
  entropy T*S    EENTRO =        -0.01954061
  eigenvalues    EBANDS =      -171.66774044
  atomic energy  EATOM  =     20168.87094289
  ---------------------------------------------------
  free energy    TOTEN  =      -192.67042135 eV

  energy without entropy =     -192.65088075  energy(sigma->0) =     -192.66065105


--------------------------------------------------------------------------------------------------------




--------------------------------------- Iteration      1(  14)  ---------------------------------------


    POTLOK:  cpu time    0.0263: real time    0.0263
    SETDIJ:  cpu time    0.0118: real time    0.0118
    TRIAL :  cpu time   10.4444: real time   10.4679
    CORREC:  cpu time    4.0522: real time    4.0601
    CHARGE:  cpu time    0.3033: real time    0.3042
    --------------------------------------------
      LOOP:  cpu time   14.8421: real time   14.8744

 eigenvalue-minimisations  :     0
 total energy-change (2. order) :-0.2354464E+01  (-0.1251737E+01)
 number of electron     257.9999980 magnetization       5.9999999
 augmentation part       75.6603953 magnetization       4.1538131

 Free energy of the ion-electron system (eV)
  ---------------------------------------------------
  alpha Z        PSCENC =       891.90981759
  Ewald energy   TEWEN  =    -15905.23357385
  -Hartree energ DENC   =     -5536.72518482
  -exchange      EXHF   =         0.00000000
  -V(xc)+E(xc)   XCENC  =       863.54808043
  PAW double counting   =     25805.98835309   -26311.16122179
  entropy T*S    EENTRO =        -0.02692424
  eigenvalues    EBANDS =      -172.20255844
  atomic energy  EATOM  =     20168.87094289
  ---------------------------------------------------
  free energy    TOTEN  =      -195.02488550 eV

  energy without entropy =     -194.99796126  energy(sigma->0) =     -195.01142338


--------------------------------------------------------------------------------------------------------




--------------------------------------- Iteration      1(  15)  ---------------------------------------


    POTLOK:  cpu time    0.0262: real time    0.0263
    SETDIJ:  cpu time    0.0118: real time    0.0118
    TRIAL :  cpu time   10.2707: real time   10.2937
    CORREC:  cpu time    3.8685: real time    3.8762
    CHARGE:  cpu time    0.3001: real time    0.3006
    --------------------------------------------
      LOOP:  cpu time   14.4816: real time   14.5129

 eigenvalue-minimisations  :     0
 total energy-change (2. order) :-0.5277445E+01  (-0.8796834E+01)
 number of electron     257.9999980 magnetization       6.0000000
 augmentation part       75.6728053 magnetization       4.1405418

 Free energy of the ion-electron system (eV)
  ---------------------------------------------------
  alpha Z        PSCENC =       891.90981759
  Ewald energy   TEWEN  =    -15905.23357385
  -Hartree energ DENC   =     -5537.29412730
  -exchange      EXHF   =         0.00000000
  -V(xc)+E(xc)   XCENC  =       863.37203197
  PAW double counting   =     25797.87145925   -26302.67808787
  entropy T*S    EENTRO =        -0.03373326
  eigenvalues    EBANDS =      -177.09386922
  atomic energy  EATOM  =     20168.87094289
  ---------------------------------------------------
  free energy    TOTEN  =      -200.30233078 eV

  energy without entropy =     -200.26859752  energy(sigma->0) =     -200.28546415


--------------------------------------------------------------------------------------------------------




--------------------------------------- Iteration      1(  16)  ---------------------------------------


    POTLOK:  cpu time    0.0263: real time    0.0263
    SETDIJ:  cpu time    0.0117: real time    0.0117
    TRIAL :  cpu time   10.3167: real time   10.3413
    CORREC:  cpu time    3.9492: real time    3.9577
    CHARGE:  cpu time    0.3039: real time    0.3043
    --------------------------------------------
      LOOP:  cpu time   14.6120: real time   14.6456

 eigenvalue-minimisations  :     0
 total energy-change (2. order) :-0.4295621E+01  (-0.1431556E+02)
 number of electron     257.9999980 magnetization       5.9999999
 augmentation part       75.7061121 magnetization       4.1373752

 Free energy of the ion-electron system (eV)
  ---------------------------------------------------
  alpha Z        PSCENC =       891.90981759
  Ewald energy   TEWEN  =    -15905.23357385
  -Hartree energ DENC   =     -5554.28429054
  -exchange      EXHF   =         0.00000000
  -V(xc)+E(xc)   XCENC  =       863.02976337
  PAW double counting   =     25790.14963894   -26294.59644884
  entropy T*S    EENTRO =        -0.01903507
  eigenvalues    EBANDS =      -164.41006768
  atomic energy  EATOM  =     20168.87094289
  ---------------------------------------------------
  free energy    TOTEN  =      -204.59795137 eV

  energy without entropy =     -204.57891630  energy(sigma->0) =     -204.58843383


--------------------------------------------------------------------------------------------------------




--------------------------------------- Iteration      1(  17)  ---------------------------------------


    POTLOK:  cpu time    0.0269: real time    0.0269
    SETDIJ:  cpu time    0.0117: real time    0.0118
    TRIAL :  cpu time   10.4887: real time   10.5124
    CORREC:  cpu time    4.0109: real time    4.0206
    CHARGE:  cpu time    0.3020: real time    0.3026
    --------------------------------------------
      LOOP:  cpu time   14.8442: real time   14.8783

 eigenvalue-minimisations  :     0
 total energy-change (2. order) : 0.6094391E+01  (-0.9867393E+00)
 number of electron     257.9999980 magnetization       5.9999999
 augmentation part       75.7144618 magnetization       4.1273028

 Free energy of the ion-electron system (eV)
  ---------------------------------------------------
  alpha Z        PSCENC =       891.90981759
  Ewald energy   TEWEN  =    -15905.23357385
  -Hartree energ DENC   =     -5555.55385344
  -exchange      EXHF   =         0.00000000
  -V(xc)+E(xc)   XCENC  =       863.00629979
  PAW double counting   =     25765.16530465   -26267.60090424
  entropy T*S    EENTRO =        -0.02278864
  eigenvalues    EBANDS =      -159.04855868
  atomic energy  EATOM  =     20168.87094289
  ---------------------------------------------------
  free energy    TOTEN  =      -198.50356036 eV

  energy without entropy =     -198.48077173  energy(sigma->0) =     -198.49216604


--------------------------------------------------------------------------------------------------------




--------------------------------------- Iteration      1(  18)  ---------------------------------------


    POTLOK:  cpu time    0.0261: real time    0.0261
    SETDIJ:  cpu time    0.0118: real time    0.0118
    TRIAL :  cpu time   10.3285: real time   10.3544
    CORREC:  cpu time    4.0199: real time    4.0289
    CHARGE:  cpu time    0.3499: real time    0.3511
    --------------------------------------------
      LOOP:  cpu time   14.7406: real time   14.7768

 eigenvalue-minimisations  :     0
 total energy-change (2. order) :-0.3169249E+01  (-0.5520733E+01)
 number of electron     257.9999980 magnetization       6.0000000
 augmentation part       75.7246317 magnetization       4.1074466

 Free energy of the ion-electron system (eV)
  ---------------------------------------------------
  alpha Z        PSCENC =       891.90981759
  Ewald energy   TEWEN  =    -15905.23357385
  -Hartree energ DENC   =     -5556.76354646
  -exchange      EXHF   =         0.00000000
  -V(xc)+E(xc)   XCENC  =       862.88031532
  PAW double counting   =     25755.04450577   -26256.82580853
  entropy T*S    EENTRO =        -0.03107351
  eigenvalues    EBANDS =      -161.53267357
  atomic energy  EATOM  =     20168.87094289
  ---------------------------------------------------
  free energy    TOTEN  =      -201.67280948 eV

  energy without entropy =     -201.64173597  energy(sigma->0) =     -201.65727273


--------------------------------------------------------------------------------------------------------




--------------------------------------- Iteration      1(  19)  ---------------------------------------


    POTLOK:  cpu time    0.0263: real time    0.0263
    SETDIJ:  cpu time    0.0118: real time    0.0119
    TRIAL :  cpu time   10.0379: real time   10.1000
    CORREC:  cpu time    4.0733: real time    4.0795
    CHARGE:  cpu time    0.3087: real time    0.3090
    --------------------------------------------
      LOOP:  cpu time   14.4621: real time   14.5308

 eigenvalue-minimisations  :     0
 total energy-change (2. order) :-0.8810264E+01  (-0.2710006E+01)
 number of electron     257.9999980 magnetization       6.0000000
 augmentation part       75.7987441 magnetization       4.0315946

 Free energy of the ion-electron system (eV)
  ---------------------------------------------------
  alpha Z        PSCENC =       891.90981759
  Ewald energy   TEWEN  =    -15905.23357385
  -Hartree energ DENC   =     -5562.24211258
  -exchange      EXHF   =         0.00000000
  -V(xc)+E(xc)   XCENC  =       862.58348851
  PAW double counting   =     25741.68287244   -26242.74525417
  entropy T*S    EENTRO =        -0.02573152
  eigenvalues    EBANDS =      -165.27818032
  atomic energy  EATOM  =     20168.87094289
  ---------------------------------------------------
  free energy    TOTEN  =      -210.48307301 eV

  energy without entropy =     -210.45734149  energy(sigma->0) =     -210.47020725


--------------------------------------------------------------------------------------------------------




--------------------------------------- Iteration      1(  20)  ---------------------------------------


    POTLOK:  cpu time    0.0262: real time    0.0262
    SETDIJ:  cpu time    0.0120: real time    0.0120
    TRIAL :  cpu time   10.3580: real time   10.3773
    CORREC:  cpu time    4.0023: real time    4.0078
    CHARGE:  cpu time    0.3521: real time    0.3525
    --------------------------------------------
      LOOP:  cpu time   14.7546: real time   14.7797

 eigenvalue-minimisations  :     0
 total energy-change (2. order) :-0.2912059E+01  (-0.3166623E+01)
 number of electron     257.9999980 magnetization       6.0000000
 augmentation part       75.9024555 magnetization       3.9238523

 Free energy of the ion-electron system (eV)
  ---------------------------------------------------
  alpha Z        PSCENC =       891.90981759
  Ewald energy   TEWEN  =    -15905.23357385
  -Hartree energ DENC   =     -5601.40880030
  -exchange      EXHF   =         0.00000000
  -V(xc)+E(xc)   XCENC  =       861.79472563
  PAW double counting   =     25651.95429207   -26143.87967213
  entropy T*S    EENTRO =        -0.02265078
  eigenvalues    EBANDS =      -137.37713288
  atomic energy  EATOM  =     20168.87094289
  ---------------------------------------------------
  free energy    TOTEN  =      -213.39513250 eV

  energy without entropy =     -213.37248173  energy(sigma->0) =     -213.38380711


--------------------------------------------------------------------------------------------------------




--------------------------------------- Iteration      1(  21)  ---------------------------------------


    POTLOK:  cpu time    0.0266: real time    0.0267
    SETDIJ:  cpu time    0.0118: real time    0.0118
    TRIAL :  cpu time   10.4146: real time   10.4490
    CORREC:  cpu time    4.0201: real time    4.0259
    CHARGE:  cpu time    0.3035: real time    0.3038
    --------------------------------------------
      LOOP:  cpu time   14.7809: real time   14.8213

 eigenvalue-minimisations  :     0
 total energy-change (2. order) :-0.2767293E+01  (-0.6325951E+00)
 number of electron     257.9999980 magnetization       6.0000000
 augmentation part       75.7628876 magnetization       3.8900913

 Free energy of the ion-electron system (eV)
  ---------------------------------------------------
  alpha Z        PSCENC =       891.90981759
  Ewald energy   TEWEN  =    -15905.23357385
  -Hartree energ DENC   =     -5631.87655190
  -exchange      EXHF   =         0.00000000
  -V(xc)+E(xc)   XCENC  =       860.96341085
  PAW double counting   =     25613.12991739   -26093.95359972
  entropy T*S    EENTRO =        -0.02129119
  eigenvalues    EBANDS =      -119.95013819
  atomic energy  EATOM  =     20168.87094289
  ---------------------------------------------------
  free energy    TOTEN  =      -216.16242573 eV

  energy without entropy =     -216.14113454  energy(sigma->0) =     -216.15178013


--------------------------------------------------------------------------------------------------------




--------------------------------------- Iteration      1(  22)  ---------------------------------------


    POTLOK:  cpu time    0.0264: real time    0.0264
    SETDIJ:  cpu time    0.0119: real time    0.0119
    TRIAL :  cpu time   10.3678: real time   10.4111
    CORREC:  cpu time    4.2072: real time    4.2210
    CHARGE:  cpu time    0.3028: real time    0.3036
    --------------------------------------------
      LOOP:  cpu time   14.9201: real time   14.9781

 eigenvalue-minimisations  :     0
 total energy-change (2. order) :-0.6338020E+00  (-0.3739875E+00)
 number of electron     257.9999980 magnetization       6.0000000
 augmentation part       75.7308794 magnetization       3.8708860

 Free energy of the ion-electron system (eV)
  ---------------------------------------------------
  alpha Z        PSCENC =       891.90981759
  Ewald energy   TEWEN  =    -15905.23357385
  -Hartree energ DENC   =     -5627.59670139
  -exchange      EXHF   =         0.00000000
  -V(xc)+E(xc)   XCENC  =       861.47318873
  PAW double counting   =     25579.58795759   -26046.75412355
  entropy T*S    EENTRO =        -0.02045638
  eigenvalues    EBANDS =      -139.03244451
  atomic energy  EATOM  =     20168.87094289
  ---------------------------------------------------
  free energy    TOTEN  =      -216.79622769 eV

  energy without entropy =     -216.77577131  energy(sigma->0) =     -216.78599950


--------------------------------------------------------------------------------------------------------




--------------------------------------- Iteration      1(  23)  ---------------------------------------


    POTLOK:  cpu time    0.0262: real time    0.0262
    SETDIJ:  cpu time    0.0118: real time    0.0119
    TRIAL :  cpu time   10.2635: real time   10.3063
    CORREC:  cpu time    4.0723: real time    4.0855
    CHARGE:  cpu time    0.3071: real time    0.3079
    --------------------------------------------
      LOOP:  cpu time   14.6851: real time   14.7420

 eigenvalue-minimisations  :     0
 total energy-change (2. order) :-0.3495530E+00  (-0.3340964E+00)
 number of electron     257.9999980 magnetization       5.9999999
 augmentation part       75.9575827 magnetization       3.8381560

 Free energy of the ion-electron system (eV)
  ---------------------------------------------------
  alpha Z        PSCENC =       891.90981759
  Ewald energy   TEWEN  =    -15905.23357385
  -Hartree energ DENC   =     -5624.59789793
  -exchange      EXHF   =         0.00000000
  -V(xc)+E(xc)   XCENC  =       862.05320699
  PAW double counting   =     25574.51358829   -26034.80441187
  entropy T*S    EENTRO =        -0.01921790
  eigenvalues    EBANDS =      -149.83699638
  atomic energy  EATOM  =     20168.87094289
  ---------------------------------------------------
  free energy    TOTEN  =      -217.14578065 eV

  energy without entropy =     -217.12656275  energy(sigma->0) =     -217.13617170


--------------------------------------------------------------------------------------------------------




--------------------------------------- Iteration      1(  24)  ---------------------------------------


    POTLOK:  cpu time    0.0264: real time    0.0265
    SETDIJ:  cpu time    0.0118: real time    0.0118
    TRIAL :  cpu time   10.1757: real time   10.2187
    CORREC:  cpu time    3.9781: real time    3.9915
    CHARGE:  cpu time    0.3042: real time    0.3050
    --------------------------------------------
      LOOP:  cpu time   14.5004: real time   14.5577

 eigenvalue-minimisations  :     0
 total energy-change (2. order) :-0.3346514E+00  (-0.1415895E+00)
 number of electron     257.9999980 magnetization       5.9999999
 augmentation part       76.1521428 magnetization       3.8258371

 Free energy of the ion-electron system (eV)
  ---------------------------------------------------
  alpha Z        PSCENC =       891.90981759
  Ewald energy   TEWEN  =    -15905.23357385
  -Hartree energ DENC   =     -5631.70189804
  -exchange      EXHF   =         0.00000000
  -V(xc)+E(xc)   XCENC  =       863.15139651
  PAW double counting   =     25623.89061524   -26085.58587325
  entropy T*S    EENTRO =        -0.01802506
  eigenvalues    EBANDS =      -142.76264124
  atomic energy  EATOM  =     20168.87094289
  ---------------------------------------------------
  free energy    TOTEN  =      -217.48043206 eV

  energy without entropy =     -217.46240701  energy(sigma->0) =     -217.47141953


--------------------------------------------------------------------------------------------------------




--------------------------------------- Iteration      1(  25)  ---------------------------------------


    POTLOK:  cpu time    0.0266: real time    0.0267
    SETDIJ:  cpu time    0.0116: real time    0.0116
    TRIAL :  cpu time   10.2744: real time   10.3211
    CORREC:  cpu time    4.0207: real time    4.0365
    CHARGE:  cpu time    0.3950: real time    0.3960
    --------------------------------------------
      LOOP:  cpu time   14.7325: real time   14.7959

 eigenvalue-minimisations  :     0
[...]
   20        1.575   3.492   0.000   5.067
   21        1.583   3.436   0.000   5.019
   22        1.586   3.432   0.000   5.018
   23        1.581   3.458   0.000   5.039
   24        1.582   3.418   0.000   5.000
   25        1.587   3.419   0.000   5.006
   26        1.594   3.342   0.000   4.936
   27        1.568   3.476   0.000   5.044
   28        1.556   3.543   0.000   5.099
   29        1.565   3.509   0.000   5.074
   30        1.565   3.514   0.000   5.079
   31        1.576   3.456   0.000   5.032
   32        1.574   3.457   0.000   5.031
   33        1.563   3.505   0.000   5.068
   34        1.567   3.508   0.000   5.075
   35        1.588   3.365   0.000   4.953
   36        1.576   3.505   0.000   5.081
   37        1.575   3.454   0.000   5.029
   38        1.579   3.441   0.000   5.019
   39        1.561   3.524   0.000   5.085
   40        1.566   3.513   0.000   5.079
   41        1.572   3.478   0.000   5.049
   42        1.570   3.516   0.000   5.086
--------------------------------------------------
tot         44.519  95.031  89.211 228.761
 


 magnetization (x)
 
# of ion       s       p       d       tot
------------------------------------------
    1        0.000  -0.002   0.000  -0.002
    2        0.001   0.001   0.000   0.002
    3        0.001  -0.001   0.000  -0.000
    4        0.001   0.000   0.000   0.001
    5        0.001   0.001   0.000   0.002
    6        0.001  -0.000   0.000   0.000
    7        0.009   0.013   1.180   1.202
    8        0.004   0.007  -0.003   0.008
    9        0.014   0.018   1.347   1.379
   10        0.011   0.016   1.166   1.194
   11        0.007   0.009   1.148   1.164
   12        0.002   0.003  -0.011  -0.006
   13        0.002   0.001  -0.002   0.000
   14        0.001   0.001  -0.014  -0.011
   15        0.008   0.010   1.112   1.130
   16        0.010   0.011   1.177   1.199
   17        0.004   0.005  -0.007   0.001
   18        0.003   0.004  -0.027  -0.021
   19        0.001  -0.059   0.000  -0.058
   20        0.001  -0.058   0.000  -0.057
   21        0.002  -0.063   0.000  -0.062
   22        0.002  -0.077   0.000  -0.075
   23        0.001  -0.063   0.000  -0.062
   24        0.000  -0.073   0.000  -0.072
   25        0.002  -0.088   0.000  -0.086
   26        0.002  -0.100   0.000  -0.098
   27        0.000  -0.031   0.000  -0.031
   28       -0.000  -0.003   0.000  -0.003
   29        0.000  -0.023   0.000  -0.022
   30        0.000  -0.026   0.000  -0.025
   31        0.000  -0.039   0.000  -0.039
   32        0.000  -0.024   0.000  -0.024
   33       -0.000  -0.006   0.000  -0.006
   34       -0.000  -0.036   0.000  -0.036
   35        0.001  -0.074   0.000  -0.073
   36        0.000  -0.050   0.000  -0.049
   37       -0.000  -0.041   0.000  -0.041
   38       -0.000  -0.060   0.000  -0.060
   39        0.000  -0.015   0.000  -0.014
   40        0.000  -0.034   0.000  -0.034
   41        0.001  -0.034   0.000  -0.034
   42        0.000  -0.033   0.000  -0.032
--------------------------------------------------
tot          0.093  -1.013   7.065   6.146
 
    FORLOC:  cpu time    0.0063: real time    0.0063
    FORNL :  cpu time    2.9935: real time    2.9952
    STRESS:  cpu time    8.9345: real time    8.9389
    FORCOR:  cpu time    0.0284: real time    0.0284
    OFIELD:  cpu time    0.0002: real time    0.0002

  DFT-D2 method for vdW energy calculation
  -------------------------------------------------------------------

  Parameters of vdW forcefield:
         C6(Jnm^6/mol)     R0(A)
   -----------------------------
   Li       1.610          0.825
   Co      10.800          1.562
   O        0.700          1.342

  IVDW =   1
  VDW_RADIUS =    50.000 A
  VDW_S6 =     0.750
  VDW_SR =     1.000
  VDW_D =    20.000
  LVDW_EWALD = F

  Number of pair interactions contributing to vdW energy: 1439033
  Edisp (eV):  -11.59909
    FORVDW:  cpu time    0.1966: real time    0.1976

  FORCE on cell =-STRESS in cart. coord.  units (eV):
  Direction    XX          YY          ZZ          XY          YZ          ZX
  --------------------------------------------------------------------------------------
  Alpha Z   891.90982   891.90982   891.90982
  Ewald   -3316.03578 -3133.32414 -9455.94354    21.95211   -51.66348    -0.18093
  Hartree  3290.28952  3363.28607 -1027.80451    15.00336   -19.40324     1.70137
  E(xc)   -1298.21442 -1297.75693 -1297.54092    -0.06701    -0.04810    -0.07167
  Local   -5089.53456 -5324.50932  5355.66381   -40.18798    67.82426    -4.05665
  n-local  -576.63154  -570.00229  -578.36852     0.11622    -3.19441     0.22888
  augment  2025.02403  2014.67043  1987.14512     2.04473     1.99288     1.29652
  Kinetic  4134.24659  4119.83583  4177.38157     1.52477    -0.38690     1.46771
  Fock        0.00000     0.00000     0.00000     0.00000     0.00000     0.00000
  vdW        -8.79103    -8.59760   -16.05914     0.12716    -0.06859    -0.12239
  -------------------------------------------------------------------------------------
  Total      52.26264    55.51186    36.38371     0.51335    -4.94758     0.26286
  in kB     254.74645   270.58430   177.34697     2.50226   -24.11624     1.28126
  external pressure =      234.23 kB  Pullay stress =        0.00 kB


 VOLUME and BASIS-vectors are now :
 -----------------------------------------------------------------------------
  energy-cutoff  :      600.00
  volume of cell :      328.70
      direct lattice vectors                 reciprocal lattice vectors
     5.392165661  0.000000000  0.000000000     0.185454243  0.106694802 -0.001224824
    -2.696566820  4.687105179  0.000000000     0.000000000  0.213351304 -0.000550216
     0.066597886  0.033540033 13.005463600     0.000000000  0.000000000  0.076890762

  length of vectors
     5.392165661  5.407441870 13.005677363     0.213959242  0.213352013  0.076890762


 FORCES acting on ions:
    Electron-Ion                     Ewald-Force                    Non-Local-Force
 -----------------------------------------------------------------------------------------------
   -.443E+01 -.130E+01 0.479E+01   0.418E+01 0.109E+01 -.518E+01   0.949E+00 0.536E+00 -.191E+00
   -.590E+00 -.181E+01 -.380E+01   0.324E+00 0.175E+01 0.423E+01   0.660E+00 0.283E+00 -.627E-01
   0.149E+01 0.440E+01 0.277E+01   -.112E+01 -.427E+01 -.183E+01   -.692E+00 -.919E+00 -.111E+01
   -.302E+00 -.307E+01 -.145E+02   0.369E+00 0.274E+01 0.144E+02   -.104E+00 0.799E+00 0.144E+01
   -.112E+01 -.640E+01 -.720E+01   0.109E+01 0.585E+01 0.698E+01   0.552E+00 0.147E+01 0.121E+01
   -.122E+01 -.864E+00 -.708E+01   0.101E+01 0.655E+00 0.666E+01   0.318E-01 0.491E+00 0.984E+00
   0.634E+01 -.297E+02 0.373E+02   -.699E+01 0.308E+02 -.387E+02   -.723E+00 0.236E+00 0.572E+00
   0.318E+02 -.672E+01 -.183E+02   -.324E+02 0.698E+01 0.170E+02   -.153E+01 0.947E+00 0.469E+00
   0.676E+01 -.881E+01 0.155E+02   -.686E+01 0.972E+01 -.167E+02   0.377E-01 -.248E-01 0.293E+00
   -.123E+00 0.160E+02 0.273E+02   -.112E+01 -.163E+02 -.294E+02   -.709E+00 0.297E+00 0.350E+00
   -.542E+01 -.922E+00 -.687E+02   0.561E+01 0.149E+01 0.682E+02   -.603E+00 0.413E+00 0.417E+00
   0.180E+01 -.225E+02 -.809E+02   -.258E+01 0.241E+02 0.800E+02   0.832E+00 0.873E+00 0.191E+00
   0.872E+01 0.427E+01 -.627E+02   -.952E+01 -.390E+01 0.624E+02   0.735E+00 -.248E+00 -.395E+00
   -.223E+02 -.102E+02 -.632E+02   0.237E+02 0.892E+01 0.628E+02   0.888E+00 0.582E+00 0.191E+01
   -.301E+02 -.949E+01 0.671E+02   0.298E+02 0.100E+02 -.671E+02   0.430E+00 -.379E+00 -.443E+00
   0.221E+02 0.272E+02 0.569E+01   -.230E+02 -.286E+02 -.351E+01   -.436E+00 -.854E-01 0.235E+00
   0.250E+02 -.230E+02 0.599E+02   -.248E+02 0.239E+02 -.581E+02   -.487E+00 0.187E-01 -.283E+00
   0.391E+01 -.198E+01 0.813E+02   -.489E+01 0.267E+01 -.797E+02   -.641E+00 0.122E+01 -.171E+01
   -.329E+02 0.141E+02 -.274E+03   0.376E+02 -.136E+02 0.296E+03   -.335E+01 -.236E+01 -.228E+02
   -.120E+02 -.308E+01 -.271E+03   0.168E+02 0.299E+01 0.293E+03   -.349E+01 -.523E+00 -.221E+02
   0.121E+02 -.671E+01 -.281E+03   -.146E+02 0.468E+01 0.306E+03   0.300E+01 0.276E+01 -.248E+02
   -.274E+01 0.201E+02 -.286E+03   0.491E+00 -.229E+02 0.314E+03   0.317E+01 0.150E+01 -.273E+02
   0.111E+00 0.506E+01 0.289E+03   -.335E+01 -.579E+01 -.315E+03   0.340E+01 0.759E+00 0.259E+02
   -.745E+01 0.263E+01 0.292E+03   0.874E+01 -.532E+01 -.317E+03   -.334E+00 0.219E+01 0.259E+02
   0.998E+01 -.185E+02 0.298E+03   -.830E+01 0.213E+02 -.325E+03   -.193E+01 -.195E+01 0.267E+02
   -.114E+02 0.135E+02 0.284E+03   0.129E+02 -.147E+02 -.312E+03   -.138E+01 0.851E+00 0.295E+02
   -.253E+02 -.431E+01 -.324E+03   0.304E+02 0.647E+01 0.344E+03   -.474E+01 -.367E+01 -.208E+02
   -.203E+01 0.211E+01 -.306E+03   0.203E+01 -.210E+01 0.321E+03   -.831E-02 -.972E+00 -.163E+02
   0.161E+02 0.704E+01 -.329E+03   -.202E+02 -.760E+01 0.349E+03   0.408E+01 -.989E-01 -.197E+02
   0.238E+02 0.225E+02 -.316E+03   -.266E+02 -.286E+02 0.333E+03   0.112E+01 0.586E+01 -.168E+02
   -.367E+01 -.322E+01 0.249E+03   0.488E+01 0.394E+01 -.274E+03   -.154E+01 -.156E+01 0.254E+02
   -.309E+02 0.791E+01 0.231E+03   0.379E+02 -.862E+01 -.252E+03   -.599E+01 0.798E+00 0.225E+02
   0.134E+02 0.575E+01 0.226E+03   -.173E+02 -.611E+01 -.245E+03   0.361E+01 0.497E+00 0.194E+02
   0.260E+02 -.858E+01 0.222E+03   -.308E+02 0.865E+01 -.241E+03   0.385E+01 0.981E+00 0.193E+02
   0.195E+02 -.247E+02 -.255E+03   -.219E+02 0.255E+02 0.282E+03   0.248E+01 0.407E+00 -.279E+02
   -.217E+02 0.202E+02 -.265E+03   0.183E+02 -.245E+02 0.288E+03   0.527E+01 0.332E+01 -.213E+02
   -.188E+02 0.155E+02 -.263E+03   0.213E+02 -.129E+02 0.289E+03   -.212E+01 -.436E+01 -.246E+02
   0.169E+02 -.346E+01 -.264E+03   -.133E+02 0.292E+01 0.289E+03   -.538E+01 0.584E+00 -.243E+02
   0.175E+00 0.104E+02 0.338E+03   0.345E-01 -.121E+02 -.356E+03   -.339E-01 0.652E+00 0.157E+02
   -.757E+01 0.171E+02 0.333E+03   0.695E+01 -.201E+02 -.353E+03   0.234E+01 0.247E+01 0.185E+02
   0.817E+01 -.348E+02 0.337E+03   -.977E+01 0.405E+02 -.360E+03   0.135E+01 -.444E+01 0.212E+02
   -.118E+02 0.801E+01 0.352E+03   0.152E+02 -.961E+01 -.375E+03   -.330E+01 0.158E+01 0.208E+02
 -----------------------------------------------------------------------------------------------
   0.772E+00 -.118E+02 -.610E+01   0.000E+00 -.338E-13 0.171E-12   -.758E+00 0.118E+02 0.601E+01
 
 
 POSITION                                       TOTAL-FORCE (eV/Angst)
 -----------------------------------------------------------------------------------
     -0.17225      4.63396      0.04334         0.557523      0.184804     -0.497979
      3.87729      0.76637      4.32258         0.318397      0.153739      0.346440
      2.78239      3.30213      4.32890        -0.250786     -0.678680      0.028416
      0.00220      1.52925      8.52520         0.016726      0.358972      1.090931
     -1.36080      3.75074      8.61320         0.424345      0.660126      0.730316
      1.46249      3.81887      8.60391        -0.117288      0.175333      0.348310
     -0.03193      1.57051      2.13548        -1.275921      1.101705     -0.602607
     -1.36486      3.86350      2.20736        -1.767942      1.095724     -0.937080
      2.62169      1.52537      2.17799        -0.026761      0.811888     -0.761203
      1.36409      3.90647      2.17293        -1.845068      0.057544     -1.579065
     -2.62014      4.70106      6.42367        -0.441734      0.891089      0.035232
      4.06924      2.30274      6.47075        -0.021969      2.215752     -0.783381
      2.69957      0.04864      6.45730        -0.040770      0.102027     -0.494033
      1.30597      2.42034      6.37622         2.094016     -0.720729      1.439780
      1.45271      0.84657     10.94562        -0.079577      0.092909     -0.438260
      0.14921      3.16073     10.92172        -1.177713     -1.197520      1.917718
      4.16729      0.79784     10.90012        -0.202115      0.683274      1.346344
      2.84502      3.12232     10.91212        -1.497022      1.786273     -0.155587
      5.27022      0.15665      3.19606         1.403223     -1.837293     -0.105580
      3.90217      2.32321      3.15811         1.341649     -0.559419     -0.144767
     -0.03721      4.61278      3.18624         0.438203      0.714414     -0.214881
      1.24407      2.42062      3.11917         0.871707     -1.362887      0.729107
      1.29721      0.74999      1.22489         0.129600      0.069351     -0.160987
     -0.08360      3.13135      1.13098         0.968704     -0.553735      0.962697
      4.01420      0.72332      1.19383        -0.172242      0.804829     -0.160778
      2.65511      3.14034      1.11672         0.125738     -0.422678      1.393521
      1.34133      0.92719      7.47026         0.483130     -1.468039     -0.536279
      0.02779      3.22611      7.52402        -0.006836     -0.918803     -0.621985
      4.10776      0.76980      7.45215        -0.147098     -0.570034      0.332104
      2.80744      3.18631      7.47524        -1.745712     -0.279217     -0.494105
      0.00501      1.59820      5.44615        -0.241761     -0.792967     -0.417637
     -1.34844      3.92113      5.40181         0.980205      0.112086      1.206236
      2.70334      1.59967      5.43028        -0.266803      0.046096      0.290559
      1.44077      3.92871      5.39989        -1.013906      0.998414      0.413962
      0.11731      1.53100     11.99112         0.080039      1.171237     -1.234929
     -1.28670      4.00215     11.78762         1.811506     -0.940037      2.097171
      2.79160      1.64098     11.90712         0.339497     -1.751206      0.515307
      1.54758      3.93492     11.87332        -1.733159      0.006727      0.689932
      0.13518      0.10059      9.92522         0.172607     -1.012460     -1.378237
     -1.26103      2.38628      9.93912         1.642022     -0.503810     -1.125667
      0.12430      4.62716      9.94512        -0.279566      1.358186     -1.209946
      1.44796      2.37095      9.99672         0.152911     -0.082987     -1.859111
 -----------------------------------------------------------------------------------
    total drift:                                0.013388      0.024516     -0.093457


--------------------------------------------------------------------------------------------------------



  FREE ENERGIE OF THE ION-ELECTRON SYSTEM (eV)
  ---------------------------------------------------
  free  energy   TOTEN  =      -231.36772412 eV

  energy  without entropy=     -231.36747535  energy(sigma->0) =     -231.36759973
 


--------------------------------------------------------------------------------------------------------


    POTLOK:  cpu time    0.0526: real time    0.0527


--------------------------------------------------------------------------------------------------------


     LOOP+:  cpu time 2794.2623: real time 2808.1379
    4ORBIT:  cpu time    0.0000: real time    0.0000
 


 total charge     
 
# of ion       s       p       d       tot
------------------------------------------
    1        0.125   0.286   0.000   0.411
    2        0.144   0.339   0.000   0.483
    3        0.145   0.339   0.000   0.484
    4        0.129   0.295   0.000   0.424
    5        0.135   0.311   0.000   0.446
    6        0.119   0.267   0.000   0.386
    7        0.506   0.862   7.324   8.693
    8        0.477   0.786   7.515   8.778
    9        0.490   0.817   7.330   8.637
   10        0.518   0.889   7.380   8.787
   11        0.509   0.860   7.361   8.731
   12        0.475   0.784   7.514   8.774
   13        0.448   0.728   7.430   8.606
   14        0.472   0.774   7.488   8.733
   15        0.529   0.910   7.394   8.833
   16        0.511   0.854   7.365   8.730
   17        0.479   0.799   7.515   8.793
   18        0.518   0.893   7.595   9.006
   19        1.577   3.477   0.000   5.055
   20        1.575   3.492   0.000   5.067
   21        1.583   3.436   0.000   5.019
   22        1.586   3.432   0.000   5.018
   23        1.581   3.458   0.000   5.039
   24        1.582   3.418   0.000   5.000
   25        1.587   3.419   0.000   5.006
   26        1.594   3.342   0.000   4.936
   27        1.568   3.476   0.000   5.044
   28        1.556   3.543   0.000   5.099
   29        1.565   3.509   0.000   5.074
   30        1.565   3.514   0.000   5.079
   31        1.576   3.456   0.000   5.032
   32        1.574   3.457   0.000   5.031
   33        1.563   3.505   0.000   5.068
   34        1.567   3.508   0.000   5.075
   35        1.588   3.365   0.000   4.953
   36        1.576   3.505   0.000   5.081
   37        1.575   3.454   0.000   5.029
   38        1.579   3.441   0.000   5.019
   39        1.561   3.524   0.000   5.085
   40        1.566   3.513   0.000   5.079
   41        1.572   3.478   0.000   5.049
   42        1.570   3.516   0.000   5.086
--------------------------------------------------
tot         44.519  95.031  89.211 228.761
 


 magnetization (x)
 
# of ion       s       p       d       tot
------------------------------------------
    1        0.000  -0.002   0.000  -0.002
    2        0.001   0.001   0.000   0.002
    3        0.001  -0.001   0.000  -0.000
    4        0.001   0.000   0.000   0.001
    5        0.001   0.001   0.000   0.002
    6        0.001  -0.000   0.000   0.000
    7        0.009   0.013   1.180   1.202
    8        0.004   0.007  -0.003   0.008
    9        0.014   0.018   1.347   1.379
   10        0.011   0.016   1.166   1.194
   11        0.007   0.009   1.148   1.164
   12        0.002   0.003  -0.011  -0.006
   13        0.002   0.001  -0.002   0.000
   14        0.001   0.001  -0.014  -0.011
   15        0.008   0.010   1.112   1.130
   16        0.010   0.011   1.177   1.199
   17        0.004   0.005  -0.007   0.001
   18        0.003   0.004  -0.027  -0.021
   19        0.001  -0.059   0.000  -0.058
   20        0.001  -0.058   0.000  -0.057
   21        0.002  -0.063   0.000  -0.062
   22        0.002  -0.077   0.000  -0.075
   23        0.001  -0.063   0.000  -0.062
   24        0.000  -0.073   0.000  -0.072
   25        0.002  -0.088   0.000  -0.086
   26        0.002  -0.100   0.000  -0.098
   27        0.000  -0.031   0.000  -0.031
   28       -0.000  -0.003   0.000  -0.003
   29        0.000  -0.023   0.000  -0.022
   30        0.000  -0.026   0.000  -0.025
   31        0.000  -0.039   0.000  -0.039
   32        0.000  -0.024   0.000  -0.024
   33       -0.000  -0.006   0.000  -0.006
   34       -0.000  -0.036   0.000  -0.036
   35        0.001  -0.074   0.000  -0.073
   36        0.000  -0.050   0.000  -0.049
   37       -0.000  -0.041   0.000  -0.041
   38       -0.000  -0.060   0.000  -0.060
   39        0.000  -0.015   0.000  -0.014
   40        0.000  -0.034   0.000  -0.034
   41        0.001  -0.034   0.000  -0.034
   42        0.000  -0.033   0.000  -0.032
--------------------------------------------------
tot          0.093  -1.013   7.065   6.146
 

 total amount of memory used by VASP MPI-rank0   136510. kBytes
=======================================================================

   base      :      30000. kBytes
   nonlr-proj:       3620. kBytes
   fftplans  :       1013. kBytes
   grid      :       2556. kBytes
   one-center:        342. kBytes
   wavefun   :      98979. kBytes
 
  
  
 General timing and accounting informations for this job:
 ========================================================
  
                  Total CPU time used (sec):     2817.427
                            User time (sec):     2532.278
                          System time (sec):      285.149
                         Elapsed time (sec):     2832.035
  
                   Maximum memory used (kb):      826064.
                   Average memory used (kb):           0.
  
                          Minor page faults:        65276
                          Major page faults:           60
                 Voluntary context switches:          625
