       N       E                     dE             d eps       ncg     rms          ort
DAV:   1     0.344826539024E+04    0.34483E+04   -0.13879E+05  5760   0.214E+03
DAV:   2     0.415984151168E+03   -0.30323E+04   -0.27963E+04  5760   0.520E+02
DAV:   3    -0.217346486383E+03   -0.63333E+03   -0.58445E+03  5760   0.251E+02
DAV:   4    -0.268826654616E+03   -0.51480E+02   -0.50129E+02  5760   0.734E+01
DAV:   5    -0.270747664167E+03   -0.19210E+01   -0.19168E+01  5760   0.142E+01
SDA:   6     0.143138404697E+03    0.41389E+03   -0.19168E+01  5760   0.271E+04 0.000E+00
CGA:   7     0.758236188006E+02   -0.67315E+02   -0.70149E+02  5760   0.245E+04 0.156E+04
CGA:   8    -0.251863423118E+02   -0.10101E+03   -0.24114E+02  5760   0.258E+04 0.505E+04
CGA:   9    -0.649813242991E+02   -0.39795E+02   -0.11717E+03  5760   0.172E+04 0.535E+03
CGA:  10    -0.165316012156E+03   -0.10033E+03   -0.37766E+02  5760   0.470E+03 0.123E+03
CGA:  11    -0.188508449231E+03   -0.23192E+02   -0.24584E+02  5760   0.110E+04-0.455E+02
CGA:  12    -0.201400948477E+03   -0.12892E+02   -0.11794E+02  5760   0.278E+03 0.125E+03
CGA:  13    -0.199986739899E+03    0.14142E+01   -0.89832E+01  5760   0.330E+03-0.288E+03
CGA:  14    -0.201678789018E+03   -0.16920E+01   -0.13224E+02  5760   0.494E+03-0.235E+03
CGA:  15    -0.192058211653E+03    0.96206E+01   -0.20966E+02  5760   0.884E+03-0.486E+03
CGA:  16    -0.211906962066E+03   -0.19849E+02   -0.14757E+02  5760   0.225E+02-0.497E+02
CGA:  17    -0.213985281066E+03   -0.20783E+01   -0.20791E+01  5760   0.563E+02 0.132E+00
CGA:  18    -0.216299898944E+03   -0.23146E+01   -0.29634E+01  5760   0.200E+02-0.481E+01
CGA:  19    -0.217417735466E+03   -0.11178E+01   -0.12251E+01  5760   0.244E+02-0.885E+00
CGA:  20    -0.218767393757E+03   -0.13497E+01   -0.13355E+01  5760   0.424E+01 0.171E+00
CGA:  21    -0.218990548751E+03   -0.22315E+00   -0.24794E+00  5760   0.290E+01-0.259E+00
CGA:  22    -0.219179260842E+03   -0.18871E+00   -0.19666E+00  5760   0.266E+01-0.223E-01
CGA:  23    -0.219456830580E+03   -0.27757E+00   -0.27889E+00  5760   0.254E+01 0.629E-01
CGA:  24    -0.219588255191E+03   -0.13142E+00   -0.14044E+00  5760   0.822E+00-0.107E+00
CGA:  25    -0.219713648286E+03   -0.12539E+00   -0.12657E+00  5760   0.192E+01-0.223E-01
CGA:  26    -0.219897444684E+03   -0.18380E+00   -0.18799E+00  5760   0.132E+01 0.132E+00
CGA:  27    -0.220154883488E+03   -0.25744E+00   -0.25349E+00  5760   0.103E+01 0.375E-01
CGA:  28    -0.220282368728E+03   -0.12749E+00   -0.12800E+00  5760   0.189E+01-0.574E-01
CGA:  29    -0.220479726879E+03   -0.19736E+00   -0.19850E+00  5760   0.171E+01 0.106E+00
CGA:  30    -0.220689575955E+03   -0.20985E+00   -0.20985E+00  5760   0.155E+01-0.894E-01
CGA:  31    -0.220836210037E+03   -0.14663E+00   -0.14841E+00  5760   0.170E+01 0.463E-01
CGA:  32    -0.220974734594E+03   -0.13852E+00   -0.11230E+00  5760   0.137E+01 0.186E+00
CGA:  33    -0.221088520780E+03   -0.11379E+00   -0.10886E+00  5760   0.264E+01 0.143E-01
CGA:  34    -0.221218044634E+03   -0.12952E+00   -0.13231E+00  5760   0.212E+01-0.968E-02
CGA:  35    -0.221282933142E+03   -0.64889E-01   -0.71878E-01  5760   0.118E+01-0.165E+00
CGA:  36    -0.221361742351E+03   -0.78809E-01   -0.80326E-01  5760   0.201E+01-0.358E-01
CGA:  37    -0.221459316974E+03   -0.97575E-01   -0.88904E-01  5760   0.786E+00-0.911E-02
CGA:  38    -0.221489855153E+03   -0.30538E-01   -0.29232E-01  5760   0.691E+00 0.107E-01
CGA:  39    -0.221561526144E+03   -0.71671E-01   -0.71412E-01  5760   0.149E+01 0.801E-01
CGA:  40    -0.221614484046E+03   -0.52958E-01   -0.65015E-01  5760   0.586E+00-0.191E+00
CGA:  41    -0.221647911401E+03   -0.33427E-01   -0.32023E-01  5760   0.952E+00-0.756E-01
CGA:  42    -0.221685359285E+03   -0.37448E-01   -0.37322E-01  5760   0.783E+00 0.429E-01
CGA:  43    -0.221710827065E+03   -0.25468E-01   -0.28706E-01  5760   0.372E+00-0.507E-01
CGA:  44    -0.221726565806E+03   -0.15739E-01   -0.16387E-01  5760   0.412E+00-0.444E-02
CGA:  45    -0.221760421151E+03   -0.33855E-01   -0.33877E-01  5760   0.633E+00 0.323E-01
SDA:  46    -0.221781920814E+03   -0.21500E-01   -0.26511E-01  5760   0.327E+00-0.444E-02
CGA:  47    -0.221807537003E+03   -0.25616E-01   -0.25670E-01  5760   0.341E+00 0.570E-02
CGA:  48    -0.221839635547E+03   -0.32099E-01   -0.32092E-01  5760   0.139E+00 0.232E-02
CGA:  49    -0.221885543384E+03   -0.45908E-01   -0.39508E-01  5760   0.152E+00 0.332E-01
CGA:  50    -0.221896899015E+03   -0.11356E-01   -0.11897E-01  5760   0.152E+00-0.467E-02
CGA:  51    -0.221919213383E+03   -0.22314E-01   -0.23409E-01  5760   0.766E-01-0.105E-01
CGA:  52    -0.221927514289E+03   -0.83009E-02   -0.82216E-02  5760   0.139E+00 0.740E-03
CGA:  53    -0.221942353228E+03   -0.14839E-01   -0.14809E-01  5760   0.516E-01 0.173E-02
CGA:  54    -0.221949616472E+03   -0.72632E-02   -0.71788E-02  5760   0.926E-01 0.986E-03
CGA:  55    -0.221956799256E+03   -0.71828E-02   -0.72063E-02  5760   0.442E-01 0.582E-04
CGA:  56    -0.221963464029E+03   -0.66648E-02   -0.65383E-02  5760   0.900E-01 0.307E-02
CGA:  57    -0.221970512542E+03   -0.70485E-02   -0.69459E-02  5760   0.382E-01 0.135E-02
CGA:  58    -0.221977789408E+03   -0.72769E-02   -0.66530E-02  5760   0.524E-01 0.947E-02
CGA:  59    -0.221983077991E+03   -0.52886E-02   -0.52689E-02  5760   0.451E-01-0.318E-02
CGA:  60    -0.221990574943E+03   -0.74970E-02   -0.77400E-02  5760   0.260E-01-0.340E-02
CGA:  61    -0.221995689565E+03   -0.51146E-02   -0.50076E-02  5760   0.659E-01 0.962E-02
CGA:  62    -0.221998782902E+03   -0.30933E-02   -0.42515E-02  5760   0.124E-01 0.169E-02
CGA:  63    -0.222002186269E+03   -0.34034E-02   -0.31995E-02  5760   0.817E-02 0.162E-02
CGA:  64    -0.222004358520E+03   -0.21723E-02   -0.20346E-02  5760   0.153E-01 0.157E-02
CGA:  65    -0.222005315525E+03   -0.95700E-03   -0.10442E-02  5760   0.787E-02-0.339E-02
CGA:  66    -0.222005223998E+03    0.91526E-04   -0.27018E-02  5760   0.605E-01-0.144E-02
CGA:  67    -0.222004379436E+03    0.84456E-03   -0.10778E-02  5760   0.402E-01-0.464E-02
CGA:  68    -0.222004391748E+03   -0.12312E-04   -0.67205E-03  5760   0.215E-01-0.220E-01
CGA:  69    -0.222008466496E+03   -0.40747E-02   -0.40001E-02  5760   0.134E-01 0.184E-02
CGA:  70    -0.222009223660E+03   -0.75716E-03   -0.10177E-02  5760   0.112E-01-0.728E-03
CGA:  71    -0.222011086078E+03   -0.18624E-02   -0.19887E-02  5760   0.193E-01 0.873E-03
CGA:  72    -0.222011820090E+03   -0.73401E-03   -0.11428E-02  5760   0.558E-02 0.984E-03
CGA:  73    -0.222012652084E+03   -0.83199E-03   -0.80566E-03  5760   0.514E-02-0.196E-03
CGA:  74    -0.222013111778E+03   -0.45969E-03   -0.43801E-03  5760   0.640E-02 0.688E-03
CGA:  75    -0.222013703278E+03   -0.59150E-03   -0.69083E-03  5760   0.550E-02 0.290E-02
CGA:  76    -0.222014202665E+03   -0.49939E-03   -0.60271E-03  5760   0.571E-02-0.122E-02
CGA:  77    -0.222014551413E+03   -0.34875E-03   -0.11790E-02  5760   0.213E-01-0.194E-02
CGA:  78    -0.222014384361E+03    0.16705E-03   -0.39555E-03  5760   0.208E-01 0.314E-02
CGA:  79    -0.222014652471E+03   -0.26811E-03   -0.98606E-03  5760   0.183E-01-0.759E-02
CGA:  80    -0.222015390039E+03   -0.73757E-03   -0.61091E-03  5760   0.132E-01-0.744E-02
CGA:  81    -0.222015847777E+03   -0.45774E-03   -0.25814E-03  5760   0.730E-02 0.737E-03
CGA:  82    -0.222016460987E+03   -0.61321E-03   -0.58374E-03  5760   0.146E-01 0.136E-02
CGA:  83    -0.222017109239E+03   -0.64825E-03   -0.88279E-03  5760   0.173E-01 0.322E-02
CGA:  84    -0.222017693694E+03   -0.58446E-03   -0.84481E-03  5760   0.125E-01-0.460E-02
CGA:  85    -0.222018208240E+03   -0.51455E-03   -0.42051E-03  5760   0.144E-01-0.359E-02
CGA:  86    -0.222018789471E+03   -0.58123E-03   -0.43682E-03  5760   0.106E-01-0.968E-03
CGA:  87    -0.222019151744E+03   -0.36227E-03   -0.32987E-03  5760   0.557E-02 0.342E-03
CGA:  88    -0.222019473420E+03   -0.32168E-03   -0.32475E-03  5760   0.824E-02 0.105E-04
CGA:  89    -0.222019911533E+03   -0.43811E-03   -0.43998E-03  5760   0.727E-02-0.685E-03
CGA:  90    -0.222020174919E+03   -0.26339E-03   -0.25525E-03  5760   0.748E-02-0.249E-03
CGA:  91    -0.222020621993E+03   -0.44707E-03   -0.46418E-03  5760   0.142E-01 0.693E-03
CGA:  92    -0.222021237535E+03   -0.61554E-03   -0.68017E-03  5760   0.774E-02 0.109E-02
CGA:  93    -0.222021567027E+03   -0.32949E-03   -0.36465E-03  5760   0.826E-02 0.818E-03
CGA:  94    -0.222022078613E+03   -0.51159E-03   -0.54622E-03  5760   0.778E-02 0.110E-02
CGA:  95    -0.222022375911E+03   -0.29730E-03   -0.32373E-03  5760   0.449E-02-0.418E-03
CGA:  96    -0.222022740560E+03   -0.36465E-03   -0.36772E-03  5760   0.956E-02-0.103E-02
CGA:  97    -0.222023088950E+03   -0.34839E-03   -0.29933E-03  5760   0.592E-02-0.142E-02
CGA:  98    -0.222023319531E+03   -0.23058E-03   -0.21641E-03  5760   0.672E-02-0.216E-03
SDA:  99    -0.222023791793E+03   -0.47226E-03   -0.47194E-03  5760   0.750E-02 0.668E-04
CGA: 100    -0.222024179202E+03   -0.38741E-03   -0.39159E-03  5760   0.537E-02-0.714E-04
CGA: 101    -0.222024849354E+03   -0.67015E-03   -0.65662E-03  5760   0.166E-02 0.205E-03
CGA: 102    -0.222025287134E+03   -0.43778E-03   -0.38895E-03  5760   0.249E-02 0.160E-03
CGA: 103    -0.222025446856E+03   -0.15972E-03   -0.16216E-03  5760   0.166E-02 0.227E-04
CGA: 104    -0.222025799597E+03   -0.35274E-03   -0.33763E-03  5760   0.223E-02 0.901E-04
CGA: 105    -0.222025954298E+03   -0.15470E-03   -0.15477E-03  5760   0.155E-02-0.702E-06
CGA: 106    -0.222026194056E+03   -0.23976E-03   -0.21858E-03  5760   0.623E-03 0.307E-03
CGA: 107    -0.222026348019E+03   -0.15396E-03   -0.14186E-03  5760   0.166E-02 0.132E-03
CGA: 108    -0.222026489325E+03   -0.14131E-03   -0.14641E-03  5760   0.818E-03 0.303E-03
CGA: 109    -0.222026607217E+03   -0.11789E-03   -0.10925E-03  5760   0.444E-03 0.286E-03
CGA: 110    -0.222026688094E+03   -0.80877E-04   -0.79271E-04  5760   0.115E-02 0.242E-03
CGA: 111    -0.222026724187E+03   -0.36093E-04   -0.49292E-04  5760   0.318E-03-0.398E-04
CGA: 112    -0.222026776544E+03   -0.52357E-04   -0.52790E-04  5760   0.623E-03 0.249E-04
CGA: 113    -0.222026819198E+03   -0.42654E-04   -0.47220E-04  5760   0.407E-03 0.130E-03
CGA: 114    -0.222026888907E+03   -0.69709E-04   -0.62761E-04  5760   0.256E-03 0.948E-04
CGA: 115    -0.222026922978E+03   -0.34071E-04   -0.34557E-04  5760   0.702E-03 0.787E-04
CGA: 116    -0.222026953253E+03   -0.30275E-04   -0.53152E-04  5760   0.136E-02 0.708E-03
CGA: 117    -0.222026993677E+03   -0.40423E-04   -0.55834E-04  5760   0.213E-03-0.927E-04
CGA: 118    -0.222027017066E+03   -0.23389E-04   -0.23455E-04  5760   0.169E-03 0.879E-06
CGA: 119    -0.222027033431E+03   -0.16365E-04   -0.16276E-04  5760   0.139E-03 0.385E-04
CGA: 120    -0.222027078050E+03   -0.44619E-04   -0.47636E-04  5760   0.565E-03 0.215E-04
CGA: 121    -0.222027105801E+03   -0.27751E-04   -0.38088E-04  5760   0.419E-03 0.734E-04
CGA: 122    -0.222027169103E+03   -0.63302E-04   -0.60776E-04  5760   0.122E-02-0.246E-03
CGA: 123    -0.222027204584E+03   -0.35481E-04   -0.45363E-04  5760   0.243E-03-0.948E-04
CGA: 124    -0.222027243821E+03   -0.39237E-04   -0.39835E-04  5760   0.447E-03-0.841E-05
CGA: 125    -0.222027269241E+03   -0.25420E-04   -0.25419E-04  5760   0.145E-03-0.370E-05
CGA: 126    -0.222027291106E+03   -0.21865E-04   -0.21882E-04  5760   0.163E-03-0.284E-05
CGA: 127    -0.222027303632E+03   -0.12526E-04   -0.12952E-04  5760   0.157E-03 0.273E-05
CGA: 128    -0.222027365363E+03   -0.61732E-04   -0.69155E-04  5760   0.118E-02-0.252E-04
CGA: 129    -0.222027437988E+03   -0.72624E-04   -0.71383E-04  5760   0.729E-03 0.573E-04
CGA: 130    -0.222027570187E+03   -0.13220E-03   -0.12376E-03  5760   0.117E-02 0.233E-04
CGA: 131    -0.222027654218E+03   -0.84031E-04   -0.77094E-04  5760   0.996E-03-0.163E-04
CGA: 132    -0.222027880009E+03   -0.22579E-03   -0.22527E-03  5760   0.323E-02 0.354E-03
CGA: 133    -0.222028038321E+03   -0.15831E-03   -0.26696E-03  5760   0.815E-03-0.304E-03
CGA: 134    -0.222028134438E+03   -0.96117E-04   -0.97643E-04  5760   0.195E-02-0.206E-03
CGA: 135    -0.222028227668E+03   -0.93230E-04   -0.80558E-04  5760   0.676E-03 0.173E-04
CGA: 136    -0.222028286206E+03   -0.58538E-04   -0.58790E-04  5760   0.111E-02 0.742E-05
CGA: 137    -0.222028345615E+03   -0.59408E-04   -0.60489E-04  5760   0.264E-03-0.728E-04
CGA: 138    -0.222028360770E+03   -0.15155E-04   -0.15612E-04  5760   0.368E-03 0.806E-05
CGA: 139    -0.222028393222E+03   -0.32453E-04   -0.33502E-04  5760   0.170E-03 0.243E-04
CGA: 140    -0.222028403004E+03   -0.97822E-05   -0.99583E-05  5760   0.180E-03 0.954E-05
CGA: 141    -0.222028420384E+03   -0.17380E-04   -0.17823E-04  5760   0.193E-03 0.549E-04
CGA: 142    -0.222028427930E+03   -0.75460E-05   -0.11708E-04  5760   0.122E-03 0.590E-05
CGA: 143    -0.222028443813E+03   -0.15883E-04   -0.15341E-04  5760   0.278E-03-0.420E-04
CGA: 144    -0.222028462099E+03   -0.18286E-04   -0.21898E-04  5760   0.426E-03-0.530E-05
CGA: 145    -0.222028467393E+03   -0.52937E-05   -0.18196E-04  5760   0.416E-03 0.240E-03
CGA: 146    -0.222028491884E+03   -0.24491E-04   -0.28729E-04  5760   0.228E-03-0.261E-05
CGA: 147    -0.222028511461E+03   -0.19577E-04   -0.19526E-04  5760   0.104E-03 0.367E-05
CGA: 148    -0.222028520307E+03   -0.88466E-05   -0.92872E-05  5760   0.657E-04 0.146E-04
CGA: 149    -0.222028528057E+03   -0.77494E-05   -0.77676E-05  5760   0.853E-04 0.192E-06
CGA: 150    -0.222028534002E+03   -0.59452E-05   -0.61179E-05  5760   0.432E-04 0.134E-04
CGA: 151    -0.222028539744E+03   -0.57424E-05   -0.53926E-05  5760   0.296E-04 0.195E-04
CGA: 152    -0.222028543709E+03   -0.39651E-05   -0.39813E-05  5760   0.554E-04 0.122E-04
CGA: 153    -0.222028547729E+03   -0.40200E-05   -0.51983E-05  5760   0.533E-04 0.378E-04
CGA: 154    -0.222028550543E+03   -0.28141E-05   -0.31551E-05  5760   0.318E-04-0.750E-06
CGA: 155    -0.222028553529E+03   -0.29857E-05   -0.29872E-05  5760   0.212E-04 0.197E-06
CGA: 156    -0.222028555763E+03   -0.22340E-05   -0.21748E-05  5760   0.320E-04 0.892E-05
CGA: 157    -0.222028560598E+03   -0.48354E-05   -0.46305E-05  5760   0.103E-04 0.172E-04
CGA: 158    -0.222028562074E+03   -0.14755E-05   -0.14459E-05  5760   0.337E-04 0.132E-05
CGA: 159    -0.222028563954E+03   -0.18805E-05   -0.25020E-05  5760   0.332E-04 0.179E-04
CGA: 160    -0.222028565197E+03   -0.12421E-05   -0.16645E-05  5760   0.117E-04-0.135E-05
CGA: 161    -0.222028567216E+03   -0.20192E-05   -0.21574E-05  5760   0.270E-04 0.157E-06
CGA: 162    -0.222028568707E+03   -0.14915E-05   -0.19557E-05  5760   0.203E-04 0.108E-04
CGA: 163    -0.222028572303E+03   -0.35961E-05   -0.32927E-05  5760   0.363E-04-0.257E-06
CGA: 164    -0.222028561525E+03    0.10779E-04   -0.12857E-04  5760   0.662E-03-0.192E-04
CGA: 165    -0.222028585198E+03   -0.23673E-04   -0.29014E-04  5760   0.156E-03-0.761E-04
CGA: 166    -0.222028594488E+03   -0.92905E-05   -0.10071E-04  5760   0.476E-05 0.472E-05
CGA: 167    -0.222028594798E+03   -0.30995E-06   -0.30667E-06  5760   0.605E-05-0.235E-06
CGA: 168    -0.222028597711E+03   -0.29125E-05   -0.25779E-05  5760   0.273E-04 0.145E-05
CGA: 169    -0.222028600415E+03   -0.27038E-05   -0.30138E-05  5760   0.449E-04-0.251E-05
CGA: 170    -0.222028577096E+03    0.23318E-04   -0.14727E-04  5760   0.106E-02-0.116E-03
CGA: 171    -0.222028611708E+03   -0.34612E-04   -0.39770E-04  5760   0.242E-03-0.711E-04
CGA: 172    -0.222028633358E+03   -0.21649E-04   -0.21564E-04  5760   0.564E-04-0.135E-05
CGA: 173    -0.222028636896E+03   -0.35387E-05   -0.36401E-05  5760   0.488E-04-0.166E-05
CGA: 174    -0.222028644356E+03   -0.74597E-05   -0.75611E-05  5760   0.129E-04 0.192E-05
CGA: 175    -0.222028645389E+03   -0.10331E-05   -0.11323E-05  5760   0.174E-04-0.448E-06
CGA: 176    -0.222028647009E+03   -0.16195E-05   -0.16801E-05  5760   0.453E-05 0.788E-06
CGA: 177    -0.222028648068E+03   -0.10590E-05   -0.10490E-05  5760   0.867E-05 0.475E-06
CGA: 178    -0.222028648575E+03   -0.50678E-06   -0.65108E-06  5760   0.617E-05-0.621E-06
CGA: 179    -0.222028650002E+03   -0.14272E-05   -0.14170E-05  5760   0.101E-04-0.455E-07
CGA: 180    -0.222028650588E+03   -0.58591E-06   -0.59354E-06  5760   0.705E-05 0.125E-05
CGA: 181    -0.222028652173E+03   -0.15857E-05   -0.15311E-05  5760   0.478E-05 0.244E-05
CGA: 182    -0.222028655448E+03   -0.32747E-05   -0.30336E-05  5760   0.119E-04 0.227E-05
CGA: 183    -0.222028656456E+03   -0.10081E-05   -0.15637E-05  5760   0.177E-04-0.816E-05
CGA: 184    -0.222028657203E+03   -0.74641E-06   -0.97496E-06  5760   0.102E-04-0.320E-05
CGA: 185    -0.222028658403E+03   -0.12000E-05   -0.12249E-05  5760   0.322E-05 0.390E-06
CGA: 186    -0.222028658936E+03   -0.53389E-06   -0.53012E-06  5760   0.919E-05-0.418E-06
   1 F= -.23095467E+03 E0= -.23094633E+03  d E =-.166609E-01  mag=     6.0000
