 running on   64 total cores
 distrk:  each k-point on   64 cores,    1 groups
 distr:  one band on    4 cores,   16 groups
 using from now: INCAR     
 vasp.5.4.4.18Apr17-6-g9f103f2a35 (build Nov 22 2021 14:44:17) complex          
  
 POSCAR found type information on POSCAR  Li Co O 
 POSCAR found :  3 types and      42 ions
 scaLAPACK will be used
 LDA part: xc-table for Pade appr. of Perdew
 generate k-points for:    6    6    2
 POSCAR, INCAR and KPOINTS ok, starting setup
 FFT: planning ...
 WAVECAR not read
 entering main loop
       N       E                     dE             d eps       ncg     rms          ort
DAV:   1     0.347382123777E+04    0.34738E+04   -0.13935E+05  5760   0.217E+03
DAV:   2     0.408609263749E+03   -0.30652E+04   -0.28282E+04  5760   0.529E+02
DAV:   3    -0.219784527882E+03   -0.62839E+03   -0.57436E+03  5760   0.253E+02
DAV:   4    -0.270875941776E+03   -0.51091E+02   -0.49980E+02  5760   0.744E+01
DAV:   5    -0.272726284250E+03   -0.18503E+01   -0.18466E+01  5760   0.140E+01
 gam= 0.000 g(H,U,f)=  0.202E+04 0.317E+04 0.741E+04 ort(H,U,f) = 0.000E+00 0.000E+00 0.000E+00
SDA:   6     0.213266259168E+03    0.48599E+03   -0.18466E+01  5760   0.126E+05 0.000E+00
 gam= 0.000 trial= 0.400  step= 0.118 mean= 0.400
 gam= 0.000 g(H,U,f)=  0.528E+04 0.845E+05 0.199E+06 ort(H,U,f) =-0.107E+04-0.176E+05-0.384E+05
CGA:   7     0.183880087930E+04    0.16255E+04   -0.74455E+03  5760   0.288E+06-0.571E+05
 gam= 0.000 trial= 0.386  step= 0.173 mean= 0.386
 gam= 0.638 g(H,U,f)=  0.239E+05 0.116E+06 0.435E+05 ort(H,U,f) =-0.803E+04-0.414E+05-0.174E+05
CGA:   8     0.102999624489E+05    0.84612E+04   -0.24960E+05  5760   0.184E+06-0.669E+05
 gam= 0.638 trial= 0.375  step= 0.197 mean= 0.375
 gam= 0.301 g(H,U,f)=  0.231E+05 0.301E+05 0.219E+04 ort(H,U,f) =-0.806E+04-0.369E+04-0.314E+03
CGA:   9     0.612185792303E+04   -0.41781E+04   -0.13890E+05  5760   0.553E+05-0.121E+05
 gam= 0.301 trial= 0.366  step= 0.145 mean= 0.366
 gam= 1.546 g(H,U,f)=  0.549E+05 0.301E+05 0.465E+03 ort(H,U,f) =-0.257E+04-0.719E+04-0.969E+02
CGA:  10     0.965472368649E+04    0.35329E+04   -0.37460E+04  5760   0.855E+05-0.986E+04
 gam= 1.546 trial= 0.355  step= 0.168 mean= 0.355
 gam= 1.498 g(H,U,f)=  0.110E+06 0.172E+05 0.391E+03 ort(H,U,f) =-0.766E+04-0.624E+04-0.357E+03
CGA:  11     0.877825453323E+04   -0.87647E+03   -0.58970E+04  5760   0.128E+06-0.143E+05
 gam= 1.498 trial= 0.346  step= 0.192 mean= 0.346
 gam= 1.214 g(H,U,f)=  0.130E+06 0.257E+05 0.214E+03 ort(H,U,f) = 0.181E+05-0.165E+03-0.221E+02
CGA:  12     0.737747317684E+04   -0.14008E+04   -0.10245E+05  5760   0.156E+06 0.179E+05
 gam= 1.214 trial= 0.338  step= 0.158 mean= 0.338
 gam= 0.338 g(H,U,f)=  0.481E+05 0.434E+04 0.787E+02 ort(H,U,f) =-0.160E+04 0.232E+04 0.951E+02
CGA:  13     0.450608507777E+04   -0.28714E+04   -0.14011E+05  5760   0.525E+05 0.812E+03
 gam= 0.338 trial= 0.329  step= 0.151 mean= 0.329
 gam= 0.316 g(H,U,f)=  0.157E+05 0.815E+03 0.235E+02 ort(H,U,f) =-0.946E+04-0.124E+04-0.106E+03
CGA:  14     0.293425650969E+04   -0.15718E+04   -0.39927E+04  5760   0.166E+05-0.108E+05
 gam= 0.316 trial= 0.320  step= 0.160 mean= 0.320
 gam= 0.461 g(H,U,f)=  0.701E+04 0.611E+03 0.940E+01 ort(H,U,f) =-0.160E+04-0.480E+02 0.142E+02
CGA:  15     0.221863796638E+04   -0.71562E+03   -0.10505E+04  5760   0.763E+04-0.163E+04
 gam= 0.461 trial= 0.312  step= 0.162 mean= 0.312
 gam= 0.451 g(H,U,f)=  0.316E+04 0.271E+03 0.103E+02 ort(H,U,f) = 0.378E+02-0.537E+02-0.196E+02
CGA:  16     0.173046185587E+04   -0.48818E+03   -0.55803E+03  5760   0.344E+04-0.355E+02
 gam= 0.451 trial= 0.305  step= 0.322 mean= 0.305
 gam= 0.868 g(H,U,f)=  0.261E+04 0.373E+03 0.209E+01 ort(H,U,f) = 0.356E+03 0.106E+03 0.180E+01
CGA:  17     0.117274882772E+04   -0.55771E+03   -0.55112E+03  5760   0.299E+04 0.464E+03
 gam= 0.868 trial= 0.306  step= 0.215 mean= 0.306
 gam= 0.538 g(H,U,f)=  0.136E+04 0.247E+03 0.250E+01 ort(H,U,f) = 0.591E+01 0.109E+03-0.203E+01
CGA:  18     0.823772222456E+03   -0.34898E+03   -0.36375E+03  5760   0.161E+04 0.113E+03
 gam= 0.538 trial= 0.301  step= 0.375 mean= 0.301
 gam= 1.118 g(H,U,f)=  0.125E+04 0.546E+03 0.436E+01 ort(H,U,f) =-0.286E+02 0.291E+03 0.255E+01
CGA:  19     0.498501851616E+03   -0.32527E+03   -0.31261E+03  5760   0.180E+04 0.265E+03
 gam= 1.118 trial= 0.305  step= 0.245 mean= 0.305
 gam= 1.289 g(H,U,f)=  0.106E+04 0.124E+04 0.140E+02 ort(H,U,f) =-0.385E+03 0.279E+03 0.350E+01
CGA:  20     0.227494992703E+03   -0.27101E+03   -0.25646E+03  5760   0.232E+04-0.102E+03
 gam= 1.289 trial= 0.302  step= 0.133 mean= 0.302
 gam= 0.245 g(H,U,f)=  0.359E+03 0.207E+03 0.306E+01 ort(H,U,f) =-0.228E+02-0.603E+03 0.263E+01
CGA:  21     0.122749838748E+03   -0.10475E+03   -0.14575E+03  5760   0.568E+03-0.623E+03
 gam= 0.245 trial= 0.293  step= 0.162 mean= 0.293
 gam= 0.805 g(H,U,f)=  0.297E+03 0.158E+03 0.167E+01 ort(H,U,f) = 0.166E+03-0.164E+03-0.156E+01
CGA:  22     0.916130634620E+02   -0.31137E+02   -0.33711E+02  5760   0.457E+03 0.330E-01
 gam= 0.805 trial= 0.287  step= 0.314 mean= 0.287
 gam= 0.732 g(H,U,f)=  0.178E+03 0.155E+03 0.209E+01 ort(H,U,f) = 0.130E+03-0.921E+02-0.283E+00
CGA:  23     0.191287947233E+02   -0.72484E+02   -0.71891E+02  5760   0.335E+03 0.379E+02
 gam= 0.732 trial= 0.288  step= 0.180 mean= 0.288
 gam= 0.810 g(H,U,f)=  0.133E+03 0.137E+03 0.147E+01 ort(H,U,f) = 0.906E+02-0.841E+02-0.134E+00
CGA:  24    -0.121909214139E+02   -0.31320E+02   -0.32567E+02  5760   0.271E+03 0.633E+01
 gam= 0.810 trial= 0.283  step= 0.298 mean= 0.283
 gam= 0.889 g(H,U,f)=  0.866E+02 0.152E+03 0.184E+01 ort(H,U,f) = 0.103E+02-0.316E+02-0.161E+00
CGA:  25    -0.530154868728E+02   -0.40825E+02   -0.41142E+02  5760   0.241E+03-0.214E+02
 gam= 0.889 trial= 0.284  step= 0.139 mean= 0.284
 gam= 0.523 g(H,U,f)=  0.657E+02 0.597E+02 0.658E+00 ort(H,U,f) =-0.628E+01 0.270E+02 0.398E+00
CGA:  26    -0.702777176041E+02   -0.17262E+02   -0.15402E+02  5760   0.126E+03 0.212E+02
 gam= 0.523 trial= 0.276  step= 0.288 mean= 0.276
 gam= 2.847 g(H,U,f)=  0.934E+02 0.260E+03 0.509E+01 ort(H,U,f) =-0.781E+01 0.151E+01-0.809E+00
CGA:  27    -0.899500483237E+02   -0.19672E+02   -0.19763E+02  5760   0.359E+03-0.711E+01
 gam= 2.847 trial= 0.277  step= 0.051 mean= 0.277
 gam= 0.000 g(H,U,f)=  0.958E+02 0.226E+03 0.368E+01 ort(H,U,f) = 0.125E+02 0.218E+03 0.568E+01
CGA:  28    -0.105901032936E+03   -0.15951E+02   -0.86433E+01  5760   0.325E+03 0.237E+03
 gam= 0.000 trial= 0.266  step= 0.077 mean= 0.266
 gam= 0.327 g(H,U,f)=  0.478E+02 0.578E+02 0.709E+00 ort(H,U,f) = 0.470E+02-0.262E+02-0.943E+00
CGA:  29    -0.119274792965E+03   -0.13374E+02   -0.12487E+02  5760   0.106E+03 0.198E+02
 gam= 0.327 trial= 0.256  step= 0.339 mean= 0.256
 gam= 1.474 g(H,U,f)=  0.472E+02 0.108E+03 0.141E+01 ort(H,U,f) = 0.168E+01-0.331E+01-0.321E+00
CGA:  30    -0.138209843887E+03   -0.18935E+02   -0.19085E+02  5760   0.157E+03-0.196E+01
 gam= 1.474 trial= 0.260  step= 0.326 mean= 0.260
 gam= 2.990 g(H,U,f)=  0.661E+02 0.394E+03 0.822E+01 ort(H,U,f) =-0.423E+02 0.363E+02-0.156E+01
CGA:  31    -0.162961390678E+03   -0.24752E+02   -0.25083E+02  5760   0.468E+03-0.750E+01
 gam= 2.990 trial= 0.264  step= 0.060 mean= 0.264
 gam= 0.352 g(H,U,f)=  0.625E+02 0.987E+02 0.344E+01 ort(H,U,f) =-0.203E+03 0.285E+03 0.321E+01
CGA:  32    -0.182689025123E+03   -0.19728E+02   -0.13280E+02  5760   0.165E+03 0.856E+02
 gam= 0.352 trial= 0.253  step= 0.058 mean= 0.253
 gam= 0.560 g(H,U,f)=  0.584E+02 0.326E+02 0.121E+01 ort(H,U,f) =-0.344E+02 0.710E+02-0.592E+00
CGA:  33    -0.189522847811E+03   -0.68338E+01   -0.56191E+01  5760   0.922E+02 0.360E+02
 gam= 0.560 trial= 0.244  step= 0.122 mean= 0.244
 gam= 1.738 g(H,U,f)=  0.491E+02 0.937E+02 0.174E+02 ort(H,U,f) = 0.109E+02-0.288E+01-0.121E+01
CGA:  34    -0.197003824002E+03   -0.74810E+01   -0.68527E+01  5760   0.160E+03 0.678E+01
 gam= 1.738 trial= 0.238  step= 0.059 mean= 0.238
 gam= 0.490 g(H,U,f)=  0.409E+02 0.332E+02 0.440E+01 ort(H,U,f) = 0.148E+02-0.345E+02 0.836E+01
CGA:  35    -0.201360572078E+03   -0.43567E+01   -0.50456E+01  5760   0.786E+02-0.113E+02
 gam= 0.490 trial= 0.229  step= 0.069 mean= 0.229
 gam= 1.165 g(H,U,f)=  0.361E+02 0.502E+02 0.512E+01 ort(H,U,f) = 0.292E+02-0.414E+02-0.685E+01
CGA:  36    -0.202977410720E+03   -0.16168E+01   -0.25315E+01  5760   0.915E+02-0.190E+02
 gam= 1.165 trial= 0.221  step= 0.073 mean= 0.221
 gam= 0.959 g(H,U,f)=  0.260E+02 0.546E+02 0.714E+01 ort(H,U,f) = 0.409E+02-0.378E+02-0.792E+01
CGA:  37    -0.205665341464E+03   -0.26879E+01   -0.25460E+01  5760   0.877E+02-0.481E+01
 gam= 0.959 trial= 0.213  step= 0.054 mean= 0.213
 gam= 0.549 g(H,U,f)=  0.137E+02 0.335E+02 0.105E+01 ort(H,U,f) = 0.369E+02-0.335E+02-0.588E+00
CGA:  38    -0.208008422228E+03   -0.23431E+01   -0.22578E+01  5760   0.482E+02 0.286E+01
 gam= 0.549 trial= 0.205  step= 0.055 mean= 0.205
 gam= 0.536 g(H,U,f)=  0.644E+01 0.178E+02 0.161E+01 ort(H,U,f) = 0.171E+02-0.172E+02-0.638E+00
CGA:  39    -0.209344643608E+03   -0.13362E+01   -0.13630E+01  5760   0.258E+02-0.680E+00
 gam= 0.536 trial= 0.198  step= 0.063 mean= 0.198
 gam= 0.623 g(H,U,f)=  0.437E+01 0.109E+02 0.809E+00 ort(H,U,f) = 0.640E+01-0.825E+01 0.264E+00
CGA:  40    -0.210040596303E+03   -0.69595E+00   -0.80125E+00  5760   0.161E+02-0.158E+01
 gam= 0.623 trial= 0.191  step= 0.084 mean= 0.191
 gam= 1.266 g(H,U,f)=  0.454E+01 0.153E+02 0.488E+00 ort(H,U,f) = 0.282E+01-0.276E+01-0.261E+00
CGA:  41    -0.210625867324E+03   -0.58527E+00   -0.63522E+00  5760   0.204E+02-0.195E+00
 gam= 1.266 trial= 0.186  step= 0.116 mean= 0.186
 gam= 1.217 g(H,U,f)=  0.589E+01 0.182E+02 0.708E+00 ort(H,U,f) =-0.312E+01 0.333E+01-0.229E-01
CGA:  42    -0.211806474939E+03   -0.11806E+01   -0.11712E+01  5760   0.248E+02 0.188E+00
 gam= 1.217 trial= 0.182  step= 0.087 mean= 0.182
 gam= 1.030 g(H,U,f)=  0.683E+01 0.183E+02 0.402E+00 ort(H,U,f) =-0.878E+01 0.888E+01-0.194E+00
CGA:  43    -0.212885283091E+03   -0.10788E+01   -0.10907E+01  5760   0.255E+02-0.961E-01
 gam= 1.030 trial= 0.177  step= 0.098 mean= 0.177
 gam= 0.830 g(H,U,f)=  0.701E+01 0.135E+02 0.707E+00 ort(H,U,f) =-0.144E+02 0.147E+02 0.106E+00
CGA:  44    -0.214117593601E+03   -0.12323E+01   -0.12396E+01  5760   0.212E+02 0.405E+00
 gam= 0.830 trial= 0.173  step= 0.056 mean= 0.173
 gam= 0.564 g(H,U,f)=  0.694E+01 0.489E+01 0.113E+00 ort(H,U,f) =-0.977E+01 0.125E+02-0.334E-01
CGA:  45    -0.214794139395E+03   -0.67655E+00   -0.59931E+00  5760   0.119E+02 0.266E+01
 gam= 0.564 trial= 0.168  step= 0.088 mean= 0.168
 gam= 1.733 g(H,U,f)=  0.730E+01 0.118E+02 0.160E+01 ort(H,U,f) =-0.101E+01 0.198E+01-0.643E+00
CGA:  46    -0.215392902925E+03   -0.59876E+00   -0.58824E+00  5760   0.207E+02 0.330E+00
 gam= 1.733 trial= 0.164  step= 0.093 mean= 0.164
 gam= 1.187 g(H,U,f)=  0.786E+01 0.141E+02 0.261E+01 ort(H,U,f) =-0.231E+01 0.263E+01 0.311E+00
CGA:  47    -0.216361490561E+03   -0.96859E+00   -0.98843E+00  5760   0.246E+02 0.630E+00
 gam= 1.187 trial= 0.160  step= 0.051 mean= 0.160
 gam= 0.594 g(H,U,f)=  0.757E+01 0.662E+01 0.394E+00 ort(H,U,f) =-0.177E+01-0.517E+00-0.537E+00
CGA:  48    -0.216875046945E+03   -0.51356E+00   -0.64856E+00  5760   0.146E+02-0.283E+01
 gam= 0.594 trial= 0.155  step= 0.072 mean= 0.155
 gam= 1.133 g(H,U,f)=  0.625E+01 0.797E+01 0.231E+01 ort(H,U,f) = 0.242E+01-0.343E+00-0.141E+01
CGA:  49    -0.217326501036E+03   -0.45145E+00   -0.46202E+00  5760   0.165E+02 0.666E+00
 gam= 1.133 trial= 0.150  step= 0.077 mean= 0.150
 gam= 0.844 g(H,U,f)=  0.436E+01 0.686E+01 0.273E+01 ort(H,U,f) = 0.167E+01-0.129E+01 0.416E+00
CGA:  50    -0.217975031987E+03   -0.64853E+00   -0.66818E+00  5760   0.140E+02 0.803E+00
 gam= 0.844 trial= 0.147  step= 0.045 mean= 0.147
 gam= 0.508 g(H,U,f)=  0.365E+01 0.324E+01 0.199E+00 ort(H,U,f) = 0.222E+01-0.159E+01 0.316E+00
CGA:  51    -0.218306026270E+03   -0.33099E+00   -0.33070E+00  5760   0.709E+01 0.937E+00
 gam= 0.508 trial= 0.142  step= 0.076 mean= 0.142
 gam= 1.465 g(H,U,f)=  0.320E+01 0.564E+01 0.155E+01 ort(H,U,f) = 0.272E+01-0.171E+01-0.890E+00
CGA:  52    -0.218558044015E+03   -0.25202E+00   -0.28609E+00  5760   0.104E+02 0.123E+00
 gam= 1.465 trial= 0.138  step= 0.072 mean= 0.138
 gam= 0.647 g(H,U,f)=  0.258E+01 0.351E+01 0.626E+00 ort(H,U,f) = 0.215E+01-0.181E+01 0.288E+00
CGA:  53    -0.218934061419E+03   -0.37602E+00   -0.38233E+00  5760   0.672E+01 0.620E+00
 gam= 0.647 trial= 0.135  step= 0.068 mean= 0.135
 gam= 1.019 g(H,U,f)=  0.250E+01 0.402E+01 0.321E+00 ort(H,U,f) = 0.172E+01-0.113E+01-0.532E+00
CGA:  54    -0.219152504045E+03   -0.21844E+00   -0.24053E+00  5760   0.685E+01 0.605E-01
 gam= 1.019 trial= 0.132  step= 0.097 mean= 0.132
 gam= 1.276 g(H,U,f)=  0.227E+01 0.566E+01 0.810E+00 ort(H,U,f) = 0.664E+00 0.300E+00-0.497E+00
CGA:  55    -0.219477351643E+03   -0.32485E+00   -0.33550E+00  5760   0.874E+01 0.466E+00
 gam= 1.276 trial= 0.130  step= 0.070 mean= 0.130
 gam= 0.525 g(H,U,f)=  0.174E+01 0.266E+01 0.190E+00 ort(H,U,f) =-0.168E+01 0.192E+01 0.228E-01
CGA:  56    -0.219785794357E+03   -0.30844E+00   -0.32448E+00  5760   0.459E+01 0.269E+00
 gam= 0.525 trial= 0.127  step= 0.078 mean= 0.127
 gam= 0.977 g(H,U,f)=  0.159E+01 0.243E+01 0.460E+00 ort(H,U,f) =-0.829E+00 0.123E+01-0.219E+00
CGA:  57    -0.219963691368E+03   -0.17790E+00   -0.18514E+00  5760   0.448E+01 0.179E+00
 gam= 0.977 trial= 0.125  step= 0.112 mean= 0.125
 gam= 1.061 g(H,U,f)=  0.160E+01 0.248E+01 0.673E+00 ort(H,U,f) =-0.132E+01 0.154E+01 0.488E-01
CGA:  58    -0.220222921739E+03   -0.25923E+00   -0.26173E+00  5760   0.475E+01 0.269E+00
 gam= 1.061 trial= 0.124  step= 0.096 mean= 0.124
 gam= 0.000 g(H,U,f)=  0.157E+01 0.159E+01 0.916E-01 ort(H,U,f) =-0.167E+01 0.188E+01 0.265E-01
SDA:  59    -0.220453615885E+03   -0.23069E+00   -0.24108E+00  5760   0.324E+01 0.235E+00
 gam= 0.000 trial= 0.123  step= 0.320 mean= 0.123
 gam= 1.226 g(H,U,f)=  0.987E+00 0.259E+01 0.407E+00 ort(H,U,f) = 0.459E+00-0.372E+00-0.175E+00
CGA:  60    -0.220973132237E+03   -0.51952E+00   -0.51994E+00  5760   0.398E+01-0.881E-01
 gam= 1.226 trial= 0.132  step= 0.244 mean= 0.132
 gam= 0.591 g(H,U,f)=  0.716E+00 0.160E+01 0.347E-01 ort(H,U,f) =-0.483E-01 0.327E+00-0.471E-01
CGA:  61    -0.221460943594E+03   -0.48781E+00   -0.47283E+00  5760   0.235E+01 0.232E+00
 gam= 0.591 trial= 0.138  step= 0.326 mean= 0.138
 gam= 0.699 g(H,U,f)=  0.420E+00 0.113E+01 0.981E-01 ort(H,U,f) =-0.384E+00 0.323E+00 0.194E-02
CGA:  62    -0.221862290519E+03   -0.40135E+00   -0.40596E+00  5760   0.164E+01-0.587E-01
 gam= 0.699 trial= 0.147  step= 0.193 mean= 0.147
 gam= 0.406 g(H,U,f)=  0.298E+00 0.362E+00 0.892E-02 ort(H,U,f) =-0.223E+00 0.317E+00-0.821E-02
CGA:  63    -0.222019982150E+03   -0.15769E+00   -0.15490E+00  5760   0.668E+00 0.853E-01
 gam= 0.406 trial= 0.150  step= 0.371 mean= 0.150
 gam= 0.973 g(H,U,f)=  0.228E+00 0.352E+00 0.694E-01 ort(H,U,f) =-0.403E-01 0.111E+00-0.840E-02
CGA:  64    -0.222156817331E+03   -0.13684E+00   -0.13031E+00  5760   0.650E+00 0.618E-01
 gam= 0.973 trial= 0.161  step= 0.340 mean= 0.161
 gam= 1.057 g(H,U,f)=  0.227E+00 0.419E+00 0.416E-01 ort(H,U,f) =-0.984E-01 0.783E-01-0.752E-02
CGA:  65    -0.222275377523E+03   -0.11856E+00   -0.12086E+00  5760   0.687E+00-0.276E-01
 gam= 1.057 trial= 0.170  step= 0.280 mean= 0.170
 gam= 0.854 g(H,U,f)=  0.181E+00 0.369E+00 0.373E-01 ort(H,U,f) =-0.101E+00 0.139E+00-0.527E-01
CGA:  66    -0.222369723086E+03   -0.94346E-01   -0.91982E-01  5760   0.587E+00-0.149E-01
 gam= 0.854 trial= 0.175  step= 0.278 mean= 0.175
 gam= 0.654 g(H,U,f)=  0.174E+00 0.206E+00 0.402E-02 ort(H,U,f) =-0.935E-01 0.146E+00-0.713E-02
CGA:  67    -0.222452435031E+03   -0.82712E-01   -0.79631E-01  5760   0.384E+00 0.450E-01
 gam= 0.654 trial= 0.180  step= 0.475 mean= 0.180
 gam= 1.149 g(H,U,f)=  0.155E+00 0.273E+00 0.124E-01 ort(H,U,f) =-0.420E-01 0.518E-01 0.293E-02
CGA:  68    -0.222551764794E+03   -0.99330E-01   -0.98078E-01  5760   0.441E+00 0.127E-01
 gam= 1.149 trial= 0.195  step= 0.266 mean= 0.195
 gam= 0.653 g(H,U,f)=  0.108E+00 0.174E+00 0.528E-02 ort(H,U,f) =-0.619E-01 0.861E-01-0.976E-02
CGA:  69    -0.222613768678E+03   -0.62004E-01   -0.60615E-01  5760   0.288E+00 0.144E-01
 gam= 0.653 trial= 0.199  step= 0.452 mean= 0.199
 gam= 1.322 g(H,U,f)=  0.138E+00 0.223E+00 0.202E-01 ort(H,U,f) =-0.613E-01 0.702E-01-0.206E-02
CGA:  70    -0.222682331805E+03   -0.68563E-01   -0.67213E-01  5760   0.381E+00 0.691E-02
 gam= 1.322 trial= 0.211  step= 0.284 mean= 0.211
 gam= 0.572 g(H,U,f)=  0.118E+00 0.985E-01 0.108E-02 ort(H,U,f) =-0.667E-01 0.884E-01-0.857E-03
CGA:  71    -0.222738865019E+03   -0.56533E-01   -0.55365E-01  5760   0.218E+00 0.209E-01
 gam= 0.572 trial= 0.215  step= 0.467 mean= 0.215
 gam= 0.802 g(H,U,f)=  0.873E-01 0.862E-01 0.103E-02 ort(H,U,f) =-0.278E-01 0.373E-01-0.363E-03
CGA:  72    -0.222793685812E+03   -0.54821E-01   -0.53601E-01  5760   0.174E+00 0.919E-02
 gam= 0.802 trial= 0.228  step= 0.330 mean= 0.228
 gam= 0.859 g(H,U,f)=  0.588E-01 0.904E-01 0.634E-03 ort(H,U,f) =-0.209E-01 0.204E-01-0.185E-03
CGA:  73    -0.222823694644E+03   -0.30009E-01   -0.30005E-01  5760   0.150E+00-0.705E-03
 gam= 0.859 trial= 0.233  step= 0.417 mean= 0.233
 gam= 0.736 g(H,U,f)=  0.476E-01 0.627E-01 0.487E-04 ort(H,U,f) =-0.316E-01 0.328E-01 0.395E-04
CGA:  74    -0.222854945457E+03   -0.31251E-01   -0.31126E-01  5760   0.110E+00 0.121E-02
 gam= 0.736 trial= 0.242  step= 0.498 mean= 0.242
 gam= 1.579 g(H,U,f)=  0.687E-01 0.104E+00 0.893E-03 ort(H,U,f) =-0.161E-01 0.206E-01-0.143E-04
CGA:  75    -0.222883175065E+03   -0.28230E-01   -0.27662E-01  5760   0.174E+00 0.449E-02
 gam= 1.579 trial= 0.255  step= 0.496 mean= 0.255
 gam= 1.688 g(H,U,f)=  0.115E+00 0.179E+00 0.170E-03 ort(H,U,f) =-0.821E-01 0.449E-01 0.170E-03
CGA:  76    -0.222923828104E+03   -0.40653E-01   -0.44977E-01  5760   0.294E+00-0.370E-01
 gam= 1.688 trial= 0.267  step= 0.242 mean= 0.267
 gam= 1.455 g(H,U,f)=  0.165E+00 0.263E+00 0.449E-06 ort(H,U,f) =-0.111E+00 0.960E-01-0.126E-05
CGA:  77    -0.222952356470E+03   -0.28528E-01   -0.28029E-01  5760   0.428E+00-0.155E-01
 gam= 1.455 trial= 0.266  step= 0.154 mean= 0.266
 gam= 0.944 g(H,U,f)=  0.162E+00 0.242E+00 0.478E-07 ort(H,U,f) =-0.979E-01 0.104E+00 0.152E-06
CGA:  78    -0.222983872421E+03   -0.31516E-01   -0.31295E-01  5760   0.404E+00 0.571E-02
 gam= 0.944 trial= 0.260  step= 0.164 mean= 0.260
 gam= 0.773 g(H,U,f)=  0.145E+00 0.167E+00 0.138E-04 ort(H,U,f) =-0.457E-01 0.481E-01-0.390E-05
CGA:  79    -0.223015348415E+03   -0.31476E-01   -0.33533E-01  5760   0.312E+00 0.245E-02
 gam= 0.773 trial= 0.255  step= 0.211 mean= 0.255
 gam= 0.736 g(H,U,f)=  0.117E+00 0.112E+00 0.116E-03 ort(H,U,f) =-0.573E-02 0.200E-01 0.118E-03
CGA:  80    -0.223047668502E+03   -0.32320E-01   -0.33218E-01  5760   0.230E+00 0.144E-01
 gam= 0.736 trial= 0.253  step= 0.271 mean= 0.253
 gam= 0.692 g(H,U,f)=  0.736E-01 0.854E-01 0.442E-04 ort(H,U,f) =-0.526E-02 0.114E-01 0.114E-03
CGA:  81    -0.223080255026E+03   -0.32587E-01   -0.32499E-01  5760   0.159E+00 0.628E-02
 gam= 0.692 trial= 0.254  step= 0.303 mean= 0.254
 gam= 0.920 g(H,U,f)=  0.576E-01 0.886E-01 0.752E-05 ort(H,U,f) =-0.141E-01 0.146E-01-0.220E-05
CGA:  82    -0.223105011913E+03   -0.24757E-01   -0.24755E-01  5760   0.146E+00 0.403E-03
 gam= 0.920 trial= 0.256  step= 0.338 mean= 0.256
 gam= 0.917 g(H,U,f)=  0.511E-01 0.831E-01 0.127E-05 ort(H,U,f) =-0.331E-01 0.347E-01 0.293E-05
CGA:  83    -0.223129850844E+03   -0.24839E-01   -0.24761E-01  5760   0.134E+00 0.163E-02
 gam= 0.917 trial= 0.260  step= 0.271 mean= 0.260
 gam= 0.703 g(H,U,f)=  0.467E-01 0.476E-01 0.573E-05 ort(H,U,f) =-0.295E-01 0.310E-01-0.985E-05
CGA:  84    -0.223148248172E+03   -0.18397E-01   -0.18385E-01  5760   0.944E-01 0.150E-02
 gam= 0.703 trial= 0.261  step= 0.365 mean= 0.261
 gam= 1.133 g(H,U,f)=  0.433E-01 0.636E-01 0.274E-04 ort(H,U,f) =-0.908E-02 0.102E-01-0.939E-05
CGA:  85    -0.223165762039E+03   -0.17514E-01   -0.17438E-01  5760   0.107E+00 0.116E-02
 gam= 1.133 trial= 0.266  step= 0.319 mean= 0.266
 gam= 0.767 g(H,U,f)=  0.380E-01 0.441E-01 0.125E-04 ort(H,U,f) =-0.202E-01 0.200E-01 0.207E-05
CGA:  86    -0.223183025536E+03   -0.17263E-01   -0.17273E-01  5760   0.821E-01-0.220E-03
 gam= 0.767 trial= 0.269  step= 0.351 mean= 0.269
 gam= 1.116 g(H,U,f)=  0.445E-01 0.471E-01 0.702E-05 ort(H,U,f) =-0.156E-01 0.154E-01 0.105E-04
CGA:  87    -0.223197369548E+03   -0.14344E-01   -0.14367E-01  5760   0.916E-01-0.260E-03
 gam= 1.116 trial= 0.273  step= 0.351 mean= 0.273
 gam= 0.888 g(H,U,f)=  0.432E-01 0.382E-01 0.397E-05 ort(H,U,f) =-0.161E-01 0.163E-01-0.132E-04
CGA:  88    -0.223213387236E+03   -0.16018E-01   -0.16015E-01  5760   0.814E-01 0.225E-03
 gam= 0.888 trial= 0.277  step= 0.300 mean= 0.277
 gam= 0.777 g(H,U,f)=  0.304E-01 0.327E-01 0.868E-05 ort(H,U,f) =-0.104E-01 0.110E-01-0.944E-05
CGA:  89    -0.223225618629E+03   -0.12231E-01   -0.12221E-01  5760   0.632E-01 0.630E-03
 gam= 0.777 trial= 0.278  step= 0.336 mean= 0.278
 gam= 0.000 g(H,U,f)=  0.269E-01 0.272E-01 0.315E-05 ort(H,U,f) =-0.961E-02 0.986E-02 0.245E-06
SDA:  90    -0.223236336212E+03   -0.10718E-01   -0.10706E-01  5760   0.541E-01 0.244E-03
 gam= 0.000 trial= 0.281  step= 0.515 mean= 0.281
 gam= 0.822 g(H,U,f)=  0.179E-01 0.265E-01 0.699E-06 ort(H,U,f) =-0.138E-02 0.140E-02 0.227E-05
CGA:  91    -0.223250261267E+03   -0.13925E-01   -0.13923E-01  5760   0.445E-01 0.206E-04
 gam= 0.822 trial= 0.293  step= 0.670 mean= 0.293
 gam= 0.399 g(H,U,f)=  0.946E-02 0.828E-02 0.150E-06 ort(H,U,f) =-0.974E-02 0.987E-02-0.202E-06
CGA:  92    -0.223265177711E+03   -0.14916E-01   -0.14892E-01  5760   0.177E-01 0.129E-03
 gam= 0.399 trial= 0.311  step= 0.548 mean= 0.311
 gam= 0.812 g(H,U,f)=  0.582E-02 0.858E-02 0.372E-09 ort(H,U,f) =-0.158E-02 0.151E-02 0.473E-09
CGA:  93    -0.223270045257E+03   -0.48675E-02   -0.48765E-02  5760   0.144E-01-0.726E-04
 gam= 0.812 trial= 0.323  step= 0.467 mean= 0.323
 gam= 0.414 g(H,U,f)=  0.322E-02 0.274E-02 0.191E-07 ort(H,U,f) =-0.158E-02 0.158E-02 0.965E-08
CGA:  94    -0.223273392706E+03   -0.33474E-02   -0.33472E-02  5760   0.596E-02 0.587E-05
 gam= 0.414 trial= 0.330  step= 0.639 mean= 0.330
 gam= 0.682 g(H,U,f)=  0.204E-02 0.203E-02 0.314E-09 ort(H,U,f) =-0.520E-03 0.531E-03-0.682E-09
CGA:  95    -0.223275301475E+03   -0.19088E-02   -0.19069E-02  5760   0.407E-02 0.117E-04
 gam= 0.682 trial= 0.346  step= 0.634 mean= 0.346
 gam= 0.618 g(H,U,f)=  0.100E-02 0.151E-02 0.622E-09 ort(H,U,f) =-0.879E-03 0.852E-03 0.156E-09
CGA:  96    -0.223276589343E+03   -0.12879E-02   -0.12917E-02  5760   0.251E-02-0.265E-04
 gam= 0.618 trial= 0.360  step= 0.943 mean= 0.360
 gam= 1.174 g(H,U,f)=  0.137E-02 0.158E-02 0.413E-09 ort(H,U,f) =-0.614E-03 0.627E-03 0.424E-09
CGA:  97    -0.223277770487E+03   -0.11811E-02   -0.11775E-02  5760   0.295E-02 0.131E-04
 gam= 1.174 trial= 0.389  step= 0.745 mean= 0.389
 gam= 0.853 g(H,U,f)=  0.135E-02 0.117E-02 0.698E-09 ort(H,U,f) =-0.699E-03 0.690E-03-0.659E-10
CGA:  98    -0.223278874002E+03   -0.11035E-02   -0.11051E-02  5760   0.252E-02-0.880E-05
 gam= 0.853 trial= 0.407  step= 0.720 mean= 0.407
 gam= 0.738 g(H,U,f)=  0.780E-03 0.108E-02 0.583E-08 ort(H,U,f) =-0.256E-03 0.250E-03-0.530E-08
CGA:  99    -0.223279776721E+03   -0.90272E-03   -0.90360E-03  5760   0.186E-02-0.620E-05
 gam= 0.738 trial= 0.423  step= 0.565 mean= 0.423
 gam= 0.544 g(H,U,f)=  0.469E-03 0.541E-03 0.381E-08 ort(H,U,f) =-0.147E-03 0.150E-03 0.209E-08
CGA: 100    -0.223280300307E+03   -0.52359E-03   -0.52337E-03  5760   0.101E-02 0.317E-05
 gam= 0.544 trial= 0.430  step= 0.761 mean= 0.430
 gam= 0.807 g(H,U,f)=  0.370E-03 0.446E-03 0.234E-08 ort(H,U,f) =-0.168E-03 0.177E-03 0.320E-08
CGA: 101    -0.223280686695E+03   -0.38639E-03   -0.38497E-03  5760   0.816E-03 0.865E-05
 gam= 0.807 trial= 0.446  step= 0.693 mean= 0.446
 gam= 0.911 g(H,U,f)=  0.320E-03 0.423E-03 0.296E-08 ort(H,U,f) =-0.153E-03 0.145E-03-0.206E-08
CGA: 102    -0.223280970810E+03   -0.28411E-03   -0.28502E-03  5760   0.743E-03-0.741E-05
 gam= 0.911 trial= 0.459  step= 0.818 mean= 0.459
 gam= 0.929 g(H,U,f)=  0.297E-03 0.394E-03 0.424E-10 ort(H,U,f) =-0.188E-03 0.191E-03-0.118E-09
CGA: 103    -0.223281272717E+03   -0.30191E-03   -0.30133E-03  5760   0.691E-03 0.326E-05
 gam= 0.929 trial= 0.477  step= 0.589 mean= 0.477
 gam= 1.037 g(H,U,f)=  0.297E-03 0.419E-03 0.105E-09 ort(H,U,f) =-0.106E-03 0.111E-03 0.143E-09
CGA: 104    -0.223281477115E+03   -0.20440E-03   -0.20412E-03  5760   0.716E-03 0.502E-05
 gam= 1.037 trial= 0.482  step= 0.812 mean= 0.482
 gam= 0.894 g(H,U,f)=  0.290E-03 0.350E-03 0.667E-10 ort(H,U,f) =-0.153E-03 0.148E-03 0.133E-09
CGA: 105    -0.223281769084E+03   -0.29197E-03   -0.29289E-03  5760   0.640E-03-0.567E-05
 gam= 0.894 trial= 0.499  step= 0.804 mean= 0.499
 gam= 0.888 g(H,U,f)=  0.260E-03 0.308E-03 0.105E-09 ort(H,U,f) =-0.135E-03 0.134E-03-0.147E-09
CGA: 106    -0.223282024136E+03   -0.25505E-03   -0.25529E-03  5760   0.568E-03-0.148E-05
 gam= 0.888 trial= 0.514  step= 1.012 mean= 0.514
 gam= 1.133 g(H,U,f)=  0.291E-03 0.352E-03 0.205E-10 ort(H,U,f) =-0.120E-03 0.123E-03-0.341E-11
CGA: 107    -0.223282311662E+03   -0.28753E-03   -0.28679E-03  5760   0.644E-03 0.297E-05
 gam= 1.133 trial= 0.539  step= 0.685 mean= 0.539
 gam= 0.706 g(H,U,f)=  0.212E-03 0.243E-03 0.226E-09 ort(H,U,f) =-0.122E-03 0.119E-03 0.460E-10
CGA: 108    -0.223282533011E+03   -0.22135E-03   -0.22154E-03  5760   0.454E-03-0.254E-05
 gam= 0.706 trial= 0.546  step= 0.687 mean= 0.546
 gam= 0.831 g(H,U,f)=  0.178E-03 0.199E-03 0.300E-11 ort(H,U,f) =-0.316E-04 0.307E-04-0.103E-10
CGA: 109    -0.223282688347E+03   -0.15534E-03   -0.15539E-03  5760   0.378E-03-0.842E-06
 gam= 0.831 trial= 0.553  step= 0.561 mean= 0.553
 gam= 0.506 g(H,U,f)=  0.101E-03 0.900E-04 0.906E-11 ort(H,U,f) =-0.165E-04 0.214E-04 0.358E-10
CGA: 110    -0.223282793992E+03   -0.10564E-03   -0.10563E-03  5760   0.191E-03 0.491E-05
 gam= 0.506 trial= 0.554  step= 0.592 mean= 0.554
 gam= 0.594 g(H,U,f)=  0.466E-04 0.668E-04 0.122E-10 ort(H,U,f) =-0.229E-05 0.205E-05 0.280E-10
CGA: 111    -0.223282851226E+03   -0.57235E-04   -0.57240E-04  5760   0.113E-03-0.246E-06
 gam= 0.594 trial= 0.556  step= 0.550 mean= 0.556
 gam= 0.662 g(H,U,f)=  0.275E-04 0.477E-04 0.728E-10 ort(H,U,f) =-0.552E-05 0.526E-05-0.738E-10
CGA: 112    -0.223282882381E+03   -0.31154E-04   -0.31153E-04  5760   0.751E-04-0.255E-06
 gam= 0.662 trial= 0.555  step= 0.642 mean= 0.555
 gam= 0.700 g(H,U,f)=  0.230E-04 0.296E-04 0.216E-10 ort(H,U,f) =-0.100E-04 0.111E-04-0.962E-11
CGA: 113    -0.223282906476E+03   -0.24095E-04   -0.24052E-04  5760   0.526E-04 0.101E-05
 gam= 0.700 trial= 0.560  step= 0.791 mean= 0.560
 gam= 0.720 g(H,U,f)=  0.180E-04 0.199E-04 0.162E-10 ort(H,U,f) =-0.992E-05 0.965E-05-0.132E-10
CGA: 114    -0.223282927524E+03   -0.21048E-04   -0.21081E-04  5760   0.379E-04-0.274E-06
 gam= 0.720 trial= 0.571  step= 0.912 mean= 0.571
 gam= 0.927 g(H,U,f)=  0.183E-04 0.168E-04 0.715E-11 ort(H,U,f) =-0.795E-05 0.689E-05-0.382E-11
CGA: 115    -0.223282944538E+03   -0.17014E-04   -0.17194E-04  5760   0.351E-04-0.106E-05
 gam= 0.927 trial= 0.588  step= 0.745 mean= 0.588
 gam= 0.716 g(H,U,f)=  0.123E-04 0.129E-04 0.443E-11 ort(H,U,f) =-0.635E-05 0.700E-05 0.602E-12
CGA: 116    -0.223282957314E+03   -0.12776E-04   -0.12725E-04  5760   0.251E-04 0.651E-06
 gam= 0.716 trial= 0.596  step= 0.765 mean= 0.596
 gam= 1.197 g(H,U,f)=  0.104E-04 0.197E-04 0.460E-11 ort(H,U,f) =-0.351E-05 0.340E-05-0.419E-11
CGA: 117    -0.223282967101E+03   -0.97867E-05   -0.97964E-05  5760   0.301E-04-0.112E-06
 gam= 1.197 trial= 0.605  step= 0.627 mean= 0.605
 gam= 0.787 g(H,U,f)=  0.108E-04 0.129E-04 0.503E-11 ort(H,U,f) =-0.688E-05 0.636E-05-0.502E-11
CGA: 118    -0.223282976482E+03   -0.93810E-05   -0.93870E-05  5760   0.237E-04-0.528E-06
 gam= 0.787 trial= 0.606  step= 0.816 mean= 0.606
 gam= 1.094 g(H,U,f)=  0.109E-04 0.150E-04 0.173E-12 ort(H,U,f) =-0.460E-05 0.433E-05-0.138E-12
CGA: 119    -0.223282985942E+03   -0.94602E-05   -0.94895E-05  5760   0.259E-04-0.273E-06
 gam= 1.094 trial= 0.616  step= 0.651 mean= 0.616
 gam= 0.635 g(H,U,f)=  0.912E-05 0.733E-05 0.763E-12 ort(H,U,f) =-0.474E-05 0.514E-05 0.231E-12
CGA: 120    -0.223282994282E+03   -0.83402E-05   -0.83333E-05  5760   0.165E-04 0.393E-06
 gam= 0.635 trial= 0.618  step= 0.857 mean= 0.618
 gam= 0.000 g(H,U,f)=  0.750E-05 0.116E-04 0.635E-11 ort(H,U,f) =-0.117E-05 0.864E-06-0.323E-11
SDA: 121    -0.223283001407E+03   -0.71244E-05   -0.71608E-05  5760   0.191E-04-0.304E-06
 gam= 0.000 trial= 0.630  step= 0.312 mean= 0.630
 gam= 0.312 g(H,U,f)=  0.260E-05 0.335E-05 0.166E-11 ort(H,U,f) = 0.178E-05-0.142E-05 0.185E-11
CGA: 122    -0.223283004326E+03   -0.29192E-05   -0.29764E-05  5760   0.595E-05 0.359E-06
 gam= 0.312 trial= 0.614  step= 0.950 mean= 0.614
 gam= 1.257 g(H,U,f)=  0.255E-05 0.493E-05 0.640E-12 ort(H,U,f) =-0.776E-06 0.648E-06 0.123E-11
CGA: 123    -0.223283007186E+03   -0.28596E-05   -0.28808E-05  5760   0.748E-05-0.128E-06
 gam= 1.257 trial= 0.631  step= 0.621 mean= 0.631
 gam= 0.658 g(H,U,f)=  0.246E-05 0.247E-05 0.551E-12 ort(H,U,f) =-0.204E-05 0.193E-05-0.710E-12
CGA: 124    -0.223283009458E+03   -0.22728E-05   -0.22723E-05  5760   0.493E-05-0.115E-06
 gam= 0.658 trial= 0.630  step= 0.752 mean= 0.630
 gam= 1.161 g(H,U,f)=  0.207E-05 0.365E-05 0.101E-11 ort(H,U,f) =-0.104E-05 0.111E-05-0.120E-11
CGA: 125    -0.223283011287E+03   -0.18291E-05   -0.18249E-05  5760   0.572E-05 0.696E-07
 gam= 1.161 trial= 0.636  step= 0.645 mean= 0.636
 gam= 0.875 g(H,U,f)=  0.252E-05 0.249E-05 0.515E-12 ort(H,U,f) =-0.161E-05 0.167E-05 0.626E-12
CGA: 126    -0.223283013160E+03   -0.18727E-05   -0.18726E-05  5760   0.501E-05 0.635E-07
 gam= 0.875 trial= 0.637  step= 1.183 mean= 0.637
 gam= 1.511 g(H,U,f)=  0.373E-05 0.384E-05 0.187E-10 ort(H,U,f) =-0.147E-05 0.125E-05-0.101E-10
CGA: 127    -0.223283016097E+03   -0.29369E-05   -0.29956E-05  5760   0.757E-05-0.214E-06
 gam= 1.511 trial= 0.664  step= 0.799 mean= 0.664
 gam= 0.798 g(H,U,f)=  0.345E-05 0.259E-05 0.627E-11 ort(H,U,f) =-0.194E-05 0.195E-05-0.757E-11
CGA: 128    -0.223283018993E+03   -0.28956E-05   -0.28948E-05  5760   0.604E-05 0.803E-08
 gam= 0.798 trial= 0.671  step= 1.086 mean= 0.671
 gam= 1.099 g(H,U,f)=  0.323E-05 0.341E-05 0.276E-10 ort(H,U,f) =-0.135E-05 0.146E-05-0.121E-11
CGA: 129    -0.223283022302E+03   -0.33092E-05   -0.32866E-05  5760   0.664E-05 0.109E-06
 gam= 1.099 trial= 0.692  step= 0.913 mean= 0.692
 gam= 1.202 g(H,U,f)=  0.367E-05 0.431E-05 0.150E-10 ort(H,U,f) =-0.206E-05 0.150E-05 0.160E-10
CGA: 130    -0.223283025326E+03   -0.30242E-05   -0.30874E-05  5760   0.798E-05-0.568E-06
 gam= 1.202 trial= 0.703  step= 0.862 mean= 0.703
 gam= 1.413 g(H,U,f)=  0.462E-05 0.666E-05 0.734E-10 ort(H,U,f) =-0.212E-05 0.192E-05-0.983E-10
CGA: 131    -0.223283028455E+03   -0.31293E-05   -0.31452E-05  5760   0.113E-04-0.197E-06
 gam= 1.413 trial= 0.711  step= 0.611 mean= 0.711
 gam= 0.795 g(H,U,f)=  0.482E-05 0.415E-05 0.346E-10 ort(H,U,f) =-0.245E-05 0.254E-05-0.825E-10
CGA: 132    -0.223283031812E+03   -0.33571E-05   -0.33615E-05  5760   0.897E-05 0.904E-07
 gam= 0.795 trial= 0.706  step= 0.999 mean= 0.706
 gam= 1.222 g(H,U,f)=  0.522E-05 0.575E-05 0.911E-10 ort(H,U,f) =-0.209E-05 0.141E-05-0.192E-10
CGA: 133    -0.223283036231E+03   -0.44185E-05   -0.45178E-05  5760   0.110E-04-0.678E-06
 gam= 1.222 trial= 0.720  step= 0.628 mean= 0.720
 gam= 0.617 g(H,U,f)=  0.398E-05 0.279E-05 0.345E-09 ort(H,U,f) =-0.185E-05 0.199E-05-0.175E-09
CGA: 134    -0.223283039407E+03   -0.31761E-05   -0.31825E-05  5760   0.677E-05 0.146E-06
 gam= 0.617 trial= 0.716  step= 0.682 mean= 0.716
 gam= 0.833 g(H,U,f)=  0.261E-05 0.303E-05 0.101E-10 ort(H,U,f) =-0.298E-06 0.571E-06-0.109E-10
CGA: 135    -0.223283041742E+03   -0.23351E-05   -0.23397E-05  5760   0.564E-05 0.273E-06
 gam= 0.833 trial= 0.714  step= 0.712 mean= 0.714
 gam= 0.651 g(H,U,f)=  0.191E-05 0.176E-05 0.160E-13 ort(H,U,f) =-0.112E-05 0.722E-06-0.388E-13
CGA: 136    -0.223283043831E+03   -0.20891E-05   -0.20887E-05  5760   0.367E-05-0.397E-06
 gam= 0.651 trial= 0.714  step= 0.685 mean= 0.714
 gam= 0.641 g(H,U,f)=  0.134E-05 0.101E-05 0.529E-12 ort(H,U,f) =-0.441E-06 0.605E-06 0.861E-13
CGA: 137    -0.223283044998E+03   -0.11670E-05   -0.11695E-05  5760   0.235E-05 0.164E-06
 gam= 0.641 trial= 0.713  step= 0.873 mean= 0.713
 gam= 0.758 g(H,U,f)=  0.931E-06 0.853E-06 0.593E-12 ort(H,U,f) =-0.364E-06 0.581E-06 0.648E-12
CGA: 138    -0.223283046088E+03   -0.10898E-05   -0.10723E-05  5760   0.178E-05 0.217E-06
 gam= 0.758 trial= 0.721  step= 0.869 mean= 0.721
 gam= 1.262 g(H,U,f)=  0.105E-05 0.120E-05 0.502E-11 ort(H,U,f) =-0.501E-06 0.289E-06-0.330E-11
CGA: 139    -0.223283046919E+03   -0.83071E-06   -0.84651E-06  5760   0.225E-05-0.212E-06
 gam= 1.262 trial= 0.728  step= 0.731 mean= 0.728
 final diagonalization
   1 F= -.23272437E+03 E0= -.23272437E+03  d E =-.328306E-06  mag=     6.0000
