 running on   64 total cores
 distrk:  each k-point on   64 cores,    1 groups
 distr:  one band on    4 cores,   16 groups
 using from now: INCAR     
 vasp.5.4.4.18Apr17-6-g9f103f2a35 (build Nov 22 2021 14:44:17) complex          
  
 POSCAR found type information on POSCAR  Li Co O 
 POSCAR found :  3 types and      42 ions
 scaLAPACK will be used
 LDA part: xc-table for Pade appr. of Perdew
 generate k-points for:    6    6    2
 POSCAR, INCAR and KPOINTS ok, starting setup
 FFT: planning ...
 WAVECAR not read
 entering main loop
       N       E                     dE             d eps       ncg     rms          ort
DAV:   1     0.349324399670E+04    0.34932E+04   -0.13935E+05  5760   0.220E+03
DAV:   2     0.396149683076E+03   -0.30971E+04   -0.28514E+04  5760   0.539E+02
DAV:   3    -0.223498744800E+03   -0.61965E+03   -0.56373E+03  5760   0.254E+02
DAV:   4    -0.272227977005E+03   -0.48729E+02   -0.47784E+02  5760   0.734E+01
DAV:   5    -0.273859778306E+03   -0.16318E+01   -0.16293E+01  5760   0.133E+01
 gam= 0.000 g(H,U,f)=  0.180E+04 0.132E+04 0.394E+04 ort(H,U,f) = 0.000E+00 0.000E+00 0.000E+00
SDA:   6     0.116704805710E+03    0.39056E+03   -0.16293E+01  5760   0.706E+04 0.000E+00
 gam= 0.000 trial= 0.400  step= 0.089 mean= 0.400
 gam= 0.577 g(H,U,f)=  0.853E+03 0.124E+04 0.198E+04 ort(H,U,f) = 0.825E+03 0.153E+03-0.650E+03
CGA:   7     0.288376271615E+01   -0.11382E+03   -0.31509E+03  5760   0.408E+04 0.328E+03
 gam= 0.577 trial= 0.384  step= 0.069 mean= 0.384
 gam= 0.000 g(H,U,f)=  0.371E+03 0.387E+04 0.248E+04 ort(H,U,f) = 0.503E+03 0.165E+04 0.766E+03
CGA:   8    -0.829994932824E+02   -0.85883E+02   -0.14735E+03  5760   0.671E+04 0.292E+04
 gam= 0.000 trial= 0.369  step= 0.085 mean= 0.369
 gam= 0.221 g(H,U,f)=  0.233E+03 0.874E+03 0.373E+03 ort(H,U,f) =-0.127E+03-0.418E+03-0.410E+02
CGA:   9    -0.134358954265E+03   -0.51359E+02   -0.28631E+03  5760   0.148E+04-0.586E+03
 gam= 0.221 trial= 0.355  step= 0.038 mean= 0.355
 gam= 0.794 g(H,U,f)=  0.170E+03 0.492E+03 0.515E+03 ort(H,U,f) = 0.142E+03 0.215E+02-0.342E+03
CGA:  10    -0.151041269949E+03   -0.16682E+02   -0.25798E+02  5760   0.118E+04-0.178E+03
 gam= 0.794 trial= 0.339  step= 0.009 mean= 0.339
 gam= 0.000 g(H,U,f)=  0.144E+03 0.408E+03 0.273E+03 ort(H,U,f) = 0.263E+03 0.502E+03 0.174E+03
CGA:  11    -0.159255517597E+03   -0.82142E+01   -0.47644E+01  5760   0.825E+03 0.939E+03
 gam= 0.000 trial= 0.322  step= 0.013 mean= 0.322
 gam= 0.000 g(H,U,f)=  0.115E+03 0.255E+03 0.252E+02 ort(H,U,f) = 0.127E+03 0.310E+03 0.804E+02
CGA:  12    -0.167198809064E+03   -0.79433E+01   -0.51800E+01  5760   0.396E+03 0.518E+03
 gam= 0.000 trial= 0.307  step= 0.007 mean= 0.307
 gam= 0.000 g(H,U,f)=  0.101E+03 0.581E+03 0.305E+03 ort(H,U,f) = 0.109E+03 0.614E+03 0.326E+03
CGA:  13    -0.171105979371E+03   -0.39072E+01   -0.13045E+01  5760   0.987E+03 0.105E+04
 gam= 0.000 trial= 0.292  step= 0.019 mean= 0.292
 gam= 0.000 g(H,U,f)=  0.279E+02 0.210E+03 0.619E+02 ort(H,U,f) = 0.487E+02 0.482E+03 0.163E+03
CGA:  14    -0.197149547063E+03   -0.26044E+02   -0.94940E+01  5760   0.300E+03 0.694E+03
 gam= 0.000 trial= 0.278  step= 0.056 mean= 0.278
 gam= 0.000 g(H,U,f)=  0.151E+02 0.165E+03 0.574E+02 ort(H,U,f) = 0.658E+01-0.106E+03-0.661E+02
CGA:  15    -0.202185090853E+03   -0.50355E+01   -0.83515E+01  5760   0.238E+03-0.166E+03
 gam= 0.000 trial= 0.267  step= 0.096 mean= 0.267
 gam= 0.000 g(H,U,f)=  0.245E+02 0.274E+03 0.131E+03 ort(H,U,f) =-0.130E+01-0.986E+02-0.633E+02
CGA:  16    -0.201936951503E+03    0.24814E+00   -0.11418E+02  5760   0.429E+03-0.163E+03
 gam= 0.000 trial= 0.258  step= 0.058 mean= 0.258
 gam= 0.000 g(H,U,f)=  0.113E+02 0.171E+03 0.482E+02 ort(H,U,f) =-0.361E+01-0.212E+03-0.723E+02
CGA:  17    -0.207723006943E+03   -0.57861E+01   -0.12500E+02  5760   0.231E+03-0.287E+03
 gam= 0.000 trial= 0.248  step= 0.079 mean= 0.248
 gam= 0.000 g(H,U,f)=  0.137E+02 0.139E+03 0.362E+02 ort(H,U,f) =-0.178E+01-0.859E+02-0.279E+02
CGA:  18    -0.208751749722E+03   -0.10287E+01   -0.91212E+01  5760   0.189E+03-0.116E+03
 gam= 0.000 trial= 0.240  step= 0.039 mean= 0.240
 gam= 0.104 g(H,U,f)=  0.469E+01 0.138E+02 0.114E+01 ort(H,U,f) = 0.590E+01 0.212E+02 0.315E+01
CGA:  19    -0.212905097863E+03   -0.41533E+01   -0.37298E+01  5760   0.196E+02 0.303E+02
 gam= 0.104 trial= 0.230  step= 0.097 mean= 0.230
 gam= 2.339 g(H,U,f)=  0.481E+01 0.319E+02 0.907E+01 ort(H,U,f) = 0.396E+01-0.219E+00-0.404E+01
CGA:  20    -0.214038805569E+03   -0.11337E+01   -0.11054E+01  5760   0.458E+02-0.298E+00
 gam= 2.339 trial= 0.223  step= 0.146 mean= 0.223
 gam= 1.397 g(H,U,f)=  0.964E+01 0.424E+02 0.120E+02 ort(H,U,f) = 0.106E+02-0.904E+01-0.148E+01
CGA:  21    -0.217520405812E+03   -0.34816E+01   -0.32978E+01  5760   0.640E+02 0.374E-01
 gam= 1.397 trial= 0.219  step= 0.047 mean= 0.219
 gam= 0.296 g(H,U,f)=  0.962E+01 0.791E+01 0.144E+01 ort(H,U,f) = 0.216E+02-0.264E+02 0.304E+01
CGA:  22    -0.218919123808E+03   -0.13987E+01   -0.15161E+01  5760   0.190E+02-0.170E+01
 gam= 0.296 trial= 0.211  step= 0.084 mean= 0.211
 gam= 1.042 g(H,U,f)=  0.686E+01 0.106E+02 0.232E+01 ort(H,U,f) = 0.110E+02-0.107E+02-0.257E+01
CGA:  23    -0.219532427821E+03   -0.61330E+00   -0.77854E+00  5760   0.198E+02-0.224E+01
 gam= 1.042 trial= 0.205  step= 0.125 mean= 0.205
 gam= 0.703 g(H,U,f)=  0.265E+01 0.841E+01 0.285E+01 ort(H,U,f) = 0.375E+00-0.115E+00-0.238E+00
CGA:  24    -0.220618557568E+03   -0.10861E+01   -0.10885E+01  5760   0.139E+02 0.220E-01
 gam= 0.703 trial= 0.201  step= 0.059 mean= 0.201
 gam= 0.226 g(H,U,f)=  0.244E+01 0.644E+00 0.657E-01 ort(H,U,f) =-0.250E+01 0.196E+01 0.372E+00
CGA:  25    -0.221024439983E+03   -0.40588E+00   -0.41250E+00  5760   0.315E+01-0.167E+00
 gam= 0.226 trial= 0.193  step= 0.111 mean= 0.193
 gam= 1.486 g(H,U,f)=  0.215E+01 0.174E+01 0.788E+00 ort(H,U,f) = 0.118E+01-0.625E+00-0.534E+00
CGA:  26    -0.221201025886E+03   -0.17659E+00   -0.17330E+00  5760   0.468E+01 0.218E-01
 gam= 1.486 trial= 0.189  step= 0.180 mean= 0.189
 gam= 1.367 g(H,U,f)=  0.120E+01 0.403E+01 0.117E+01 ort(H,U,f) = 0.261E+00-0.170E+00-0.472E-01
CGA:  27    -0.221623911977E+03   -0.42289E+00   -0.42329E+00  5760   0.640E+01 0.437E-01
 gam= 1.367 trial= 0.189  step= 0.073 mean= 0.189
 gam= 0.289 g(H,U,f)=  0.837E+00 0.949E+00 0.632E-01 ort(H,U,f) =-0.168E+01 0.123E+01 0.155E+00
CGA:  28    -0.221839976884E+03   -0.21606E+00   -0.23473E+00  5760   0.185E+01-0.293E+00
 gam= 0.289 trial= 0.183  step= 0.122 mean= 0.183
 gam= 1.066 g(H,U,f)=  0.692E+00 0.102E+01 0.262E+00 ort(H,U,f) =-0.218E+00 0.338E+00-0.118E+00
CGA:  29    -0.221945898787E+03   -0.10592E+00   -0.10776E+00  5760   0.197E+01 0.243E-02
 gam= 1.066 trial= 0.180  step= 0.154 mean= 0.180
 gam= 0.863 g(H,U,f)=  0.816E+00 0.830E+00 0.551E-01 ort(H,U,f) =-0.336E+00 0.338E+00 0.244E-01
CGA:  30    -0.222096988793E+03   -0.15109E+00   -0.15214E+00  5760   0.170E+01 0.267E-01
 gam= 0.863 trial= 0.179  step= 0.144 mean= 0.179
 gam= 1.431 g(H,U,f)=  0.825E+00 0.141E+01 0.203E+00 ort(H,U,f) = 0.323E-01 0.543E-01-0.128E+00
CGA:  31    -0.222223908867E+03   -0.12692E+00   -0.12418E+00  5760   0.244E+01-0.409E-01
 gam= 1.431 trial= 0.177  step= 0.184 mean= 0.177
 gam= 1.515 g(H,U,f)=  0.846E+00 0.227E+01 0.577E+00 ort(H,U,f) =-0.621E+00 0.705E+00-0.773E-01
CGA:  32    -0.222442316069E+03   -0.21841E+00   -0.21834E+00  5760   0.369E+01 0.681E-02
 gam= 1.515 trial= 0.177  step= 0.079 mean= 0.177
 gam= 0.512 g(H,U,f)=  0.960E+00 0.903E+00 0.270E-01 ort(H,U,f) =-0.161E+01 0.148E+01 0.126E+00
CGA:  33    -0.222591237751E+03   -0.14892E+00   -0.14704E+00  5760   0.189E+01-0.797E-03
 gam= 0.512 trial= 0.172  step= 0.122 mean= 0.172
 gam= 1.335 g(H,U,f)=  0.995E+00 0.122E+01 0.313E+00 ort(H,U,f) =-0.394E+00 0.474E+00-0.689E-01
CGA:  34    -0.222704159086E+03   -0.11292E+00   -0.11489E+00  5760   0.252E+01 0.110E-01
 gam= 1.335 trial= 0.170  step= 0.137 mean= 0.170
 gam= 0.968 g(H,U,f)=  0.960E+00 0.129E+01 0.190E+00 ort(H,U,f) =-0.574E+00 0.535E+00 0.894E-01
CGA:  35    -0.222875228144E+03   -0.17107E+00   -0.17380E+00  5760   0.244E+01 0.501E-01
 gam= 0.968 trial= 0.168  step= 0.128 mean= 0.168
 gam= 0.720 g(H,U,f)=  0.937E+00 0.728E+00 0.945E-01 ort(H,U,f) =-0.468E+00 0.615E+00-0.609E-01
CGA:  36    -0.223026240573E+03   -0.15101E+00   -0.15920E+00  5760   0.176E+01 0.857E-01
 gam= 0.720 trial= 0.166  step= 0.215 mean= 0.166
 gam= 1.038 g(H,U,f)=  0.745E+00 0.743E+00 0.337E+00 ort(H,U,f) =-0.187E+00 0.367E+00-0.794E-01
CGA:  37    -0.223225268656E+03   -0.19903E+00   -0.19538E+00  5760   0.183E+01 0.999E-01
 gam= 1.038 trial= 0.169  step= 0.150 mean= 0.169
 gam= 0.656 g(H,U,f)=  0.573E+00 0.492E+00 0.132E+00 ort(H,U,f) =-0.178E+00 0.246E+00-0.301E+00
CGA:  38    -0.223375758916E+03   -0.15049E+00   -0.14507E+00  5760   0.120E+01-0.233E+00
 gam= 0.656 trial= 0.168  step= 0.285 mean= 0.168
 gam= 1.071 g(H,U,f)=  0.504E+00 0.577E+00 0.200E+00 ort(H,U,f) =-0.199E+00 0.233E+00-0.628E-01
CGA:  39    -0.223522784150E+03   -0.14703E+00   -0.14871E+00  5760   0.128E+01-0.295E-01
 gam= 1.071 trial= 0.174  step= 0.111 mean= 0.174
 gam= 0.940 g(H,U,f)=  0.459E+00 0.476E+00 0.270E+00 ort(H,U,f) =-0.555E-01 0.227E+00-0.167E+00
CGA:  40    -0.223594017672E+03   -0.71234E-01   -0.69129E-01  5760   0.120E+01 0.418E-02
 gam= 0.940 trial= 0.170  step= 0.209 mean= 0.170
 gam= 1.083 g(H,U,f)=  0.449E+00 0.505E+00 0.351E+00 ort(H,U,f) =-0.189E+00 0.126E+00 0.778E-01
CGA:  41    -0.223720804588E+03   -0.12679E+00   -0.12625E+00  5760   0.130E+01 0.145E-01
 gam= 1.083 trial= 0.172  step= 0.113 mean= 0.172
 gam= 0.869 g(H,U,f)=  0.446E+00 0.484E+00 0.203E+00 ort(H,U,f) =-0.145E+00 0.441E+00-0.304E+00
CGA:  42    -0.223791514965E+03   -0.70710E-01   -0.74250E-01  5760   0.113E+01-0.774E-02
 gam= 0.869 trial= 0.169  step= 0.232 mean= 0.169
 gam= 0.684 g(H,U,f)=  0.427E+00 0.346E+00 0.168E-02 ort(H,U,f) =-0.330E+00 0.282E+00-0.548E-03
CGA:  43    -0.223920471087E+03   -0.12896E+00   -0.13072E+00  5760   0.775E+00-0.480E-01
 gam= 0.684 trial= 0.173  step= 0.195 mean= 0.173
 gam= 1.772 g(H,U,f)=  0.376E+00 0.328E+00 0.669E+00 ort(H,U,f) =-0.919E-01 0.105E+00-0.642E-01
CGA:  44    -0.223992052259E+03   -0.71581E-01   -0.72479E-01  5760   0.137E+01-0.510E-01
 gam= 1.772 trial= 0.174  step= 0.122 mean= 0.174
 gam= 0.705 g(H,U,f)=  0.410E+00 0.353E+00 0.204E+00 ort(H,U,f) =-0.311E+00 0.129E+00 0.220E+00
CGA:  45    -0.224069061024E+03   -0.77009E-01   -0.78228E-01  5760   0.968E+00 0.381E-01
 gam= 0.705 trial= 0.171  step= 0.168 mean= 0.171
 gam= 1.037 g(H,U,f)=  0.428E+00 0.434E+00 0.141E+00 ort(H,U,f) =-0.125E+00 0.880E-01-0.264E+00
CGA:  46    -0.224153098038E+03   -0.84037E-01   -0.83640E-01  5760   0.100E+01-0.301E+00
 gam= 1.037 trial= 0.171  step= 0.034 mean= 0.171
 gam= 1.125 g(H,U,f)=  0.397E+00 0.500E+00 0.233E+00 ort(H,U,f) = 0.221E+00 0.305E+00-0.285E+00
CGA:  47    -0.224176239245E+03   -0.23141E-01   -0.11739E-01  5760   0.113E+01 0.240E+00
 gam= 1.125 trial= 0.164  step= 0.067 mean= 0.164
 gam= 0.946 g(H,U,f)=  0.286E+00 0.657E+00 0.126E+00 ort(H,U,f) = 0.312E+00 0.164E+00-0.218E-01
CGA:  48    -0.224242915552E+03   -0.66676E-01   -0.47229E-01  5760   0.107E+01 0.454E+00
 gam= 0.946 trial= 0.159  step= 0.081 mean= 0.159
 gam= 0.000 g(H,U,f)=  0.237E+00 0.591E+00 0.493E-02 ort(H,U,f) = 0.394E-01 0.153E-01 0.450E-01
SDA:  49    -0.224302184241E+03   -0.59269E-01   -0.60742E-01  5760   0.833E+00 0.996E-01
 gam= 0.000 trial= 0.155  step= 0.188 mean= 0.155
 gam= 0.532 g(H,U,f)=  0.177E+00 0.266E+00 0.968E-03 ort(H,U,f) = 0.992E-01-0.461E-01-0.808E-03
CGA:  50    -0.224378139004E+03   -0.75955E-01   -0.78362E-01  5760   0.444E+00 0.523E-01
 gam= 0.532 trial= 0.157  step= 0.370 mean= 0.157
 gam= 1.060 g(H,U,f)=  0.121E+00 0.288E+00 0.617E-01 ort(H,U,f) =-0.907E-02-0.790E-01 0.420E-03
CGA:  51    -0.224451640243E+03   -0.73501E-01   -0.87136E-01  5760   0.470E+00-0.877E-01
 gam= 1.060 trial= 0.168  step= 0.276 mean= 0.168
 gam= 0.506 g(H,U,f)=  0.843E-01 0.133E+00 0.208E-01 ort(H,U,f) =-0.261E-01 0.140E+00 0.338E-01
CGA:  52    -0.224512670863E+03   -0.61031E-01   -0.52026E-01  5760   0.238E+00 0.148E+00
 gam= 0.506 trial= 0.173  step= 0.207 mean= 0.173
 gam= 0.395 g(H,U,f)=  0.362E-01 0.575E-01 0.166E-03 ort(H,U,f) =-0.127E-02 0.608E-01 0.144E-02
CGA:  53    -0.224546525595E+03   -0.33855E-01   -0.32353E-01  5760   0.939E-01 0.609E-01
 gam= 0.395 trial= 0.175  step= 0.731 mean= 0.175
 gam= 0.000 g(H,U,f)=  0.164E+00 0.538E+00 0.261E-01 ort(H,U,f) =-0.521E-01-0.765E-01 0.612E-02
CGA:  54    -0.224535665116E+03    0.10860E-01   -0.43098E-01  5760   0.729E+00-0.123E+00
 gam= 0.000 trial= 0.203  step= 0.137 mean= 0.203
 gam= 0.172 g(H,U,f)=  0.363E-01 0.879E-01 0.102E-02 ort(H,U,f) = 0.281E-01-0.419E-01 0.118E-03
CGA:  55    -0.224589298116E+03   -0.53633E-01   -0.49831E-01  5760   0.125E+00-0.137E-01
 gam= 0.172 trial= 0.199  step= 0.285 mean= 0.199
 gam= 0.314 g(H,U,f)=  0.807E-02 0.281E-01 0.312E-02 ort(H,U,f) =-0.350E-02-0.491E-02-0.158E-02
CGA:  56    -0.224606116176E+03   -0.16818E-01   -0.17488E-01  5760   0.393E-01-0.999E-02
 gam= 0.314 trial= 0.204  step= 0.533 mean= 0.204
 gam= 0.817 g(H,U,f)=  0.763E-02 0.244E-01 0.100E-03 ort(H,U,f) =-0.273E-02 0.131E-01-0.134E-03
CGA:  57    -0.224617489123E+03   -0.11373E-01   -0.96403E-02  5760   0.322E-01 0.102E-01
 gam= 0.817 trial= 0.220  step= 1.453 mean= 0.220
 gam= 0.817 trial= 1.430  step= 1.430 mean= 0.347
 gam= 0.000 g(H,U,f)=  0.147E+00 0.858E+00 0.134E-01 ort(H,U,f) =-0.126E-01-0.509E-01-0.736E-03
CGA:  58    -0.224580471834E+03    0.37017E-01   -0.16623E-01  5760   0.102E+01-0.642E-01
 gam= 0.000 trial= 0.401  step= 0.141 mean= 0.401
 gam= 0.118 g(H,U,f)=  0.308E-01 0.893E-01 0.280E-03 ort(H,U,f) =-0.310E-01-0.176E+00-0.133E-02
CGA:  59    -0.224643717995E+03   -0.63246E-01   -0.72014E-01  5760   0.120E+00-0.208E+00
 gam= 0.118 trial= 0.388  step= 0.197 mean= 0.388
 gam= 0.097 g(H,U,f)=  0.320E-02 0.824E-02 0.260E-03 ort(H,U,f) = 0.425E-02 0.431E-03 0.386E-04
CGA:  60    -0.224655528824E+03   -0.11811E-01   -0.94588E-02  5760   0.117E-01 0.472E-02
 gam= 0.097 trial= 0.379  step= 1.052 mean= 0.379
 gam= 2.272 g(H,U,f)=  0.604E-02 0.202E-01 0.380E-03 ort(H,U,f) =-0.135E-02 0.259E-02-0.222E-03
CGA:  61    -0.224661877597E+03   -0.63488E-02   -0.63918E-02  5760   0.266E-01 0.102E-02
 gam= 2.272 trial= 0.412  step= 0.376 mean= 0.412
 gam= 1.259 g(H,U,f)=  0.106E-01 0.226E-01 0.230E-03 ort(H,U,f) =-0.810E-02 0.743E-02 0.606E-03
CGA:  62    -0.224667502678E+03   -0.56251E-02   -0.54239E-02  5760   0.335E-01-0.643E-04
 gam= 1.259 trial= 0.410  step= 0.503 mean= 0.410
 gam= 0.549 g(H,U,f)=  0.114E-01 0.694E-02 0.933E-04 ort(H,U,f) =-0.112E-01 0.135E-01-0.458E-03
CGA:  63    -0.224676078534E+03   -0.85759E-02   -0.84001E-02  5760   0.184E-01 0.190E-02
 gam= 0.549 trial= 0.415  step= 0.667 mean= 0.415
 gam= 2.158 g(H,U,f)=  0.117E-01 0.272E-01 0.708E-03 ort(H,U,f) =-0.696E-03 0.608E-03-0.386E-03
CGA:  64    -0.224682499148E+03   -0.64206E-02   -0.64819E-02  5760   0.397E-01-0.474E-03
 gam= 2.158 trial= 0.428  step= 0.337 mean= 0.428
 gam= 0.506 g(H,U,f)=  0.104E-01 0.906E-02 0.591E-03 ort(H,U,f) =-0.209E-02 0.555E-03 0.871E-03
CGA:  65    -0.224689524350E+03   -0.70252E-02   -0.65077E-02  5760   0.201E-01-0.668E-03
 gam= 0.506 trial= 0.423  step= 0.364 mean= 0.423
 gam= 0.291 g(H,U,f)=  0.371E-02 0.211E-02 0.260E-04 ort(H,U,f) = 0.598E-04 0.827E-03 0.225E-03
CGA:  66    -0.224693052446E+03   -0.35281E-02   -0.35889E-02  5760   0.585E-02 0.111E-02
 gam= 0.291 trial= 0.420  step= 0.452 mean= 0.420
 gam= 0.800 g(H,U,f)=  0.167E-02 0.298E-02 0.316E-04 ort(H,U,f) = 0.509E-03-0.402E-03-0.668E-04
CGA:  67    -0.224694449450E+03   -0.13970E-02   -0.13932E-02  5760   0.468E-02 0.406E-04
 gam= 0.800 trial= 0.422  step= 0.287 mean= 0.422
 gam= 0.551 g(H,U,f)=  0.874E-03 0.167E-02 0.363E-04 ort(H,U,f) =-0.369E-04 0.390E-03-0.251E-04
CGA:  68    -0.224695172403E+03   -0.72295E-03   -0.67615E-03  5760   0.258E-02 0.328E-03
 gam= 0.551 trial= 0.415  step= 0.591 mean= 0.415
 gam= 1.155 g(H,U,f)=  0.121E-02 0.172E-02 0.523E-04 ort(H,U,f) =-0.714E-03 0.549E-03 0.919E-05
CGA:  69    -0.224695948239E+03   -0.77584E-03   -0.81477E-03  5760   0.298E-02-0.155E-03
 gam= 1.155 trial= 0.424  step= 0.578 mean= 0.424
 gam= 0.790 g(H,U,f)=  0.132E-02 0.101E-02 0.201E-04 ort(H,U,f) =-0.130E-02 0.144E-02-0.157E-04
CGA:  70    -0.224696771998E+03   -0.82376E-03   -0.80884E-03  5760   0.235E-02 0.126E-03
 gam= 0.790 trial= 0.432  step= 0.847 mean= 0.432
 gam= 1.892 g(H,U,f)=  0.207E-02 0.234E-02 0.417E-04 ort(H,U,f) =-0.825E-03 0.863E-03-0.236E-04
CGA:  71    -0.224697819151E+03   -0.10472E-02   -0.10379E-02  5760   0.445E-02 0.148E-04
 gam= 1.892 trial= 0.452  step= 0.724 mean= 0.452
 gam= 1.329 g(H,U,f)=  0.289E-02 0.301E-02 0.124E-04 ort(H,U,f) =-0.137E-02 0.138E-02-0.525E-04
CGA:  72    -0.224699430331E+03   -0.16112E-02   -0.16222E-02  5760   0.592E-02-0.501E-04
 gam= 1.329 trial= 0.466  step= 0.450 mean= 0.466
 gam= 0.960 g(H,U,f)=  0.270E-02 0.279E-02 0.196E-03 ort(H,U,f) =-0.991E-03 0.106E-02-0.152E-03
CGA:  73    -0.224700752400E+03   -0.13221E-02   -0.13153E-02  5760   0.568E-02-0.818E-04
 gam= 0.960 trial= 0.465  step= 0.371 mean= 0.465
 gam= 0.770 g(H,U,f)=  0.205E-02 0.228E-02 0.402E-04 ort(H,U,f) =-0.218E-03 0.210E-03-0.268E-04
CGA:  74    -0.224701811210E+03   -0.10588E-02   -0.10392E-02  5760   0.437E-02-0.344E-04
 gam= 0.770 trial= 0.460  step= 0.539 mean= 0.460
 gam= 0.648 g(H,U,f)=  0.136E-02 0.145E-02 0.243E-04 ort(H,U,f) =-0.496E-03 0.371E-03-0.322E-06
CGA:  75    -0.224702971743E+03   -0.11605E-02   -0.11709E-02  5760   0.283E-02-0.125E-03
 gam= 0.648 trial= 0.464  step= 0.586 mean= 0.464
 gam= 0.764 g(H,U,f)=  0.111E-02 0.103E-02 0.181E-04 ort(H,U,f) =-0.508E-03 0.515E-03-0.234E-04
CGA:  76    -0.224703780663E+03   -0.80892E-03   -0.80707E-03  5760   0.216E-02-0.159E-04
 gam= 0.764 trial= 0.470  step= 0.655 mean= 0.470
 gam= 1.033 g(H,U,f)=  0.996E-03 0.117E-02 0.649E-04 ort(H,U,f) =-0.476E-03 0.480E-03-0.300E-04
CGA:  77    -0.224704482487E+03   -0.70182E-03   -0.70494E-03  5760   0.223E-02-0.263E-04
 gam= 1.033 trial= 0.480  step= 0.535 mean= 0.480
 gam= 0.913 g(H,U,f)=  0.942E-03 0.104E-02 0.552E-04 ort(H,U,f) =-0.466E-03 0.547E-03-0.146E-04
CGA:  78    -0.224705070396E+03   -0.58791E-03   -0.59033E-03  5760   0.204E-02 0.663E-04
 gam= 0.913 trial= 0.482  step= 0.374 mean= 0.482
 gam= 1.006 g(H,U,f)=  0.952E-03 0.110E-02 0.578E-05 ort(H,U,f) =-0.103E-03 0.133E-03 0.933E-05
CGA:  79    -0.224705471461E+03   -0.40106E-03   -0.39297E-03  5760   0.205E-02 0.390E-04
 gam= 1.006 trial= 0.477  step= 0.466 mean= 0.477
 gam= 0.580 g(H,U,f)=  0.555E-03 0.625E-03 0.107E-04 ort(H,U,f) =-0.181E-03 0.201E-03-0.842E-05
CGA:  80    -0.224705958957E+03   -0.48750E-03   -0.48765E-03  5760   0.119E-02 0.116E-04
 gam= 0.580 trial= 0.476  step= 0.447 mean= 0.476
 gam= 0.569 g(H,U,f)=  0.350E-03 0.319E-03 0.843E-05 ort(H,U,f) =-0.975E-04 0.789E-04 0.914E-05
CGA:  81    -0.224706226775E+03   -0.26782E-03   -0.26751E-03  5760   0.677E-03-0.944E-05
 gam= 0.569 trial= 0.475  step= 0.475 mean= 0.475
 gam= 1.220 g(H,U,f)=  0.264E-03 0.550E-03 0.117E-04 ort(H,U,f) = 0.268E-04 0.331E-04-0.516E-05
CGA:  82    -0.224706386426E+03   -0.15965E-03   -0.15965E-03  5760   0.826E-03 0.548E-04
 gam= 1.220 trial= 0.475  step= 0.384 mean= 0.475
 gam= 0.565 g(H,U,f)=  0.204E-03 0.260E-03 0.249E-05 ort(H,U,f) =-0.146E-03 0.151E-03-0.691E-05
CGA:  83    -0.224706560904E+03   -0.17448E-03   -0.17163E-03  5760   0.466E-03-0.183E-05
 gam= 0.565 trial= 0.470  step= 0.578 mean= 0.470
 gam= 0.969 g(H,U,f)=  0.210E-03 0.241E-03 0.130E-05 ort(H,U,f) =-0.136E-03 0.109E-03 0.129E-05
CGA:  84    -0.224706691858E+03   -0.13095E-03   -0.13457E-03  5760   0.452E-03-0.257E-04
 gam= 0.969 trial= 0.476  step= 0.619 mean= 0.476
 gam= 1.113 g(H,U,f)=  0.230E-03 0.251E-03 0.217E-04 ort(H,U,f) =-0.102E-03 0.100E-03 0.470E-05
CGA:  85    -0.224706824200E+03   -0.13234E-03   -0.13222E-03  5760   0.503E-03 0.274E-05
 gam= 1.113 trial= 0.483  step= 0.480 mean= 0.483
 gam= 0.791 g(H,U,f)=  0.202E-03 0.193E-03 0.253E-05 ort(H,U,f) =-0.658E-04 0.916E-04-0.640E-05
CGA:  86    -0.224706945628E+03   -0.12143E-03   -0.12143E-03  5760   0.398E-03 0.194E-04
 gam= 0.791 trial= 0.483  step= 0.449 mean= 0.483
 gam= 0.845 g(H,U,f)=  0.151E-03 0.182E-03 0.308E-05 ort(H,U,f) =-0.195E-04 0.174E-04-0.546E-05
CGA:  87    -0.224707038728E+03   -0.93101E-04   -0.92799E-04  5760   0.336E-03-0.753E-05
 gam= 0.845 trial= 0.481  step= 0.453 mean= 0.481
 gam= 0.644 g(H,U,f)=  0.115E-03 0.101E-03 0.106E-05 ort(H,U,f) =-0.238E-04 0.233E-04 0.108E-05
CGA:  88    -0.224707113812E+03   -0.75083E-04   -0.74675E-04  5760   0.217E-03 0.541E-06
 gam= 0.644 trial= 0.480  step= 0.491 mean= 0.480
 gam= 0.000 g(H,U,f)=  0.803E-04 0.941E-04 0.216E-05 ort(H,U,f) =-0.139E-04 0.141E-04 0.126E-05
SDA:  89    -0.224707166982E+03   -0.53171E-04   -0.53243E-04  5760   0.177E-03 0.149E-05
 gam= 0.000 trial= 0.480  step= 0.292 mean= 0.480
 gam= 0.575 g(H,U,f)=  0.325E-04 0.653E-04 0.387E-05 ort(H,U,f) = 0.252E-04-0.106E-04-0.195E-05
CGA:  90    -0.224707193626E+03   -0.26644E-04   -0.25802E-04  5760   0.102E-03 0.126E-04
 gam= 0.575 trial= 0.471  step= 0.449 mean= 0.471
 gam= 1.072 g(H,U,f)=  0.269E-04 0.802E-04 0.187E-05 ort(H,U,f) =-0.214E-05 0.157E-05 0.187E-05
CGA:  91    -0.224707218252E+03   -0.24626E-04   -0.24461E-04  5760   0.109E-03 0.131E-05
 gam= 1.072 trial= 0.470  step= 0.530 mean= 0.470
 gam= 0.667 g(H,U,f)=  0.356E-04 0.358E-04 0.135E-05 ort(H,U,f) =-0.331E-04 0.406E-04 0.615E-06
CGA:  92    -0.224707247854E+03   -0.29602E-04   -0.29225E-04  5760   0.727E-04 0.802E-05
 gam= 0.667 trial= 0.473  step= 0.684 mean= 0.473
 gam= 1.050 g(H,U,f)=  0.367E-04 0.392E-04 0.449E-06 ort(H,U,f) =-0.181E-04 0.200E-04 0.718E-06
CGA:  93    -0.224707274975E+03   -0.27121E-04   -0.26685E-04  5760   0.764E-04 0.262E-05
 gam= 1.050 trial= 0.483  step= 0.774 mean= 0.483
 gam= 1.461 g(H,U,f)=  0.422E-04 0.681E-04 0.124E-05 ort(H,U,f) =-0.192E-04 0.276E-04 0.615E-07
CGA:  94    -0.224707305261E+03   -0.30286E-04   -0.30615E-04  5760   0.112E-03 0.847E-05
 gam= 1.461 trial= 0.498  step= 0.293 mean= 0.498
 gam= 0.645 g(H,U,f)=  0.349E-04 0.360E-04 0.913E-06 ort(H,U,f) =-0.165E-04 0.192E-04 0.113E-05
CGA:  95    -0.224707324398E+03   -0.19137E-04   -0.18154E-04  5760   0.719E-04 0.382E-05
 gam= 0.645 trial= 0.488  step= 0.750 mean= 0.488
 gam= 0.850 g(H,U,f)=  0.295E-04 0.311E-04 0.506E-06 ort(H,U,f) =-0.164E-04 0.139E-04-0.218E-05
CGA:  96    -0.224707352044E+03   -0.27646E-04   -0.27898E-04  5760   0.611E-04-0.468E-05
 gam= 0.850 trial= 0.501  step= 0.717 mean= 0.501
 gam= 1.212 g(H,U,f)=  0.311E-04 0.408E-04 0.226E-05 ort(H,U,f) =-0.120E-04 0.105E-04 0.292E-06
CGA:  97    -0.224707371665E+03   -0.19621E-04   -0.20493E-04  5760   0.741E-04-0.124E-05
 gam= 1.212 trial= 0.512  step= 0.372 mean= 0.512
 gam= 1.113 g(H,U,f)=  0.302E-04 0.518E-04 0.380E-06 ort(H,U,f) =-0.781E-05 0.949E-05 0.924E-06
CGA:  98    -0.224707385542E+03   -0.13877E-04   -0.13516E-04  5760   0.824E-04 0.261E-05
 gam= 1.113 trial= 0.505  step= 0.488 mean= 0.505
 gam= 0.619 g(H,U,f)=  0.263E-04 0.216E-04 0.315E-05 ort(H,U,f) =-0.190E-04 0.184E-04-0.636E-05
CGA:  99    -0.224707406380E+03   -0.20838E-04   -0.20837E-04  5760   0.510E-04-0.697E-05
 gam= 0.619 trial= 0.504  step= 0.725 mean= 0.504
 gam= 1.576 g(H,U,f)=  0.292E-04 0.502E-04 0.973E-06 ort(H,U,f) =-0.102E-04 0.809E-05 0.100E-05
CGA: 100    -0.224707422993E+03   -0.16613E-04   -0.16937E-04  5760   0.804E-04-0.112E-05
 gam= 1.576 trial= 0.515  step= 0.314 mean= 0.515
 gam= 0.697 g(H,U,f)=  0.240E-04 0.303E-04 0.172E-05 ort(H,U,f) =-0.121E-04 0.187E-04 0.131E-05
CGA: 101    -0.224707436485E+03   -0.13492E-04   -0.12353E-04  5760   0.560E-04 0.782E-05
 gam= 0.697 trial= 0.505  step= 0.462 mean= 0.505
 gam= 0.715 g(H,U,f)=  0.201E-04 0.194E-04 0.528E-06 ort(H,U,f) =-0.704E-05 0.107E-04-0.131E-05
CGA: 102    -0.224707450551E+03   -0.14066E-04   -0.14211E-04  5760   0.401E-04 0.238E-05
 gam= 0.715 trial= 0.503  step= 0.745 mean= 0.503
 gam= 1.249 g(H,U,f)=  0.166E-04 0.322E-04 0.128E-05 ort(H,U,f) =-0.687E-05 0.768E-05-0.195E-07
CGA: 103    -0.224707466147E+03   -0.15596E-04   -0.15561E-04  5760   0.501E-04 0.786E-06
 gam= 1.249 trial= 0.515  step= 0.265 mean= 0.515
 gam= 0.583 g(H,U,f)=  0.136E-04 0.155E-04 0.102E-06 ort(H,U,f) =-0.657E-05 0.109E-04-0.726E-07
CGA: 104    -0.224707474006E+03   -0.78586E-05   -0.67637E-05  5760   0.292E-04 0.423E-05
 gam= 0.583 trial= 0.502  step= 0.595 mean= 0.502
 gam= 0.888 g(H,U,f)=  0.117E-04 0.141E-04 0.114E-06 ort(H,U,f) =-0.371E-05 0.587E-05 0.273E-06
CGA: 105    -0.224707483544E+03   -0.95380E-05   -0.94253E-05  5760   0.259E-04 0.243E-05
 gam= 0.888 trial= 0.507  step= 0.509 mean= 0.507
 gam= 1.117 g(H,U,f)=  0.903E-05 0.198E-04 0.181E-06 ort(H,U,f) =-0.235E-05 0.325E-05-0.309E-07
CGA: 106    -0.224707490694E+03   -0.71501E-05   -0.71496E-05  5760   0.290E-04 0.872E-06
 gam= 1.117 trial= 0.507  step= 0.291 mean= 0.507
 gam= 0.557 g(H,U,f)=  0.729E-05 0.805E-05 0.795E-06 ort(H,U,f) =-0.382E-05 0.488E-05-0.777E-06
CGA: 107    -0.224707495265E+03   -0.45707E-05   -0.43533E-05  5760   0.161E-04 0.282E-06
 gam= 0.557 trial= 0.496  step= 0.547 mean= 0.496
 gam= 0.872 g(H,U,f)=  0.625E-05 0.760E-05 0.227E-06 ort(H,U,f) =-0.270E-05 0.177E-05-0.233E-06
CGA: 108    -0.224707499695E+03   -0.44300E-05   -0.44538E-05  5760   0.141E-04-0.116E-05
 gam= 0.872 trial= 0.499  step= 0.508 mean= 0.499
 gam= 1.223 g(H,U,f)=  0.587E-05 0.109E-04 0.496E-06 ort(H,U,f) =-0.148E-05 0.118E-05 0.111E-06
CGA: 109    -0.224707503012E+03   -0.33175E-05   -0.33205E-05  5760   0.172E-04-0.186E-06
 gam= 1.223 trial= 0.499  step= 0.332 mean= 0.499
 gam= 0.583 g(H,U,f)=  0.433E-05 0.539E-05 0.315E-06 ort(H,U,f) =-0.188E-05 0.251E-05-0.752E-07
CGA: 110    -0.224707506052E+03   -0.30396E-05   -0.28197E-05  5760   0.100E-04 0.555E-06
 gam= 0.583 trial= 0.491  step= 0.616 mean= 0.491
 gam= 0.913 g(H,U,f)=  0.425E-05 0.486E-05 0.471E-07 ort(H,U,f) =-0.202E-05 0.152E-05 0.124E-06
CGA: 111    -0.224707509201E+03   -0.31491E-05   -0.31912E-05  5760   0.916E-05-0.376E-06
 gam= 0.913 trial= 0.497  step= 0.698 mean= 0.497
 gam= 0.839 g(H,U,f)=  0.396E-05 0.359E-05 0.133E-06 ort(H,U,f) =-0.221E-05 0.262E-05-0.148E-06
CGA: 112    -0.224707512316E+03   -0.31151E-05   -0.30785E-05  5760   0.768E-05 0.262E-06
 gam= 0.839 trial= 0.507  step= 0.542 mean= 0.507
 gam= 1.493 g(H,U,f)=  0.387E-05 0.734E-05 0.263E-06 ort(H,U,f) =-0.826E-06 0.132E-05-0.904E-08
CGA: 113    -0.224707514456E+03   -0.21406E-05   -0.21420E-05  5760   0.115E-04 0.484E-06
 gam= 1.493 trial= 0.509  step= 0.393 mean= 0.509
 gam= 0.595 g(H,U,f)=  0.322E-05 0.348E-05 0.113E-06 ort(H,U,f) =-0.254E-05 0.313E-05 0.195E-06
CGA: 114    -0.224707516889E+03   -0.24321E-05   -0.23931E-05  5760   0.682E-05 0.789E-06
 gam= 0.595 trial= 0.503  step= 0.593 mean= 0.503
 gam= 0.824 g(H,U,f)=  0.291E-05 0.260E-05 0.109E-06 ort(H,U,f) =-0.123E-05 0.203E-05-0.102E-06
CGA: 115    -0.224707519089E+03   -0.22008E-05   -0.21617E-05  5760   0.562E-05 0.693E-06
 gam= 0.824 trial= 0.508  step= 0.825 mean= 0.508
 gam= 0.942 g(H,U,f)=  0.234E-05 0.294E-05 0.213E-07 ort(H,U,f) =-0.116E-05 0.151E-05-0.520E-07
CGA: 116    -0.224707521692E+03   -0.26022E-05   -0.25547E-05  5760   0.530E-05 0.292E-06
 gam= 0.942 trial= 0.524  step= 0.613 mean= 0.524
 gam= 1.003 g(H,U,f)=  0.224E-05 0.301E-05 0.611E-07 ort(H,U,f) =-0.945E-06 0.909E-06-0.869E-07
CGA: 117    -0.224707523399E+03   -0.17074E-05   -0.17096E-05  5760   0.531E-05-0.122E-06
 gam= 1.003 trial= 0.528  step= 0.634 mean= 0.528
 gam= 1.232 g(H,U,f)=  0.227E-05 0.403E-05 0.252E-06 ort(H,U,f) =-0.845E-06 0.759E-06-0.748E-07
CGA: 118    -0.224707525025E+03   -0.16266E-05   -0.16466E-05  5760   0.655E-05-0.161E-06
 gam= 1.232 trial= 0.533  step= 0.371 mean= 0.533
 gam= 0.816 g(H,U,f)=  0.196E-05 0.261E-05 0.781E-06 ort(H,U,f) =-0.809E-06 0.860E-06 0.271E-06
CGA: 119    -0.224707526301E+03   -0.12757E-05   -0.11773E-05  5760   0.535E-05 0.321E-06
 gam= 0.816 trial= 0.525  step= 0.473 mean= 0.525
 gam= 0.000 g(H,U,f)=  0.155E-05 0.135E-05 0.543E-07 ort(H,U,f) =-0.733E-06 0.901E-06-0.210E-06
SDA: 120    -0.224707527601E+03   -0.13000E-05   -0.13277E-05  5760   0.295E-05-0.419E-07
 gam= 0.000 trial= 0.523  step= 0.571 mean= 0.523
 gam= 0.527 g(H,U,f)=  0.610E-06 0.917E-06 0.306E-07 ort(H,U,f) = 0.258E-06-0.104E-06-0.961E-08
CGA: 121    -0.224707528449E+03   -0.84787E-06   -0.84357E-06  5760   0.156E-05 0.144E-06
 gam= 0.527 trial= 0.525  step= 0.757 mean= 0.525
 final diagonalization
   1 F= -.23465982E+03 E0= -.23465685E+03  d E =-.592849E-02  mag=     6.0000
