 vasp.5.4.4.18Apr17-6-g9f103f2a35 (build Nov 22 2021 14:44:17) complex          
  
 executed on             LinuxIFC date 2022.08.06  11:37:12
 running on   64 total cores
 distrk:  each k-point on   64 cores,    1 groups
 distr:  one band on NCORES_PER_BAND=   4 cores,   16 groups


--------------------------------------------------------------------------------------------------------


 INCAR:
 POTCAR:    PAW_PBE Li 17Jan2003                  
 POTCAR:    PAW_PBE Co 02Aug2007                  
 POTCAR:    PAW_PBE O 08Apr2002                   
 POTCAR:    PAW_PBE Li 17Jan2003                  
   VRHFIN =Li: s1p0                                                             
   LEXCH  = PE                                                                  
   EATOM  =     5.3001 eV,    0.3895 Ry                                         
                                                                                
   TITEL  = PAW_PBE Li 17Jan2003                                                
   LULTRA =        F    use ultrasoft PP ?                                      
   IUNSCR =        1    unscreen: 0-lin 1-nonlin 2-no                           
   RPACOR =    1.500    partial core radius                                     
   POMASS =    7.010; ZVAL   =    1.000    mass and valenz                      
   RCORE  =    2.050    outmost cutoff radius                                   
   RWIGS  =    2.600; RWIGS  =    1.376    wigner-seitz radius (au A)           
   ENMAX  =  140.000; ENMIN  =  100.000 eV                                      
   ICORE  =        2    local potential                                         
   LCOR   =        T    correct aug charges                                     
   LPAW   =        T    paw PP                                                  
   EAUG   =  331.638                                                            
   DEXC   =    0.000                                                            
   RMAX   =    2.098    core radius for proj-oper                               
   RAUG   =    1.300    factor for augmentation sphere                          
   RDEP   =    2.094    radius for radial grids                                 
   RDEPT  =    1.810    core radius for aug-charge                              
                                                                                
   Atomic configuration                                                         
    4 entries                                                                   
     n  l   j            E        occ.                                          
     1  0  0.50       -51.8549   2.0000                                         
     2  0  0.50        -2.8742   1.0000                                         
     2  1  0.50        -1.3606   0.0000                                         
     3  2  1.50        -1.3606   0.0000                                         
   Description                                                                  
     l       E           TYP  RCUT    TYP  RCUT                                 
     0     -2.8742052     23  2.050                                             
     0     27.2116520     23  2.050                                             
     1     -1.3605826     23  2.050                                             
     2     -1.3605826     23  2.050                                             
  local pseudopotential read in
  partial core-charges read in
  partial kinetic energy density read in
  atomic valenz-charges read in
  non local Contribution for L=           0  read in
    real space projection operators read in
  non local Contribution for L=           0  read in
    real space projection operators read in
  non local Contribution for L=           1  read in
    real space projection operators read in
    PAW grid and wavefunctions read in
 
   number of l-projection  operators is LMAX  =           3
   number of lm-projection operators is LMMAX =           5
 
 POTCAR:    PAW_PBE Co 02Aug2007                  
   VRHFIN =Co: d8 s1                                                            
   LEXCH  = PE                                                                  
   EATOM  =   813.3670 eV,   59.7808 Ry                                         
                                                                                
   TITEL  = PAW_PBE Co 02Aug2007                                                
   LULTRA =        F    use ultrasoft PP ?                                      
   IUNSCR =        1    unscreen: 0-lin 1-nonlin 2-no                           
   RPACOR =    2.000    partial core radius                                     
   POMASS =   58.933; ZVAL   =    9.000    mass and valenz                      
   RCORE  =    2.300    outmost cutoff radius                                   
   RWIGS  =    2.460; RWIGS  =    1.302    wigner-seitz radius (au A)           
   ENMAX  =  267.968; ENMIN  =  200.976 eV                                      
   RCLOC  =    1.203    cutoff for local pot                                    
   LCOR   =        T    correct aug charges                                     
   LPAW   =        T    paw PP                                                  
   EAUG   =  477.818                                                            
   DEXC   =    0.000                                                            
   RMAX   =    2.360    core radius for proj-oper                               
   RAUG   =    1.300    factor for augmentation sphere                          
   RDEP   =    2.393    radius for radial grids                                 
   RDEPT  =    1.864    core radius for aug-charge                              
                                                                                
   Atomic configuration                                                         
    9 entries                                                                   
     n  l   j            E        occ.                                          
     1  0  0.50     -7587.6674   2.0000                                         
     2  0  0.50      -893.6084   2.0000                                         
     2  1  1.50      -764.5805   6.0000                                         
     3  0  0.50       -97.5973   2.0000                                         
     3  1  1.50       -60.9648   6.0000                                         
     3  2  2.50        -4.2382   8.0000                                         
     4  0  0.50        -4.3746   1.0000                                         
     4  1  1.50        -4.0817   0.0000                                         
     4  3  2.50        -1.3606   0.0000                                         
   Description                                                                  
     l       E           TYP  RCUT    TYP  RCUT                                 
     2     -4.2382362     23  2.300                                             
     2     -5.5988188     23  2.300                                             
     0     -4.3745797     23  2.300                                             
     0      5.7660125     23  2.300                                             
     1     -2.7211652     23  2.300                                             
     1     16.9860234     23  2.300                                             
  local pseudopotential read in
  partial core-charges read in
  partial kinetic energy density read in
  atomic valenz-charges read in
  non local Contribution for L=           2  read in
    real space projection operators read in
  non local Contribution for L=           2  read in
    real space projection operators read in
  non local Contribution for L=           0  read in
    real space projection operators read in
  non local Contribution for L=           0  read in
    real space projection operators read in
  non local Contribution for L=           1  read in
    real space projection operators read in
  non local Contribution for L=           1  read in
    real space projection operators read in
    PAW grid and wavefunctions read in
 
   number of l-projection  operators is LMAX  =           6
   number of lm-projection operators is LMMAX =          18
 
 POTCAR:    PAW_PBE O 08Apr2002                   
   VRHFIN =O: s2p4                                                              
   LEXCH  = PE                                                                  
   EATOM  =   432.3788 eV,   31.7789 Ry                                         
                                                                                
   TITEL  = PAW_PBE O 08Apr2002                                                 
   LULTRA =        F    use ultrasoft PP ?                                      
   IUNSCR =        1    unscreen: 0-lin 1-nonlin 2-no                           
   RPACOR =    1.200    partial core radius                                     
   POMASS =   16.000; ZVAL   =    6.000    mass and valenz                      
   RCORE  =    1.520    outmost cutoff radius                                   
   RWIGS  =    1.550; RWIGS  =    0.820    wigner-seitz radius (au A)           
   ENMAX  =  400.000; ENMIN  =  300.000 eV                                      
   ICORE  =        2    local potential                                         
   LCOR   =        T    correct aug charges                                     
   LPAW   =        T    paw PP                                                  
   EAUG   =  605.392                                                            
   DEXC   =    0.000                                                            
   RMAX   =    1.553    core radius for proj-oper                               
   RAUG   =    1.300    factor for augmentation sphere                          
   RDEP   =    1.550    radius for radial grids                                 
   RDEPT  =    1.329    core radius for aug-charge                              
                                                                                
   Atomic configuration                                                         
    4 entries                                                                   
     n  l   j            E        occ.                                          
     1  0  0.50      -514.6923   2.0000                                         
     2  0  0.50       -23.9615   2.0000                                         
     2  1  0.50        -9.0305   4.0000                                         
     3  2  1.50        -9.5241   0.0000                                         
   Description                                                                  
     l       E           TYP  RCUT    TYP  RCUT                                 
     0    -23.9615318     23  1.200                                             
     0     -9.5240782     23  1.200                                             
     1     -9.0304911     23  1.520                                             
     1      8.1634956     23  1.520                                             
     2     -9.5240782      7  1.500                                             
  local pseudopotential read in
  partial core-charges read in
  partial kinetic energy density read in
  kinetic energy density of atom read in
  atomic valenz-charges read in
  non local Contribution for L=           0  read in
    real space projection operators read in
  non local Contribution for L=           0  read in
    real space projection operators read in
  non local Contribution for L=           1  read in
    real space projection operators read in
  non local Contribution for L=           1  read in
    real space projection operators read in
    PAW grid and wavefunctions read in
 
   number of l-projection  operators is LMAX  =           4
   number of lm-projection operators is LMMAX =           8
 
 Optimization of the real space projectors (new method)

 maximal supplied QI-value         = 18.33
 optimisation between [QCUT,QGAM] = [ 12.46, 24.93] = [ 43.51,174.03] Ry 
 Optimized for a Real-space Cutoff    1.13 Angstroem

   l    n(q)    QCUT    max X(q) W(low)/X(q) W(high)/X(q)  e(spline) 
   0      8    12.465    33.825    0.12E-03    0.29E-03    0.99E-07
   0      8    12.465     8.944    0.86E-04    0.22E-03    0.72E-07
   1      8    12.465     4.214    0.27E-03    0.11E-03    0.82E-07
 Optimization of the real space projectors (new method)

 maximal supplied QI-value         = 16.25
 optimisation between [QCUT,QGAM] = [ 12.51, 25.03] = [ 43.85,175.40] Ry 
 Optimized for a Real-space Cutoff    1.31 Angstroem

   l    n(q)    QCUT    max X(q) W(low)/X(q) W(high)/X(q)  e(spline) 
   2      9    12.514    65.824    0.30E-03    0.46E-03    0.43E-06
   2      9    12.514    61.429    0.31E-03    0.46E-03    0.44E-06
   0     10    12.514    56.174    0.90E-04    0.33E-03    0.30E-06
   0     10    12.514    31.263    0.81E-04    0.30E-03    0.28E-06
   1      9    12.514    19.828    0.38E-03    0.65E-04    0.24E-06
   1      9    12.514    15.139    0.32E-03    0.60E-04    0.20E-06
 Optimization of the real space projectors (new method)

 maximal supplied QI-value         = 24.76
 optimisation between [QCUT,QGAM] = [ 12.38, 25.00] = [ 42.90,175.06] Ry 
 Optimized for a Real-space Cutoff    1.13 Angstroem

   l    n(q)    QCUT    max X(q) W(low)/X(q) W(high)/X(q)  e(spline) 
   0      8    12.378    20.381    0.16E-03    0.54E-05    0.27E-06
   0      8    12.378    15.268    0.17E-03    0.61E-05    0.29E-06
   1      8    12.378     5.964    0.38E-03    0.23E-03    0.28E-06
   1      8    12.378     5.382    0.33E-03    0.20E-03    0.25E-06
  PAW_PBE Li 17Jan2003                  :
 energy of atom  1       EATOM=   -5.3001
 kinetic energy error for atom=    0.0000 (will be added to EATOM!!)
  PAW_PBE Co 02Aug2007                  :
 energy of atom  2       EATOM= -813.3670
 kinetic energy error for atom=    0.0018 (will be added to EATOM!!)
  PAW_PBE O 08Apr2002                   :
 energy of atom  3       EATOM= -432.3788
 kinetic energy error for atom=    0.0168 (will be added to EATOM!!)
 
 
 POSCAR: Li6 Co12 O24                            
  positions in cartesian coordinates
  No initial velocities read in
 exchange correlation table for  LEXCH =        8
   RHO(1)=    0.500       N(1)  =     2000
   RHO(2)=  100.500       N(2)  =     4000
 


--------------------------------------------------------------------------------------------------------


 ion  position               nearest neighbor table
   1  0.007  0.992  0.007-  25 1.94  38 1.99  26 2.02  36 2.09  35 2.28  23 2.31   2 2.63  10 2.70
                            18 2.80   7 2.82   2 2.94   8 2.99  17 3.04  15 3.07
   2  0.507  0.932  0.997-  38 1.84  24 1.98  36 2.06  25 2.26  23 2.27  16 2.55  37 2.60   1 2.63
                             8 2.83  10 2.90   1 2.94  17 3.08  15 3.14   9 3.21
   3  0.746  0.128  0.337-  33 1.79  21 2.13  20 2.16  34 2.19  19 2.19  31 2.29  13 2.69   4 2.72
                             4 2.85   9 2.88  12 2.92  11 2.94  10 2.96   7 3.05
   4  0.755  0.619  0.317-  22 1.91  19 2.06  20 2.06  33 2.07  34 2.09  32 2.42   9 2.60  10 2.70
                             3 2.72   8 2.84   3 2.85  14 3.01  11 3.11
   5  0.504  0.262  0.664-  29 2.11  27 2.12  41 2.13  30 2.16  42 2.24  39 2.27  15 2.49  14 2.84
                             6 2.88  13 2.89  12 2.92   6 3.11
   6  0.735  0.900  0.676-  41 1.84  42 2.07  29 2.08  30 2.16  39 2.30  16 2.70  11 2.73   5 2.88
                            17 2.93  18 3.00   5 3.11
   7  0.157  0.314  0.165-  20 1.86  24 1.86  19 1.91  22 1.91  23 1.93  25 1.93   8 2.71  10 2.72
                             9 2.75   9 2.78   1 2.82  10 2.83   8 2.83   3 3.05
   8  0.181  0.816  0.168-  21 1.78  23 1.83  24 1.85  26 1.92  20 1.93  19 2.03  10 2.69   7 2.71
                             9 2.76   9 2.79   7 2.83   2 2.83  10 2.84   4 2.84   1 2.99
   9  0.664  0.327  0.170-  22 1.81  23 1.85  21 1.90  20 1.91  26 1.94  25 1.96   4 2.60  10 2.71
                             7 2.75   8 2.76   7 2.78   8 2.79  10 2.82   3 2.88   2 3.21
  10  0.670  0.820  0.165-  21 1.82  26 1.82  24 1.88  22 1.92  25 1.99  19 1.99   8 2.69   1 2.70
                             4 2.70   9 2.71   7 2.72   9 2.82   7 2.83   8 2.84   2 2.90   3 2.96
  11  0.916  0.953  0.495-  27 1.85  32 1.88  34 1.89  31 1.91  30 1.93  29 2.01  13 2.69  14 2.72
                             6 2.73  12 2.76  12 2.78  14 2.82  13 2.84   3 2.94   4 3.11
  12  0.912  0.449  0.502-  28 1.79  29 1.80  31 1.81  30 1.86  32 1.86  33 1.99  13 2.74  14 2.75
                            11 2.76  14 2.78  11 2.78  13 2.81   3 2.92   5 2.92
  13  0.409  0.966  0.495-  27 1.83  32 1.90  29 1.92  33 1.97  34 2.07  28 2.08  14 2.64  11 2.69
                             3 2.69  12 2.74  12 2.81  11 2.84   5 2.89  14 2.90
  14  0.407  0.442  0.499-  27 1.78  28 1.84  34 1.84  31 1.87  33 2.03  30 2.05  13 2.64  11 2.72
                            12 2.75  12 2.78  11 2.82   5 2.84  13 2.90   4 3.01
  15  0.417  0.225  0.833-  35 1.80  37 1.86  39 1.90  36 1.90  41 1.90  42 1.92   5 2.49  17 2.65
                            18 2.68  16 2.74  16 2.79  18 2.86  17 2.89   1 3.07   2 3.14
  16  0.416  0.729  0.838-  42 1.87  36 1.87  40 1.89  41 1.96  35 2.00  38 2.02   2 2.55  17 2.64
                             6 2.70  18 2.73  15 2.74  15 2.79  18 2.80  17 2.90
  17  0.949  0.246  0.835-  39 1.83  40 1.83  35 1.83  37 1.85  38 1.91  41 1.99  16 2.64  15 2.65
                            18 2.73  18 2.81  15 2.89  16 2.90   6 2.93   1 3.04   2 3.08
  18  0.930  0.743  0.837-  36 1.84  40 1.86  42 1.86  38 1.88  37 1.90  39 1.92  15 2.68  17 2.73
                            16 2.73   1 2.80  16 2.80  17 2.81  15 2.86   6 3.00
  19  0.985  0.991  0.244-   7 1.91  10 1.99   8 2.03   4 2.06   3 2.19
  20  0.982  0.471  0.238-   7 1.86   9 1.91   8 1.93   4 2.06   3 2.16
  21  0.481  0.971  0.229-   8 1.78  10 1.82   9 1.90   3 2.13
  22  0.472  0.472  0.234-   9 1.81   7 1.91   4 1.91  10 1.92
  23  0.359  0.148  0.102-   8 1.83   9 1.85   7 1.93   2 2.27   1 2.31
  24  0.356  0.652  0.099-   8 1.85   7 1.86  10 1.88   2 1.98
  25  0.850  0.169  0.089-   7 1.93   1 1.94   9 1.96  10 1.99   2 2.26
  26  0.862  0.675  0.099-  10 1.82   8 1.92   9 1.94   1 2.02
  27  0.223  0.119  0.561-  14 1.78  13 1.83  11 1.85   5 2.12
  28  0.210  0.584  0.566-  12 1.79  14 1.84  13 2.08
  29  0.719  0.126  0.568-  12 1.80  13 1.92  11 2.01   6 2.08   5 2.11
  30  0.749  0.623  0.573-  12 1.86  11 1.93  14 2.05   6 2.16   5 2.16
  31  0.096  0.307  0.432-  12 1.81  14 1.87  11 1.91   3 2.29
  32  0.090  0.774  0.429-  12 1.86  11 1.88  13 1.90   4 2.42
  33  0.622  0.304  0.415-   3 1.79  13 1.97  12 1.99  14 2.03   4 2.07
  34  0.602  0.764  0.428-  14 1.84  11 1.89  13 2.07   4 2.09   3 2.19
  35  0.239  0.364  0.907-  15 1.80  17 1.83  16 2.00   1 2.28
  36  0.231  0.889  0.906-  18 1.84  16 1.87  15 1.90   2 2.06   1 2.09
  37  0.738  0.385  0.896-  17 1.85  15 1.86  18 1.90   2 2.60
  38  0.755  0.910  0.909-   2 1.84  18 1.88  17 1.91   1 1.99  16 2.02
  39  0.109  0.080  0.762-  17 1.83  15 1.90  18 1.92   5 2.27   6 2.30
  40  0.103  0.575  0.769-  17 1.83  18 1.86  16 1.89
  41  0.618  0.075  0.763-   6 1.84  15 1.90  16 1.96  17 1.99   5 2.13
  42  0.616  0.582  0.772-  18 1.86  16 1.87  15 1.92   6 2.07   5 2.24
 

IMPORTANT INFORMATION: All symmetrisations will be switched off!
NOSYMM: (Re-)initialisation of all symmetry stuff for point group C_1.

 
 

Automatic generation of k-mesh.
 generate k-points for:    6    6    2
Space group operators:
 irot       det(A)        alpha          n_x          n_y          n_z        tau_x        tau_y        tau_z
    1     1.000000     0.000000     1.000000     0.000000     0.000000     0.000000     0.000000     0.000000
 
 Subroutine IBZKPT returns following result:
 ===========================================
 
 Found     36 irreducible k-points:
 
 Following reciprocal coordinates:
            Coordinates               Weight
  0.083333  0.083333  0.250000      2.000000
  0.250000  0.083333  0.250000      2.000000
  0.416667  0.083333  0.250000      2.000000
 -0.416667  0.083333  0.250000      2.000000
 -0.250000  0.083333  0.250000      2.000000
 -0.083333  0.083333  0.250000      2.000000
  0.083333  0.250000  0.250000      2.000000
  0.250000  0.250000  0.250000      2.000000
  0.416667  0.250000  0.250000      2.000000
 -0.416667  0.250000  0.250000      2.000000
 -0.250000  0.250000  0.250000      2.000000
 -0.083333  0.250000  0.250000      2.000000
  0.083333  0.416667  0.250000      2.000000
  0.250000  0.416667  0.250000      2.000000
  0.416667  0.416667  0.250000      2.000000
 -0.416667  0.416667  0.250000      2.000000
 -0.250000  0.416667  0.250000      2.000000
 -0.083333  0.416667  0.250000      2.000000
  0.083333 -0.416667  0.250000      2.000000
  0.250000 -0.416667  0.250000      2.000000
  0.416667 -0.416667  0.250000      2.000000
 -0.416667 -0.416667  0.250000      2.000000
 -0.250000 -0.416667  0.250000      2.000000
 -0.083333 -0.416667  0.250000      2.000000
  0.083333 -0.250000  0.250000      2.000000
  0.250000 -0.250000  0.250000      2.000000
  0.416667 -0.250000  0.250000      2.000000
 -0.416667 -0.250000  0.250000      2.000000
 -0.250000 -0.250000  0.250000      2.000000
 -0.083333 -0.250000  0.250000      2.000000
  0.083333 -0.083333  0.250000      2.000000
  0.250000 -0.083333  0.250000      2.000000
  0.416667 -0.083333  0.250000      2.000000
 -0.416667 -0.083333  0.250000      2.000000
 -0.250000 -0.083333  0.250000      2.000000
 -0.083333 -0.083333  0.250000      2.000000
 
 Following cartesian coordinates:
            Coordinates               Weight
  0.015072  0.026025  0.014782      2.000000
  0.045216  0.043344  0.011252      2.000000
  0.075359  0.060664  0.007723      2.000000
 -0.075359 -0.025933  0.025372      2.000000
 -0.045216 -0.008614  0.021842      2.000000
 -0.015072  0.008706  0.018312      2.000000
  0.015072  0.060756  0.013725      2.000000
  0.045216  0.078075  0.010195      2.000000
  0.075359  0.095395  0.006665      2.000000
 -0.075359  0.008798  0.024315      2.000000
 -0.045216  0.026117  0.020785      2.000000
 -0.015072  0.043436  0.017255      2.000000
  0.015072  0.095487  0.012668      2.000000
  0.045216  0.112806  0.009138      2.000000
  0.075359  0.130125  0.005608      2.000000
 -0.075359  0.043528  0.023257      2.000000
 -0.045216  0.060848  0.019727      2.000000
 -0.015072  0.078167  0.016198      2.000000
  0.015072 -0.078167  0.017954      2.000000
  0.045216 -0.060848  0.014424      2.000000
  0.075359 -0.043528  0.010894      2.000000
 -0.075359 -0.130125  0.028544      2.000000
 -0.045216 -0.112806  0.025014      2.000000
 -0.015072 -0.095487  0.021484      2.000000
  0.015072 -0.043436  0.016897      2.000000
  0.045216 -0.026117  0.013367      2.000000
  0.075359 -0.008798  0.009837      2.000000
 -0.075359 -0.095395  0.027487      2.000000
 -0.045216 -0.078075  0.023957      2.000000
 -0.015072 -0.060756  0.020427      2.000000
  0.015072 -0.008706  0.015840      2.000000
  0.045216  0.008614  0.012310      2.000000
  0.075359  0.025933  0.008780      2.000000
 -0.075359 -0.060664  0.026429      2.000000
 -0.045216 -0.043344  0.022899      2.000000
 -0.015072 -0.026025  0.019370      2.000000
 


--------------------------------------------------------------------------------------------------------




 Dimension of arrays:
   k-points           NKPTS =     36   k-points in BZ     NKDIM =     36   number of bands    NBANDS=    160
   number of dos      NEDOS =    301   number of ions     NIONS =     42
   non local maximal  LDIM  =      6   non local SUM 2l+1 LMDIM =     18
   total plane-waves  NPLWV = 116640
   max r-space proj   IRMAX =   2856   max aug-charges    IRDMAX=  12040
   dimension x,y,z NGX =    36 NGY =   36 NGZ =   90
   dimension x,y,z NGXF=    72 NGYF=   72 NGZF=  180
   support grid    NGXF=    72 NGYF=   72 NGZF=  180
   ions per type =               6  12  24
   NGX,Y,Z   is equivalent  to a cutoff of  10.82, 10.81, 10.16 a.u.
   NGXF,Y,Z  is equivalent  to a cutoff of  21.65, 21.63, 20.33 a.u.

 SYSTEM =  LiCoO2                                  
 POSCAR =  Li6 Co12 O24                            

 Startparameter for this run:
   NWRITE =      2    write-flag & timer
   PREC   = normal    normal or accurate (medium, high low for compatibility)
   ISTART =      0    job   : 0-new  1-cont  2-samecut
   ICHARG =      2    charge: 1-file 2-atom 10-const
   ISPIN  =      2    spin polarized calculation?
   LNONCOLLINEAR =      F non collinear calculations
   LSORBIT =      F    spin-orbit coupling
   INIWAV =      1    electr: 0-lowe 1-rand  2-diag
   LASPH  =      F    aspherical Exc in radial PAW
   METAGGA=      F    non-selfconsistent MetaGGA calc.

 Electronic Relaxation 1
   ENCUT  =  600.0 eV  44.10 Ry    6.64 a.u.  11.04 11.05 29.40*2*pi/ulx,y,z
   ENINI  =  600.0     initial cutoff
   ENAUG  =  605.4 eV  augmentation charge cutoff
   NELM   =    600;   NELMIN=  2; NELMDL= -5     # of ELM steps 
   EDIFF  = 0.1E-05   stopping-criterion for ELM
   LREAL  =      T    real-space projection
   NLSPLINE    = F    spline interpolate recip. space projectors
   LCOMPAT=      F    compatible to vasp.4.4
   GGA_COMPAT  = T    GGA compatible to vasp.4.4-vasp.4.6
   LMAXPAW     = -100 max onsite density
   LMAXMIX     =    2 max onsite mixed and CHGCAR
   VOSKOWN=      0    Vosko Wilk Nusair interpolation
   ROPT   =   -0.00050  -0.00050  -0.00050
 Ionic relaxation
   EDIFFG = 0.1E-04   stopping-criterion for IOM
   NSW    =      0    number of steps for IOM
   NBLOCK =      1;   KBLOCK =      1    inner block; outer block 
   IBRION =     -1    ionic relax: 0-MD 1-quasi-New 2-CG
   NFREE  =      0    steps in history (QN), initial steepest desc. (CG)
   ISIF   =      2    stress and relaxation
   IWAVPR =     10    prediction:  0-non 1-charg 2-wave 3-comb
   ISYM   =      0    0-nonsym 1-usesym 2-fastsym
   LCORR  =      T    Harris-Foulkes like correction to forces

   POTIM  = 0.5000    time-step for ionic-motion
   TEIN   =    0.0    initial temperature
   TEBEG  =    0.0;   TEEND  =   0.0 temperature during run
   SMASS  =  -3.00    Nose mass-parameter (am)
   estimated Nose-frequenzy (Omega)   =  0.10E-29 period in steps =****** mass=  -0.699E-27a.u.
   SCALEE = 1.0000    scale energy and forces
   NPACO  =    256;   APACO  = 16.0  distance and # of slots for P.C.
   PSTRESS=    0.0 pullay stress

  Mass of Ions in am
   POMASS =   7.01 58.93 16.00
  Ionic Valenz
   ZVAL   =   1.00  9.00  6.00
  Atomic Wigner-Seitz radii
   RWIGS  =  -1.00 -1.00 -1.00
  virtual crystal weights 
   VCA    =   1.00  1.00  1.00
   NELECT =     258.0000    total number of electrons
   NUPDOWN=       6.0000    fix difference up-down

 DOS related values:
   EMIN   =  10.00;   EMAX   =-10.00  energy-range for DOS
   EFERMI =   0.00
   ISMEAR =     0;   SIGMA  =   0.05  broadening in eV -4-tet -1-fermi 0-gaus

 Electronic relaxation 2 (details)
   IALGO  =     58    algorithm
   LDIAG  =      T    sub-space diagonalisation (order eigenvalues)
   LSUBROT=      F    optimize rotation matrix (better conditioning)
   TURBO    =      0    0=normal 1=particle mesh
   IRESTART =      0    0=no restart 2=restart with 2 vectors
   NREBOOT  =      0    no. of reboots
   NMIN     =      0    reboot dimension
   EREF     =   0.00    reference energy to select bands
   IMIX   =      4    mixing-type and parameters
     AMIX     =   0.40;   BMIX     =  1.00
     AMIX_MAG =   1.60;   BMIX_MAG =  1.00
     AMIN     =   0.10
     WC   =   100.;   INIMIX=   1;  MIXPRE=   1;  MAXMIX= -45

 Intra band minimization:
   WEIMIN = 0.0000     energy-eigenvalue tresh-hold
   EBREAK =  0.16E-08  absolut break condition
   DEPER  =   0.30     relativ break condition  

   TIME   =   0.40     timestep for ELM

  volume/ion in A,a.u.               =       9.25        62.42
  Fermi-wavevector in a.u.,A,eV,Ry     =   1.428347  2.699184 27.758256  2.040174
  Thomas-Fermi vector in A             =   2.548418
 
 Write flags
   LWAVE        =      F    write WAVECAR
   LDOWNSAMPLE  =      F    k-point downsampling of WAVECAR
   LCHARG       =      F    write CHGCAR
   LVTOT        =      F    write LOCPOT, total local potential
   LVHAR        =      F    write LOCPOT, Hartree potential only
   LELF         =      F    write electronic localiz. function (ELF)
   LORBIT       =     11    0 simple, 1 ext, 2 COOP (PROOUT), +10 PAW based schemes


 Dipole corrections
   LMONO  =      F    monopole corrections only (constant potential shift)
   LDIPOL =      F    correct potential (dipole corrections)
   IDIPOL =      0    1-x, 2-y, 3-z, 4-all directions 
   EPSILON=  1.0000000 bulk dielectric constant

 LDA+U is selected, type is set to LDAUTYPE =  2
   angular momentum for each species LDAUL =    -1    2   -1
   U (eV)           for each species LDAUU =   0.0  5.1  0.0
   J (eV)           for each species LDAUJ =   0.0  0.0  0.0
 Exchange correlation treatment:
   GGA     =    --    GGA type
   LEXCH   =     8    internal setting for exchange type
   VOSKOWN=      0    Vosko Wilk Nusair interpolation
   LHFCALC =     F    Hartree Fock is set to
   LHFONE  =     F    Hartree Fock one center treatment
   AEXX    =    0.0000 exact exchange contribution

 Linear response parameters
   LEPSILON=     F    determine dielectric tensor
   LRPA    =     F    only Hartree local field effects (RPA)
   LNABLA  =     F    use nabla operator in PAW spheres
   LVEL    =     F    velocity operator in full k-point grid
   LINTERFAST=   F  fast interpolation
   KINTER  =     0    interpolate to denser k-point grid
   CSHIFT  =0.1000    complex shift for real part using Kramers Kronig
   OMEGAMAX=  -1.0    maximum frequency
   DEG_THRESHOLD= 0.2000000E-02 threshold for treating states as degnerate
   RTIME   =   -0.100 relaxation time in fs
  (WPLASMAI=    0.000 imaginary part of plasma frequency in eV, 0.658/RTIME)
   DFIELD  = 0.0000000 0.0000000 0.0000000 field for delta impulse in time
 
 Orbital magnetization related:
   ORBITALMAG=     F  switch on orbital magnetization
   LCHIMAG   =     F  perturbation theory with respect to B field
   DQ        =  0.001000  dq finite difference perturbation B field
   LLRAUG    =     F  two centre corrections for induced B field



--------------------------------------------------------------------------------------------------------


 Static calculation
 charge density and potential will be updated during run
 spin polarized calculation
 Conjugate gradient for all bands (Freysoldt, et al. PRB 79, 241103 (2009))
 preconditioned conjugated gradient                                        
 perform sub-space diagonalisation
    before iterative eigenvector-optimisation
 modified Broyden-mixing scheme, WC =      100.0
 initial mixing is a Kerker type mixing with AMIX =  0.4000 and BMIX =      1.0000
 Hartree-type preconditioning will be used
 using additional bands           31
 real space projection scheme for non local part
 use partial core corrections
 no Harris-corrections to forces 
 use gradient corrections 
 use of overlap-Matrix (Vanderbilt PP)
 Gauss-broadening in eV      SIGMA  =   0.05


--------------------------------------------------------------------------------------------------------


  energy-cutoff  :      600.00
  volume of cell :      388.46
      direct lattice vectors                 reciprocal lattice vectors
     5.529069901  0.000000000  0.000000000     0.180862246  0.103916492 -0.021179284
    -2.757220745  4.798825741  0.000000000     0.000000000  0.208384312 -0.006343849
     1.458346486  0.445701450 14.640511513     0.000000000  0.000000000  0.068303624

  length of vectors
     5.529069901  5.534527507 14.719714726     0.209662470  0.208480853  0.068303624


 
 k-points in units of 2pi/SCALE and weight: read from INCAR                         
   0.01507185  0.02602507  0.01478231       0.028
   0.04521556  0.04334448  0.01125243       0.028
   0.07535927  0.06066390  0.00772255       0.028
  -0.07535927 -0.02593318  0.02537195       0.028
  -0.04521556 -0.00861376  0.02184207       0.028
  -0.01507185  0.00870565  0.01831219       0.028
   0.01507185  0.06075579  0.01372500       0.028
   0.04521556  0.07807520  0.01019512       0.028
   0.07535927  0.09539462  0.00666524       0.028
  -0.07535927  0.00879754  0.02431465       0.028
  -0.04521556  0.02611695  0.02078476       0.028
  -0.01507185  0.04343637  0.01725488       0.028
   0.01507185  0.09548650  0.01266770       0.028
   0.04521556  0.11280592  0.00913781       0.028
   0.07535927  0.13012533  0.00560793       0.028
  -0.07535927  0.04352826  0.02325734       0.028
  -0.04521556  0.06084767  0.01972746       0.028
  -0.01507185  0.07816709  0.01619758       0.028
   0.01507185 -0.07816709  0.01795424       0.028
   0.04521556 -0.06084767  0.01442436       0.028
   0.07535927 -0.04352826  0.01089447       0.028
  -0.07535927 -0.13012533  0.02854388       0.028
  -0.04521556 -0.11280592  0.02501400       0.028
  -0.01507185 -0.09548650  0.02148412       0.028
   0.01507185 -0.04343637  0.01689693       0.028
   0.04521556 -0.02611695  0.01336705       0.028
   0.07535927 -0.00879754  0.00983717       0.028
  -0.07535927 -0.09539462  0.02748657       0.028
  -0.04521556 -0.07807520  0.02395669       0.028
  -0.01507185 -0.06075579  0.02042681       0.028
   0.01507185 -0.00870565  0.01583962       0.028
   0.04521556  0.00861376  0.01230974       0.028
   0.07535927  0.02593318  0.00877986       0.028
  -0.07535927 -0.06066390  0.02642926       0.028
  -0.04521556 -0.04334448  0.02289938       0.028
  -0.01507185 -0.02602507  0.01936950       0.028
 
 k-points in reciprocal lattice and weights: read from INCAR                         
   0.08333333  0.08333333  0.25000000       0.028
   0.25000000  0.08333333  0.25000000       0.028
   0.41666667  0.08333333  0.25000000       0.028
  -0.41666667  0.08333333  0.25000000       0.028
  -0.25000000  0.08333333  0.25000000       0.028
  -0.08333333  0.08333333  0.25000000       0.028
   0.08333333  0.25000000  0.25000000       0.028
   0.25000000  0.25000000  0.25000000       0.028
   0.41666667  0.25000000  0.25000000       0.028
  -0.41666667  0.25000000  0.25000000       0.028
  -0.25000000  0.25000000  0.25000000       0.028
  -0.08333333  0.25000000  0.25000000       0.028
   0.08333333  0.41666667  0.25000000       0.028
   0.25000000  0.41666667  0.25000000       0.028
   0.41666667  0.41666667  0.25000000       0.028
  -0.41666667  0.41666667  0.25000000       0.028
  -0.25000000  0.41666667  0.25000000       0.028
  -0.08333333  0.41666667  0.25000000       0.028
   0.08333333 -0.41666667  0.25000000       0.028
   0.25000000 -0.41666667  0.25000000       0.028
   0.41666667 -0.41666667  0.25000000       0.028
  -0.41666667 -0.41666667  0.25000000       0.028
  -0.25000000 -0.41666667  0.25000000       0.028
  -0.08333333 -0.41666667  0.25000000       0.028
   0.08333333 -0.25000000  0.25000000       0.028
   0.25000000 -0.25000000  0.25000000       0.028
   0.41666667 -0.25000000  0.25000000       0.028
  -0.41666667 -0.25000000  0.25000000       0.028
  -0.25000000 -0.25000000  0.25000000       0.028
  -0.08333333 -0.25000000  0.25000000       0.028
   0.08333333 -0.08333333  0.25000000       0.028
   0.25000000 -0.08333333  0.25000000       0.028
   0.41666667 -0.08333333  0.25000000       0.028
  -0.41666667 -0.08333333  0.25000000       0.028
  -0.25000000 -0.08333333  0.25000000       0.028
  -0.08333333 -0.08333333  0.25000000       0.028
 
 position of ions in fractional coordinates (direct lattice) 
   0.00656180  0.99223839  0.00706943
   0.50715736  0.93179896  0.99692145
   0.74648808  0.12823433  0.33683043
   0.75494589  0.61909855  0.31681270
   0.50433827  0.26237752  0.66382109
   0.73491091  0.89988538  0.67647775
   0.15661826  0.31391021  0.16452636
   0.18060329  0.81600984  0.16758089
   0.66427036  0.32711600  0.17008558
   0.66988969  0.81999742  0.16530160
   0.91614022  0.95258253  0.49470882
   0.91201305  0.44891237  0.50208013
   0.40945133  0.96639883  0.49470404
   0.40704663  0.44212598  0.49913352
   0.41728720  0.22471510  0.83349819
   0.41644830  0.72935220  0.83804036
   0.94899357  0.24578815  0.83505554
   0.92963256  0.74315872  0.83697488
   0.98471655  0.99081757  0.24363630
   0.98154858  0.47119090  0.23849371
   0.48097515  0.97054853  0.22922628
   0.47238560  0.47199898  0.23378691
   0.35935047  0.14841830  0.10234752
   0.35616162  0.65216609  0.09862770
   0.84970333  0.16941089  0.08886370
   0.86161295  0.67516029  0.09944666
   0.22288521  0.11882797  0.56128436
   0.21041098  0.58395775  0.56595838
   0.71924636  0.12632065  0.56822608
   0.74879157  0.62297522  0.57280583
   0.09593042  0.30687904  0.43206278
   0.09006033  0.77400768  0.42926026
   0.62175511  0.30356458  0.41493359
   0.60171541  0.76448006  0.42760324
   0.23878787  0.36389443  0.90653524
   0.23063084  0.88913856  0.90571565
   0.73768853  0.38478833  0.89557253
   0.75509094  0.90999578  0.90894637
   0.10875733  0.08023354  0.76240093
   0.10319633  0.57483455  0.76919035
   0.61785327  0.07517086  0.76346648
   0.61636323  0.58223383  0.77166291
 
 position of ions in cartesian coordinates  (Angst):
  -2.68922997  4.76472998  0.10350000
   1.68878996  4.91587019 14.59543991
   4.26502991  0.76550001  4.93136978
   2.92917991  3.11214995  4.63829994
   3.03316998  1.55497003  9.71868038
   2.56873012  4.61990023  9.90398026
   0.24037001  1.57973003  2.40875006
  -1.00696003  3.99058008  2.45346999
   3.01890993  1.64558005  2.49013996
   1.68402004  4.00869989  2.42009997
   3.16037989  4.79176998  7.24279022
   4.53704023  2.37803006  7.35070992
   0.32076001  4.85806990  7.24272013
   1.75945997  2.34415007  7.30756998
   2.90315008  1.44985998 12.20283985
   1.51373994  3.87354994 12.26933956
   5.78715992  1.55167997 12.22564030
   4.31155014  3.93933010 12.25374031
   3.06797004  4.86334991  3.56696010
   4.47567987  2.36746001  3.49166989
   0.31762001  4.75965977  3.35598993
   1.65138996  2.36924005  3.42276001
   1.72691000  0.75784999  1.49842000
   0.31490999  3.17358994  1.44395995
   4.36055994  0.85258001  1.30101001
   3.04737997  3.28430009  1.45595002
   1.72326005  0.82040000  8.21749020
   0.37864000  3.05455995  8.28592014
   4.45713997  0.85944998  8.31912041
   3.25779009  3.24484992  8.38617039
   0.31437001  1.66523004  6.32562017
  -1.01014996  3.90564990  6.28458977
   3.20584989  1.64169002  6.07484007
   1.84267998  3.85918999  6.26033020
   1.63898003  2.15031004 13.27213955
   0.14447001  4.67049980 13.26014042
   4.32384014  2.24569011 13.11163998
   2.99145007  4.77202988 13.30743980
   1.49195004  0.72482997 11.16193962
   0.10738000  3.10136008 11.26134014
   4.32228994  0.70100999 11.17753983
   2.92792010  3.13796997 11.29753971
 


--------------------------------------------------------------------------------------------------------


 k-point  1 :   0.0833 0.0833 0.2500  plane waves:   12931
 k-point  2 :   0.2500 0.0833 0.2500  plane waves:   12960
 k-point  3 :   0.4167 0.0833 0.2500  plane waves:   12981
 k-point  4 :  -0.4167 0.0833 0.2500  plane waves:   12981
 k-point  5 :  -0.2500 0.0833 0.2500  plane waves:   12954
 k-point  6 :  -0.0833 0.0833 0.2500  plane waves:   12912
 k-point  7 :   0.0833 0.2500 0.2500  plane waves:   12967
 k-point  8 :   0.2500 0.2500 0.2500  plane waves:   12993
 k-point  9 :   0.4167 0.2500 0.2500  plane waves:   12974
 k-point 10 :  -0.4167 0.2500 0.2500  plane waves:   12977
 k-point 11 :  -0.2500 0.2500 0.2500  plane waves:   12958
 k-point 12 :  -0.0833 0.2500 0.2500  plane waves:   12952
 k-point 13 :   0.0833 0.4167 0.2500  plane waves:   12970
 k-point 14 :   0.2500 0.4167 0.2500  plane waves:   12979
 k-point 15 :   0.4167 0.4167 0.2500  plane waves:   12980
 k-point 16 :  -0.4167 0.4167 0.2500  plane waves:   12958
 k-point 17 :  -0.2500 0.4167 0.2500  plane waves:   12989
 k-point 18 :  -0.0833 0.4167 0.2500  plane waves:   12988
 k-point 19 :   0.0833-0.4167 0.2500  plane waves:   12971
 k-point 20 :   0.2500-0.4167 0.2500  plane waves:   12972
 k-point 21 :   0.4167-0.4167 0.2500  plane waves:   12965
 k-point 22 :  -0.4167-0.4167 0.2500  plane waves:   12968
 k-point 23 :  -0.2500-0.4167 0.2500  plane waves:   12978
 k-point 24 :  -0.0833-0.4167 0.2500  plane waves:   12981
 k-point 25 :   0.0833-0.2500 0.2500  plane waves:   12941
 k-point 26 :   0.2500-0.2500 0.2500  plane waves:   12948
 k-point 27 :   0.4167-0.2500 0.2500  plane waves:   12972
 k-point 28 :  -0.4167-0.2500 0.2500  plane waves:   12987
 k-point 29 :  -0.2500-0.2500 0.2500  plane waves:   12977
 k-point 30 :  -0.0833-0.2500 0.2500  plane waves:   12970
 k-point 31 :   0.0833-0.0833 0.2500  plane waves:   12895
 k-point 32 :   0.2500-0.0833 0.2500  plane waves:   12954
 k-point 33 :   0.4167-0.0833 0.2500  plane waves:   12983
 k-point 34 :  -0.4167-0.0833 0.2500  plane waves:   12967
 k-point 35 :  -0.2500-0.0833 0.2500  plane waves:   12965
 k-point 36 :  -0.0833-0.0833 0.2500  plane waves:   12928

 maximum and minimum number of plane-waves per node :      3273     3211

 maximum number of plane-waves:     12993
 maximum index in each direction: 
   IXMAX=   11   IYMAX=   11   IZMAX=   29
   IXMIN=  -11   IYMIN=  -11   IZMIN=  -29


 real space projection operators:
  total allocation   :       7621.85 KBytes
  max/ min on nodes  :       1909.41       1899.32


 parallel 3D FFT for wavefunctions:
    minimum data exchange during FFTs selected (reduces bandwidth)
 parallel 3D FFT for charge:
    minimum data exchange during FFTs selected (reduces bandwidth)


 total amount of memory used by VASP MPI-rank0   158254. kBytes
=======================================================================

   base      :      30000. kBytes
   nonlr-proj:       4354. kBytes
   fftplans  :       1689. kBytes
   grid      :       4644. kBytes
   one-center:        342. kBytes
   wavefun   :     117225. kBytes
 
     INWAV:  cpu time    0.0000: real time    0.0002
 Broyden mixing: mesh for mixing (old mesh)
   NGX = 23   NGY = 23   NGZ = 59
  (NGX  = 72   NGY  = 72   NGZ  =180)
  gives a total of  31211 points

 initial charge density was supplied:
 charge density of overlapping atoms calculated
 number of electron     258.0000000 magnetization       6.0000000
 keeping initial charge density in first step


--------------------------------------------------------------------------------------------------------


 Maximum index for non-local projection operator          692
 Maximum index for augmentation-charges         1018 (set IRDMAX)


--------------------------------------------------------------------------------------------------------


 First call to EWALD:  gamma=   0.243
 Maximum number of real-space cells 4x 4x 2
 Maximum number of reciprocal cells 2x 2x 5

    FEWALD:  cpu time    0.0054: real time    0.0054


--------------------------------------- Iteration      1(   1)  ---------------------------------------


    POTLOK:  cpu time    0.0722: real time    0.0857
    SETDIJ:  cpu time    0.0177: real time    0.0192
    TRIAL :  cpu time   26.8186: real time   27.1550
    CORREC:  cpu time    0.0041: real time    0.0043
    --------------------------------------------
      LOOP:  cpu time   27.1421: real time   27.4953

 eigenvalue-minimisations  : 23040
 total energy-change (2. order) : 0.3495694E+04  (-0.1391660E+05)
 number of electron     258.0000000 magnetization       6.0000000
 augmentation part      258.0000000 magnetization       6.0000000

 Free energy of the ion-electron system (eV)
  ---------------------------------------------------
  alpha Z        PSCENC =       754.69486880
  Ewald energy   TEWEN  =    -13756.91145722
  -Hartree energ DENC   =     -7288.30035382
  -exchange      EXHF   =         0.00000000
  -V(xc)+E(xc)   XCENC  =       844.36018287
  PAW double counting   =     17015.18481625   -17491.61297812
  entropy T*S    EENTRO =        -0.00622756
  eigenvalues    EBANDS =      3249.41407529
  atomic energy  EATOM  =     20168.87094289
  ---------------------------------------------------
  free energy    TOTEN  =      3495.69386938 eV

  energy without entropy =     3495.70009694  energy(sigma->0) =     3495.69698316


--------------------------------------------------------------------------------------------------------




--------------------------------------- Iteration      1(   2)  ---------------------------------------


    TRIAL :  cpu time   28.2172: real time   28.4252
    CORREC:  cpu time    0.0046: real time    0.0046
    --------------------------------------------
      LOOP:  cpu time   28.2259: real time   28.4340

 eigenvalue-minimisations  : 24800
 total energy-change (2. order) :-0.3084082E+04  (-0.2843311E+04)
 number of electron     258.0000000 magnetization       6.0000000
 augmentation part      258.0000000 magnetization       6.0000000

 Free energy of the ion-electron system (eV)
  ---------------------------------------------------
  alpha Z        PSCENC =       754.69486880
  Ewald energy   TEWEN  =    -13756.91145722
  -Hartree energ DENC   =     -7288.30035382
  -exchange      EXHF   =         0.00000000
  -V(xc)+E(xc)   XCENC  =       844.36018287
  PAW double counting   =     17015.18481625   -17491.61297812
  entropy T*S    EENTRO =        -0.02363057
  eigenvalues    EBANDS =       165.34946631
  atomic energy  EATOM  =     20168.87094289
  ---------------------------------------------------
  free energy    TOTEN  =       411.61185738 eV

  energy without entropy =      411.63548795  energy(sigma->0) =      411.62367267


--------------------------------------------------------------------------------------------------------




--------------------------------------- Iteration      1(   3)  ---------------------------------------


    TRIAL :  cpu time   28.7007: real time   29.1525
    CORREC:  cpu time    0.0045: real time    0.0045
    --------------------------------------------
      LOOP:  cpu time   28.7095: real time   29.1613

 eigenvalue-minimisations  : 25968
 total energy-change (2. order) :-0.6311816E+03  (-0.5758972E+03)
 number of electron     258.0000000 magnetization       6.0000000
 augmentation part      258.0000000 magnetization       6.0000000

 Free energy of the ion-electron system (eV)
  ---------------------------------------------------
  alpha Z        PSCENC =       754.69486880
  Ewald energy   TEWEN  =    -13756.91145722
  -Hartree energ DENC   =     -7288.30035382
  -exchange      EXHF   =         0.00000000
  -V(xc)+E(xc)   XCENC  =       844.36018287
  PAW double counting   =     17015.18481625   -17491.61297812
  entropy T*S    EENTRO =        -0.04185831
  eigenvalues    EBANDS =      -465.81393419
  atomic energy  EATOM  =     20168.87094289
  ---------------------------------------------------
  free energy    TOTEN  =      -219.56977086 eV

  energy without entropy =     -219.52791255  energy(sigma->0) =     -219.54884170


--------------------------------------------------------------------------------------------------------




--------------------------------------- Iteration      1(   4)  ---------------------------------------


    TRIAL :  cpu time   28.9944: real time   29.2989
    CORREC:  cpu time    0.0037: real time    0.0037
    --------------------------------------------
      LOOP:  cpu time   29.0023: real time   29.3069

 eigenvalue-minimisations  : 25264
 total energy-change (2. order) :-0.5065251E+02  (-0.4957635E+02)
 number of electron     258.0000000 magnetization       6.0000000
 augmentation part      258.0000000 magnetization       6.0000000

 Free energy of the ion-electron system (eV)
  ---------------------------------------------------
  alpha Z        PSCENC =       754.69486880
  Ewald energy   TEWEN  =    -13756.91145722
  -Hartree energ DENC   =     -7288.30035382
  -exchange      EXHF   =         0.00000000
  -V(xc)+E(xc)   XCENC  =       844.36018287
  PAW double counting   =     17015.18481625   -17491.61297812
  entropy T*S    EENTRO =        -0.05657265
  eigenvalues    EBANDS =      -516.45173026
  atomic energy  EATOM  =     20168.87094289
  ---------------------------------------------------
  free energy    TOTEN  =      -270.22228126 eV

  energy without entropy =     -270.16570861  energy(sigma->0) =     -270.19399494


--------------------------------------------------------------------------------------------------------




--------------------------------------- Iteration      1(   5)  ---------------------------------------


    TRIAL :  cpu time   31.0380: real time   31.2475
    CORREC:  cpu time    0.0041: real time    0.0041
    CHARGE:  cpu time    0.5446: real time    0.5461
    --------------------------------------------
      LOOP:  cpu time   31.5920: real time   31.8031

 eigenvalue-minimisations  : 28128
 total energy-change (2. order) :-0.1704864E+01  (-0.1701724E+01)
 number of electron     257.9999909 magnetization       6.0000003
 augmentation part       68.1628088 magnetization       4.3663841

 Free energy of the ion-electron system (eV)
  ---------------------------------------------------
  alpha Z        PSCENC =       754.69486880
  Ewald energy   TEWEN  =    -13756.91145722
  -Hartree energ DENC   =     -7288.30035382
  -exchange      EXHF   =         0.00000000
  -V(xc)+E(xc)   XCENC  =       844.36018287
  PAW double counting   =     17015.18481625   -17491.61297812
  entropy T*S    EENTRO =        -0.05703024
  eigenvalues    EBANDS =      -518.15613692
  atomic energy  EATOM  =     20168.87094289
  ---------------------------------------------------
  free energy    TOTEN  =      -271.92714551 eV

  energy without entropy =     -271.87011527  energy(sigma->0) =     -271.89863039


--------------------------------------------------------------------------------------------------------




--------------------------------------- Iteration      1(   6)  ---------------------------------------


    POTLOK:  cpu time    0.0491: real time    0.0491
    SETDIJ:  cpu time    0.0133: real time    0.0133
    TRIAL :  cpu time   15.3496: real time   15.4319
    CORREC:  cpu time    4.9120: real time    4.9297
    CHARGE:  cpu time    0.5402: real time    0.5418
    --------------------------------------------
      LOOP:  cpu time   20.8687: real time   20.9703

 eigenvalue-minimisations  :     0
 total energy-change (2. order) : 0.3448056E+03  (-0.1916041E+03)
 number of electron     257.9999920 magnetization       6.0000002
 augmentation part       71.8593985 magnetization       4.4859632

 Free energy of the ion-electron system (eV)
  ---------------------------------------------------
  alpha Z        PSCENC =       754.69486880
  Ewald energy   TEWEN  =    -13756.91145722
  -Hartree energ DENC   =     -6927.96178213
  -exchange      EXHF   =         0.00000000
  -V(xc)+E(xc)   XCENC  =       877.97800872
  PAW double counting   =     24049.97984713   -24260.54251415
  entropy T*S    EENTRO =        -0.03860536
  eigenvalues    EBANDS =      -833.17243106
  atomic energy  EATOM  =     20168.87094289
  ---------------------------------------------------
  free energy    TOTEN  =        72.87845273 eV

  energy without entropy =       72.91705809  energy(sigma->0) =       72.89775541


--------------------------------------------------------------------------------------------------------




--------------------------------------- Iteration      1(   7)  ---------------------------------------


    POTLOK:  cpu time    0.0493: real time    0.0495
    SETDIJ:  cpu time    0.0134: real time    0.0134
    TRIAL :  cpu time   14.8356: real time   14.9168
    CORREC:  cpu time    4.9822: real time    5.0199
    CHARGE:  cpu time    0.5344: real time    0.5502
    --------------------------------------------
      LOOP:  cpu time   20.4192: real time   20.5540

 eigenvalue-minimisations  :     0
 total energy-change (2. order) :-0.1398225E+03  (-0.1095168E+03)
 number of electron     257.9999927 magnetization       6.0000000
 augmentation part       74.0414355 magnetization       4.3687097

 Free energy of the ion-electron system (eV)
  ---------------------------------------------------
  alpha Z        PSCENC =       754.69486880
  Ewald energy   TEWEN  =    -13756.91145722
  -Hartree energ DENC   =     -6974.08417413
  -exchange      EXHF   =         0.00000000
  -V(xc)+E(xc)   XCENC  =       866.30333898
  PAW double counting   =     24237.47010421   -24595.12444106
  entropy T*S    EENTRO =        -0.03652613
  eigenvalues    EBANDS =      -768.12462386
  atomic energy  EATOM  =     20168.87094289
  ---------------------------------------------------
  free energy    TOTEN  =       -66.94404676 eV

  energy without entropy =      -66.90752063  energy(sigma->0) =      -66.92578369


--------------------------------------------------------------------------------------------------------




--------------------------------------- Iteration      1(   8)  ---------------------------------------


    POTLOK:  cpu time    0.0486: real time    0.0487
    SETDIJ:  cpu time    0.0133: real time    0.0133
    TRIAL :  cpu time   15.0122: real time   15.1510
    CORREC:  cpu time    5.0933: real time    5.1127
    CHARGE:  cpu time    0.5448: real time    0.5466
    --------------------------------------------
      LOOP:  cpu time   20.7164: real time   20.8765

 eigenvalue-minimisations  :     0
 total energy-change (2. order) :-0.7185793E+02  (-0.1047969E+03)
 number of electron     257.9999934 magnetization       5.9999997
 augmentation part       75.2854603 magnetization       3.8629398

 Free energy of the ion-electron system (eV)
  ---------------------------------------------------
  alpha Z        PSCENC =       754.69486880
  Ewald energy   TEWEN  =    -13756.91145722
  -Hartree energ DENC   =     -7064.62901782
  -exchange      EXHF   =         0.00000000
  -V(xc)+E(xc)   XCENC  =       858.27474193
  PAW double counting   =     24205.31728396   -24653.00800219
  entropy T*S    EENTRO =        -0.01599501
  eigenvalues    EBANDS =      -651.37481132
  atomic energy  EATOM  =     20168.87094289
  ---------------------------------------------------
  free energy    TOTEN  =      -138.80197710 eV

  energy without entropy =     -138.78598209  energy(sigma->0) =     -138.79397960


--------------------------------------------------------------------------------------------------------




--------------------------------------- Iteration      1(   9)  ---------------------------------------


    POTLOK:  cpu time    0.0490: real time    0.0493
    SETDIJ:  cpu time    0.0134: real time    0.0134
    TRIAL :  cpu time   15.4107: real time   15.5206
    CORREC:  cpu time    4.8296: real time    4.8450
    CHARGE:  cpu time    0.5496: real time    0.5510
    --------------------------------------------
      LOOP:  cpu time   20.8567: real time   20.9837

 eigenvalue-minimisations  :     0
 total energy-change (2. order) : 0.2910067E+02  (-0.3227117E+02)
 number of electron     257.9999938 magnetization       5.9999997
 augmentation part       77.1143571 magnetization       3.3477410

 Free energy of the ion-electron system (eV)
  ---------------------------------------------------
  alpha Z        PSCENC =       754.69486880
  Ewald energy   TEWEN  =    -13756.91145722
  -Hartree energ DENC   =     -7145.88195348
  -exchange      EXHF   =         0.00000000
  -V(xc)+E(xc)   XCENC  =       852.78795595
  PAW double counting   =     23725.84367201   -24210.36158176
  entropy T*S    EENTRO =        -0.02323324
  eigenvalues    EBANDS =      -498.72775757
  atomic energy  EATOM  =     20168.87094289
  ---------------------------------------------------
  free energy    TOTEN  =      -109.70130539 eV

  energy without entropy =     -109.67807215  energy(sigma->0) =     -109.68968877


--------------------------------------------------------------------------------------------------------




--------------------------------------- Iteration      1(  10)  ---------------------------------------


    POTLOK:  cpu time    0.0499: real time    0.0501
    SETDIJ:  cpu time    0.0134: real time    0.0133
    TRIAL :  cpu time   14.9543: real time   15.0089
    CORREC:  cpu time    4.9420: real time    4.9578
    CHARGE:  cpu time    0.5427: real time    0.5444
    --------------------------------------------
      LOOP:  cpu time   20.5063: real time   20.5786

 eigenvalue-minimisations  :     0
 total energy-change (2. order) :-0.4295958E+02  (-0.3842539E+02)
 number of electron     257.9999940 magnetization       5.9999998
 augmentation part       78.3634596 magnetization       3.1369686

 Free energy of the ion-electron system (eV)
  ---------------------------------------------------
  alpha Z        PSCENC =       754.69486880
  Ewald energy   TEWEN  =    -13756.91145722
  -Hartree energ DENC   =     -7210.31447121
  -exchange      EXHF   =         0.00000000
  -V(xc)+E(xc)   XCENC  =       849.59001502
  PAW double counting   =     23912.98367577   -24461.48026430
  entropy T*S    EENTRO =        -0.02725847
  eigenvalues    EBANDS =      -410.07095716
  atomic energy  EATOM  =     20168.87094289
  ---------------------------------------------------
  free energy    TOTEN  =      -152.66088064 eV

  energy without entropy =     -152.63362217  energy(sigma->0) =     -152.64725141


--------------------------------------------------------------------------------------------------------




--------------------------------------- Iteration      1(  11)  ---------------------------------------


    POTLOK:  cpu time    0.0487: real time    0.0489
    SETDIJ:  cpu time    0.0133: real time    0.0133
    TRIAL :  cpu time   15.2968: real time   15.3879
    CORREC:  cpu time    4.9184: real time    4.9342
    CHARGE:  cpu time    0.5493: real time    0.5507
    --------------------------------------------
      LOOP:  cpu time   20.8308: real time   20.9393

 eigenvalue-minimisations  :     0
 total energy-change (2. order) :-0.1292157E+02  (-0.3591050E+02)
 number of electron     257.9999938 magnetization       5.9999997
 augmentation part       76.4353759 magnetization       3.3594278

 Free energy of the ion-electron system (eV)
  ---------------------------------------------------
  alpha Z        PSCENC =       754.69486880
  Ewald energy   TEWEN  =    -13756.91145722
  -Hartree energ DENC   =     -7276.12004607
  -exchange      EXHF   =         0.00000000
  -V(xc)+E(xc)   XCENC  =       848.40245394
  PAW double counting   =     24110.29888842   -24708.73613727
  entropy T*S    EENTRO =        -0.02622302
  eigenvalues    EBANDS =      -306.05470747
  atomic energy  EATOM  =     20168.87094289
  ---------------------------------------------------
  free energy    TOTEN  =      -165.58245246 eV

  energy without entropy =     -165.55622943  energy(sigma->0) =     -165.56934094


--------------------------------------------------------------------------------------------------------




--------------------------------------- Iteration      1(  12)  ---------------------------------------


    POTLOK:  cpu time    0.0508: real time    0.0510
    SETDIJ:  cpu time    0.0135: real time    0.0134
    TRIAL :  cpu time   15.4173: real time   15.4898
    CORREC:  cpu time    4.9551: real time    4.9763
    CHARGE:  cpu time    0.5452: real time    0.5468
    --------------------------------------------
      LOOP:  cpu time   20.9863: real time   21.0817

 eigenvalue-minimisations  :     0
 total energy-change (2. order) :-0.1036840E+02  (-0.1786745E+02)
 number of electron     257.9999936 magnetization       5.9999998
 augmentation part       76.3668124 magnetization       3.3471468

 Free energy of the ion-electron system (eV)
  ---------------------------------------------------
  alpha Z        PSCENC =       754.69486880
  Ewald energy   TEWEN  =    -13756.91145722
  -Hartree energ DENC   =     -7227.98943369
  -exchange      EXHF   =         0.00000000
  -V(xc)+E(xc)   XCENC  =       849.65727087
  PAW double counting   =     23727.62937907   -24243.03105336
  entropy T*S    EENTRO =        -0.02673079
  eigenvalues    EBANDS =      -448.84514955
  atomic energy  EATOM  =     20168.87094289
  ---------------------------------------------------
  free energy    TOTEN  =      -175.95085521 eV

  energy without entropy =     -175.92412442  energy(sigma->0) =     -175.93748982


--------------------------------------------------------------------------------------------------------




--------------------------------------- Iteration      1(  13)  ---------------------------------------


    POTLOK:  cpu time    0.0484: real time    0.0485
    SETDIJ:  cpu time    0.0134: real time    0.0133
    TRIAL :  cpu time   14.9424: real time   15.0189
    CORREC:  cpu time    5.0165: real time    5.0336
    CHARGE:  cpu time    0.6770: real time    0.6829
    --------------------------------------------
      LOOP:  cpu time   20.7021: real time   20.8016

 eigenvalue-minimisations  :     0
 total energy-change (2. order) :-0.2287272E+02  (-0.3021996E+01)
 number of electron     257.9999936 magnetization       5.9999999
 augmentation part       76.2704031 magnetization       3.3573030

 Free energy of the ion-electron system (eV)
  ---------------------------------------------------
  alpha Z        PSCENC =       754.69486880
  Ewald energy   TEWEN  =    -13756.91145722
  -Hartree energ DENC   =     -7194.70205704
  -exchange      EXHF   =         0.00000000
  -V(xc)+E(xc)   XCENC  =       849.68942486
  PAW double counting   =     23711.37928073   -24222.14903299
  entropy T*S    EENTRO =        -0.02892466
  eigenvalues    EBANDS =      -509.66881819
  atomic energy  EATOM  =     20168.87094289
  ---------------------------------------------------
  free energy    TOTEN  =      -198.82357895 eV

  energy without entropy =     -198.79465429  energy(sigma->0) =     -198.80911662


--------------------------------------------------------------------------------------------------------




--------------------------------------- Iteration      1(  14)  ---------------------------------------


    POTLOK:  cpu time    0.0533: real time    0.0534
    SETDIJ:  cpu time    0.0133: real time    0.0133
    TRIAL :  cpu time   15.0385: real time   15.0997
    CORREC:  cpu time    5.2737: real time    5.2896
    CHARGE:  cpu time    0.5391: real time    0.5408
    --------------------------------------------
      LOOP:  cpu time   20.9184: real time   20.9974

 eigenvalue-minimisations  :     0
 total energy-change (2. order) :-0.3270227E+01  (-0.5797318E+01)
 number of electron     257.9999935 magnetization       5.9999999
 augmentation part       75.7871457 magnetization       3.4796896

 Free energy of the ion-electron system (eV)
  ---------------------------------------------------
  alpha Z        PSCENC =       754.69486880
  Ewald energy   TEWEN  =    -13756.91145722
  -Hartree energ DENC   =     -7189.33271038
  -exchange      EXHF   =         0.00000000
  -V(xc)+E(xc)   XCENC  =       850.01799697
  PAW double counting   =     23706.26203184   -24211.59408590
  entropy T*S    EENTRO =        -0.02789193
  eigenvalues    EBANDS =      -524.07246855
  atomic energy  EATOM  =     20168.87094289
  ---------------------------------------------------
  free energy    TOTEN  =      -202.09380621 eV

  energy without entropy =     -202.06591427  energy(sigma->0) =     -202.07986024


--------------------------------------------------------------------------------------------------------




--------------------------------------- Iteration      1(  15)  ---------------------------------------


    POTLOK:  cpu time    0.0484: real time    0.0485
    SETDIJ:  cpu time    0.0135: real time    0.0135
    TRIAL :  cpu time   14.9945: real time   15.0605
    CORREC:  cpu time    4.9114: real time    4.9179
    CHARGE:  cpu time    0.5370: real time    0.5374
    --------------------------------------------
      LOOP:  cpu time   20.5091: real time   20.5826

 eigenvalue-minimisations  :     0
 total energy-change (2. order) :-0.5603232E+01  (-0.7720701E+01)
 number of electron     257.9999934 magnetization       5.9999999
 augmentation part       74.5388556 magnetization       3.4995475

 Free energy of the ion-electron system (eV)
  ---------------------------------------------------
  alpha Z        PSCENC =       754.69486880
  Ewald energy   TEWEN  =    -13756.91145722
  -Hartree energ DENC   =     -7199.98664928
  -exchange      EXHF   =         0.00000000
  -V(xc)+E(xc)   XCENC  =       851.69130929
  PAW double counting   =     23760.41392005   -24239.20591854
  entropy T*S    EENTRO =        -0.02649925
  eigenvalues    EBANDS =      -547.23616259
  atomic energy  EATOM  =     20168.87094289
  ---------------------------------------------------
  free energy    TOTEN  =      -207.69703854 eV

  energy without entropy =     -207.67053929  energy(sigma->0) =     -207.68378891


--------------------------------------------------------------------------------------------------------




--------------------------------------- Iteration      1(  16)  ---------------------------------------


    POTLOK:  cpu time    0.0486: real time    0.0495
    SETDIJ:  cpu time    0.0134: real time    0.0135
    TRIAL :  cpu time   14.7184: real time   15.0963
    CORREC:  cpu time    5.0890: real time    5.1563
    CHARGE:  cpu time    0.5299: real time    0.5542
    --------------------------------------------
      LOOP:  cpu time   20.3999: real time   20.8749

 eigenvalue-minimisations  :     0
 total energy-change (2. order) :-0.7413711E+00  (-0.6628991E+01)
 number of electron     257.9999934 magnetization       5.9999999
 augmentation part       74.1192883 magnetization       3.5649835

 Free energy of the ion-electron system (eV)
  ---------------------------------------------------
  alpha Z        PSCENC =       754.69486880
  Ewald energy   TEWEN  =    -13756.91145722
  -Hartree energ DENC   =     -7178.59404541
  -exchange      EXHF   =         0.00000000
  -V(xc)+E(xc)   XCENC  =       852.63365781
  PAW double counting   =     23906.06608695   -24330.28988133
  entropy T*S    EENTRO =        -0.02562752
  eigenvalues    EBANDS =      -624.88208290
  atomic energy  EATOM  =     20168.87094289
  ---------------------------------------------------
  free energy    TOTEN  =      -208.43840966 eV

  energy without entropy =     -208.41278214  energy(sigma->0) =     -208.42559590


--------------------------------------------------------------------------------------------------------




--------------------------------------- Iteration      1(  17)  ---------------------------------------


    POTLOK:  cpu time    0.0484: real time    0.0498
    SETDIJ:  cpu time    0.0131: real time    0.0137
    TRIAL :  cpu time   14.5653: real time   14.9952
    CORREC:  cpu time    5.1101: real time    5.1800
    CHARGE:  cpu time    0.5434: real time    0.5439
    --------------------------------------------
      LOOP:  cpu time   20.2808: real time   20.7866

 eigenvalue-minimisations  :     0
 total energy-change (2. order) :-0.1108470E+01  (-0.2258419E+01)
 number of electron     257.9999935 magnetization       5.9999999
 augmentation part       74.4729991 magnetization       3.6127589

 Free energy of the ion-electron system (eV)
  ---------------------------------------------------
  alpha Z        PSCENC =       754.69486880
  Ewald energy   TEWEN  =    -13756.91145722
  -Hartree energ DENC   =     -7200.37218422
  -exchange      EXHF   =         0.00000000
  -V(xc)+E(xc)   XCENC  =       853.61531623
  PAW double counting   =     24206.57777159   -24608.12925430
  entropy T*S    EENTRO =        -0.02620276
  eigenvalues    EBANDS =      -627.86725610
  atomic energy  EATOM  =     20168.87094289
  ---------------------------------------------------
  free energy    TOTEN  =      -209.54687985 eV

  energy without entropy =     -209.52067709  energy(sigma->0) =     -209.53377847


--------------------------------------------------------------------------------------------------------




--------------------------------------- Iteration      1(  18)  ---------------------------------------


    POTLOK:  cpu time    0.0482: real time    0.0482
    SETDIJ:  cpu time    0.0313: real time    0.0314
    TRIAL :  cpu time   15.1602: real time   15.2099
    CORREC:  cpu time    4.9135: real time    4.9206
    CHARGE:  cpu time    0.5371: real time    0.5376
    --------------------------------------------
      LOOP:  cpu time   20.6949: real time   20.7523

 eigenvalue-minimisations  :     0
 total energy-change (2. order) :-0.1369659E+01  (-0.2816485E+01)
 number of electron     257.9999936 magnetization       5.9999999
 augmentation part       75.0894391 magnetization       3.6166804

 Free energy of the ion-electron system (eV)
  ---------------------------------------------------
  alpha Z        PSCENC =       754.69486880
  Ewald energy   TEWEN  =    -13756.91145722
  -Hartree energ DENC   =     -7241.12433037
  -exchange      EXHF   =         0.00000000
  -V(xc)+E(xc)   XCENC  =       854.26469459
  PAW double counting   =     24472.22723213   -24881.91159460
  entropy T*S    EENTRO =        -0.02541712
  eigenvalues    EBANDS =      -581.00069264
  atomic energy  EATOM  =     20168.87094289
  ---------------------------------------------------
  free energy    TOTEN  =      -210.91653918 eV

  energy without entropy =     -210.89112206  energy(sigma->0) =     -210.90383062


--------------------------------------------------------------------------------------------------------




--------------------------------------- Iteration      1(  19)  ---------------------------------------


    POTLOK:  cpu time    0.0483: real time    0.0484
    SETDIJ:  cpu time    0.0133: real time    0.0133
    TRIAL :  cpu time   14.9914: real time   15.0161
    CORREC:  cpu time    5.0295: real time    5.0819
    CHARGE:  cpu time    0.5237: real time    0.5482
    --------------------------------------------
      LOOP:  cpu time   20.6105: real time   20.7122

 eigenvalue-minimisations  :     0
 total energy-change (2. order) :-0.2478052E+01  (-0.1485618E+01)
 number of electron     257.9999937 magnetization       5.9999999
 augmentation part       75.5582539 magnetization       3.6160636

 Free energy of the ion-electron system (eV)
  ---------------------------------------------------
  alpha Z        PSCENC =       754.69486880
  Ewald energy   TEWEN  =    -13756.91145722
  -Hartree energ DENC   =     -7284.85044149
  -exchange      EXHF   =         0.00000000
  -V(xc)+E(xc)   XCENC  =       854.63476847
  PAW double counting   =     24743.20270141   -25171.53648622
  entropy T*S    EENTRO =        -0.02410854
  eigenvalues    EBANDS =      -521.47407090
  atomic energy  EATOM  =     20168.87094289
  ---------------------------------------------------
  free energy    TOTEN  =      -213.39459139 eV

  energy without entropy =     -213.37048284  energy(sigma->0) =     -213.38253711


--------------------------------------------------------------------------------------------------------




--------------------------------------- Iteration      1(  20)  ---------------------------------------


    POTLOK:  cpu time    0.0482: real time    0.0491
    SETDIJ:  cpu time    0.0132: real time    0.0134
    TRIAL :  cpu time   14.5368: real time   14.8693
    CORREC:  cpu time    5.0600: real time    5.2397
    CHARGE:  cpu time    0.5240: real time    0.5467
    --------------------------------------------
      LOOP:  cpu time   20.1829: real time   20.7232

 eigenvalue-minimisations  :     0
 total energy-change (2. order) :-0.1182479E+01  (-0.1055039E+01)
 number of electron     257.9999938 magnetization       5.9999999
 augmentation part       76.0720432 magnetization       3.6097993

 Free energy of the ion-electron system (eV)
  ---------------------------------------------------
  alpha Z        PSCENC =       754.69486880
  Ewald energy   TEWEN  =    -13756.91145722
  -Hartree energ DENC   =     -7310.21589516
  -exchange      EXHF   =         0.00000000
  -V(xc)+E(xc)   XCENC  =       854.71341426
  PAW double counting   =     24847.93019399   -25292.24759967
  entropy T*S    EENTRO =        -0.02379886
  eigenvalues    EBANDS =      -481.38742945
  atomic energy  EATOM  =     20168.87094289
  ---------------------------------------------------
  free energy    TOTEN  =      -214.57707010 eV

  energy without entropy =     -214.55327124  energy(sigma->0) =     -214.56517067


--------------------------------------------------------------------------------------------------------




--------------------------------------- Iteration      1(  21)  ---------------------------------------


    POTLOK:  cpu time    0.0483: real time    0.0492
    SETDIJ:  cpu time    0.0133: real time    0.0135
    TRIAL :  cpu time   14.4015: real time   15.0507
    CORREC:  cpu time    5.1009: real time    5.1103
    CHARGE:  cpu time    0.5374: real time    0.5384
    --------------------------------------------
      LOOP:  cpu time   20.1020: real time   20.7667

 eigenvalue-minimisations  :     0
 total energy-change (2. order) :-0.1102229E+01  (-0.1136023E+01)
 number of electron     257.9999938 magnetization       5.9999999
 augmentation part       76.4740912 magnetization       3.6019438

 Free energy of the ion-electron system (eV)
  ---------------------------------------------------
  alpha Z        PSCENC =       754.69486880
  Ewald energy   TEWEN  =    -13756.91145722
  -Hartree energ DENC   =     -7328.76639168
  -exchange      EXHF   =         0.00000000
  -V(xc)+E(xc)   XCENC  =       854.57949991
  PAW double counting   =     24848.92214689   -25311.80596029
  entropy T*S    EENTRO =        -0.02421995
  eigenvalues    EBANDS =      -445.23914934
  atomic energy  EATOM  =     20168.87094289
  ---------------------------------------------------
  free energy    TOTEN  =      -215.67929890 eV

  energy without entropy =     -215.65507895  energy(sigma->0) =     -215.66718892


--------------------------------------------------------------------------------------------------------




--------------------------------------- Iteration      1(  22)  ---------------------------------------


    POTLOK:  cpu time    0.0490: real time    0.0491
    SETDIJ:  cpu time    0.0134: real time    0.0134
    TRIAL :  cpu time   14.7448: real time   15.0630
    CORREC:  cpu time    4.7300: real time    4.9060
    CHARGE:  cpu time    0.5308: real time    0.5586
    --------------------------------------------
      LOOP:  cpu time   20.0722: real time   20.5942

 eigenvalue-minimisations  :     0
 total energy-change (2. order) :-0.1110668E+01  (-0.1364865E+01)
 number of electron     257.9999937 magnetization       6.0000000
 augmentation part       76.6251658 magnetization       3.6172648

 Free energy of the ion-electron system (eV)
  ---------------------------------------------------
  alpha Z        PSCENC =       754.69486880
  Ewald energy   TEWEN  =    -13756.91145722
  -Hartree energ DENC   =     -7329.48485823
  -exchange      EXHF   =         0.00000000
  -V(xc)+E(xc)   XCENC  =       854.26833577
  PAW double counting   =     24765.00850709   -25242.87385722
  entropy T*S    EENTRO =        -0.02356113
  eigenvalues    EBANDS =      -430.33822859
  atomic energy  EATOM  =     20168.87094289
  ---------------------------------------------------
  free energy    TOTEN  =      -216.78996667 eV

  energy without entropy =     -216.76640553  energy(sigma->0) =     -216.77818610


--------------------------------------------------------------------------------------------------------




--------------------------------------- Iteration      1(  23)  ---------------------------------------


    POTLOK:  cpu time    0.0486: real time    0.0487
    SETDIJ:  cpu time    0.0133: real time    0.0133
    TRIAL :  cpu time   15.2354: real time   15.2633
    CORREC:  cpu time    4.9662: real time    4.9719
    CHARGE:  cpu time    0.5389: real time    0.5393
    --------------------------------------------
      LOOP:  cpu time   20.8067: real time   20.8408

 eigenvalue-minimisations  :     0
 total energy-change (2. order) :-0.1338455E+01  (-0.1211242E+01)
 number of electron     257.9999936 magnetization       6.0000000
 augmentation part       76.5489256 magnetization       3.6420661

 Free energy of the ion-electron system (eV)
  ---------------------------------------------------
  alpha Z        PSCENC =       754.69486880
  Ewald energy   TEWEN  =    -13756.91145722
  -Hartree energ DENC   =     -7291.74624390
  -exchange      EXHF   =         0.00000000
  -V(xc)+E(xc)   XCENC  =       853.60141658
  PAW double counting   =     24511.91584959   -24996.03851894
  entropy T*S    EENTRO =        -0.02320270
  eigenvalues    EBANDS =      -462.49171799
  atomic energy  EATOM  =     20168.87094289
  ---------------------------------------------------
  free energy    TOTEN  =      -218.12842133 eV

  energy without entropy =     -218.10521863  energy(sigma->0) =     -218.11681998


--------------------------------------------------------------------------------------------------------




--------------------------------------- Iteration      1(  24)  ---------------------------------------


    POTLOK:  cpu time    0.0482: real time    0.0482
    SETDIJ:  cpu time    0.0133: real time    0.0133
    TRIAL :  cpu time   15.0901: real time   15.1120
    CORREC:  cpu time    4.9218: real time    4.9281
    CHARGE:  cpu time    0.5366: real time    0.5372
    --------------------------------------------
      LOOP:  cpu time   20.6145: real time   20.6434

 eigenvalue-minimisations  :     0
 total energy-change (2. order) :-0.1174606E+01  (-0.4911348E+00)
 number of electron     257.9999935 magnetization       6.0000000
 augmentation part       76.3326922 magnetization       3.6676116

 Free energy of the ion-electron system (eV)
  ---------------------------------------------------
  alpha Z        PSCENC =       754.69486880
  Ewald energy   TEWEN  =    -13756.91145722
  -Hartree energ DENC   =     -7246.44021836
  -exchange      EXHF   =         0.00000000
  -V(xc)+E(xc)   XCENC  =       852.93718496
  PAW double counting   =     24264.56654856   -24746.51305958
  entropy T*S    EENTRO =        -0.02317908
  eigenvalues    EBANDS =      -510.48463470
  atomic energy  EATOM  =     20168.87094289
  ---------------------------------------------------
  free energy    TOTEN  =      -219.30302735 eV

  energy without entropy =     -219.27984827  energy(sigma->0) =     -219.29143781


--------------------------------------------------------------------------------------------------------




--------------------------------------- Iteration      1(  25)  ---------------------------------------


    POTLOK:  cpu time    0.0485: real time    0.0485
    SETDIJ:  cpu time    0.0133: real time    0.0133
    TRIAL :  cpu time   14.7296: real time   14.7551
    CORREC:  cpu time    4.9554: real time    4.9614
    CHARGE:  cpu time    0.5370: real time    0.5374
    --------------------------------------------
      LOOP:  cpu time   20.2881: real time   20.3201

 eigenvalue-minimisations  :     0
 total energy-change (2. order) :-0.4804980E+00  (-0.3651762E+00)
 number of electron     257.9999934 magnetization       6.0000000
 augmentation part       76.0908140 magnetization       3.6957937

[...]
   20        1.566   3.438   0.000   5.004
   21        1.574   3.451   0.000   5.025
   22        1.573   3.425   0.000   4.999
   23        1.569   3.436   0.000   5.004
   24        1.573   3.424   0.000   4.997
   25        1.568   3.405   0.000   4.973
   26        1.572   3.422   0.000   4.994
   27        1.571   3.473   0.000   5.044
   28        1.584   3.360   0.000   4.944
   29        1.563   3.456   0.000   5.019
   30        1.566   3.412   0.000   4.979
   31        1.580   3.397   0.000   4.976
   32        1.576   3.394   0.000   4.970
   33        1.566   3.422   0.000   4.988
   34        1.564   3.431   0.000   4.995
   35        1.577   3.407   0.000   4.984
   36        1.563   3.472   0.000   5.035
   37        1.578   3.389   0.000   4.967
   38        1.563   3.461   0.000   5.024
   39        1.572   3.426   0.000   4.998
   40        1.583   3.376   0.000   4.960
   41        1.563   3.442   0.000   5.005
   42        1.564   3.452   0.000   5.016
--------------------------------------------------
tot         43.715  92.046  87.922 223.683
 


 magnetization (x)
 
# of ion       s       p       d       tot
------------------------------------------
    1        0.001   0.000   0.000   0.002
    2        0.000  -0.001   0.000  -0.001
    3       -0.000  -0.003   0.000  -0.003
    4        0.001   0.001   0.000   0.002
    5        0.001   0.000   0.000   0.001
    6        0.001   0.000   0.000   0.001
    7        0.002   0.003   0.001   0.006
    8        0.010   0.013   1.266   1.289
    9        0.005   0.006  -0.016  -0.005
   10        0.012   0.015   1.335   1.362
   11        0.003   0.005  -0.012  -0.004
   12        0.008   0.011   1.154   1.173
   13        0.004   0.004   0.022   0.030
   14        0.010   0.010   1.294   1.315
   15        0.004   0.005   0.001   0.010
   16        0.003   0.003   0.003   0.009
   17        0.010   0.012   1.237   1.259
   18        0.010   0.013   1.282   1.305
   19       -0.000  -0.118   0.000  -0.118
   20        0.000  -0.031   0.000  -0.030
   21        0.001  -0.046   0.000  -0.046
   22        0.000  -0.075   0.000  -0.075
   23        0.000  -0.053   0.000  -0.053
   24        0.000  -0.108   0.000  -0.108
   25        0.000  -0.065   0.000  -0.065
   26        0.001  -0.066   0.000  -0.066
   27       -0.000  -0.022   0.000  -0.022
   28        0.000  -0.124   0.000  -0.124
   29        0.000  -0.007   0.000  -0.007
   30        0.000  -0.072   0.000  -0.071
   31        0.000  -0.127   0.000  -0.127
   32        0.000  -0.044   0.000  -0.044
   33        0.001  -0.046   0.000  -0.045
   34        0.000  -0.022   0.000  -0.021
   35        0.000  -0.055   0.000  -0.055
   36        0.000  -0.025   0.000  -0.025
   37        0.000  -0.115   0.000  -0.114
   38        0.000  -0.047   0.000  -0.047
   39        0.001  -0.053   0.000  -0.052
   40        0.001  -0.125   0.000  -0.124
   41        0.000  -0.042   0.000  -0.042
   42       -0.000  -0.046   0.000  -0.046
--------------------------------------------------
tot          0.092  -1.434   7.566   6.224
 
    FORLOC:  cpu time    0.0083: real time    0.0083
    FORNL :  cpu time    4.9682: real time    4.9713
    STRESS:  cpu time   14.8080: real time   14.8380
    FORCOR:  cpu time    0.0510: real time    0.0510
    OFIELD:  cpu time    0.0005: real time    0.0006

  DFT-D2 method for vdW energy calculation
  -------------------------------------------------------------------

  Parameters of vdW forcefield:
         C6(Jnm^6/mol)     R0(A)
   -----------------------------
   Li       1.610          0.825
   Co      10.800          1.562
   O        0.700          1.342

  IVDW =   1
  VDW_RADIUS =    50.000 A
  VDW_S6 =     0.750
  VDW_SR =     1.000
  VDW_D =    20.000
  LVDW_EWALD = F

  Number of pair interactions contributing to vdW energy: 1217603
  Edisp (eV):   -9.39854
    FORVDW:  cpu time    0.1779: real time    0.1788

  FORCE on cell =-STRESS in cart. coord.  units (eV):
  Direction    XX          YY          ZZ          XY          YZ          ZX
  --------------------------------------------------------------------------------------
  Alpha Z   754.69487   754.69487   754.69487
  Ewald   -1372.96494 -1505.75253-10878.26340   -73.47693    47.49640   -72.48778
  Hartree  4828.36981  4773.26197 -2358.55418   -22.65897    19.82660   -26.49128
  E(xc)   -1287.15413 -1286.77036 -1287.55216    -0.03189    -0.22846     0.02773
  Local   -8425.39653 -8231.19176  8250.62730    89.21751   -70.77566    94.00382
  n-local  -589.86341  -591.64251  -593.97172    -2.02064     2.00557    -2.97123
  augment  2027.38623  2018.93717  1992.76867     2.43035     2.93268     1.85736
  Kinetic  4085.96410  4082.69806  4126.64979     3.80539     3.61692     0.23099
  Fock        0.00000     0.00000     0.00000     0.00000     0.00000     0.00000
  vdW        -6.49891    -6.12277   -12.25602    -0.30192    -0.15962    -0.09050
  -------------------------------------------------------------------------------------
  Total      14.53709     8.11214    -5.85685    -3.03711     4.71443    -5.92089
  in kB      59.95766    33.45823   -24.15635   -12.52644    19.44447   -24.42050
  external pressure =       23.09 kB  Pullay stress =        0.00 kB


 VOLUME and BASIS-vectors are now :
 -----------------------------------------------------------------------------
  energy-cutoff  :      600.00
  volume of cell :      388.46
      direct lattice vectors                 reciprocal lattice vectors
     5.529069901  0.000000000  0.000000000     0.180862246  0.103916492 -0.021179284
    -2.757220745  4.798825741  0.000000000     0.000000000  0.208384312 -0.006343849
     1.458346486  0.445701450 14.640511513     0.000000000  0.000000000  0.068303624

  length of vectors
     5.529069901  5.534527507 14.719714726     0.209662470  0.208480853  0.068303624


 FORCES acting on ions:
    Electron-Ion                     Ewald-Force                    Non-Local-Force
 -----------------------------------------------------------------------------------------------
   -.549E+01 -.662E-01 0.557E+01   0.517E+01 0.171E+00 -.564E+01   0.846E+00 0.225E+00 -.256E+00
   0.483E+01 -.292E+01 -.246E+01   -.454E+01 0.273E+01 0.245E+01   -.861E+00 0.699E+00 0.647E+00
   -.415E+01 0.652E+01 0.365E+01   0.380E+01 -.612E+01 -.327E+01   0.114E+01 -.874E+00 -.100E+01
   -.131E+01 -.378E+01 -.167E+02   0.103E+01 0.364E+01 0.171E+02   0.559E+00 0.342E+00 0.653E+00
   0.240E+01 -.126E+00 -.254E+01   -.208E+01 0.617E-01 0.226E+01   -.248E+00 0.128E+00 0.145E+00
   -.188E+01 0.367E+01 0.146E+02   0.154E+01 -.340E+01 -.143E+02   0.891E+00 -.483E+00 -.100E+01
   0.689E+00 0.284E+02 0.417E+02   0.728E-01 -.285E+02 -.408E+02   0.512E+00 -.138E+00 -.405E+00
   0.618E+02 0.201E+02 -.164E+02   -.637E+02 -.204E+02 0.173E+02   -.761E+00 0.188E-01 -.151E+00
   -.281E+02 -.184E+02 -.431E+01   0.288E+02 0.176E+02 0.225E+01   0.791E+00 -.214E+00 -.130E+00
   -.368E+02 -.183E+02 0.254E+01   0.370E+02 0.184E+02 -.240E+01   0.400E-02 0.339E+00 0.217E+00
   0.473E+02 0.880E+01 -.228E+02   -.477E+02 -.102E+02 0.220E+02   -.574E+00 0.785E+00 0.136E+01
   0.447E+02 -.264E+01 -.630E+02   -.453E+02 0.387E+01 0.623E+02   -.246E+00 -.120E+00 -.733E+00
   -.521E+02 0.404E+02 -.177E+02   0.530E+02 -.425E+02 0.167E+02   0.101E+01 -.684E+00 0.320E+00
   -.550E+02 -.385E+02 -.558E+02   0.547E+02 0.410E+02 0.540E+02   0.905E+00 -.505E+00 0.403E+00
   -.363E+02 0.455E-01 0.773E+02   0.385E+02 0.893E+00 -.764E+02   -.330E+00 -.375E+00 -.105E+01
   -.220E+02 -.906E+01 0.533E+01   0.227E+02 0.918E+01 -.622E+01   0.535E+00 0.126E+00 0.109E+01
   0.402E+02 0.865E+01 0.476E+02   -.427E+02 -.949E+01 -.477E+02   -.330E+00 -.674E+00 0.544E-01
   0.165E+02 0.128E+02 0.305E+02   -.172E+02 -.146E+02 -.308E+02   0.160E+00 0.155E+00 -.132E+00
   -.850E+01 0.130E+02 -.330E+03   0.122E+02 -.105E+02 0.348E+03   -.413E+01 -.372E+01 -.200E+02
   0.166E+01 -.101E+02 -.337E+03   0.217E+01 0.109E+02 0.357E+03   -.469E+01 -.133E+00 -.210E+02
   -.733E+01 -.999E+01 -.360E+03   0.678E+01 0.113E+02 0.384E+03   0.122E+01 -.642E+00 -.226E+02
   0.188E+02 -.795E+01 -.346E+03   -.259E+02 0.623E+01 0.368E+03   0.680E+01 0.279E+01 -.218E+02
   0.160E+02 -.162E+02 0.352E+03   -.157E+02 0.205E+02 -.373E+03   -.121E+01 -.449E+01 0.197E+02
   -.355E+01 0.166E+02 0.363E+03   0.448E+01 -.214E+02 -.385E+03   -.107E+01 0.532E+01 0.213E+02
   0.311E+01 -.113E+02 0.334E+03   -.682E+01 0.159E+02 -.352E+03   0.418E+01 -.559E+01 0.192E+02
   -.157E+02 0.148E+02 0.346E+03   0.184E+02 -.204E+02 -.367E+03   -.208E+01 0.540E+01 0.220E+02
   -.897E+01 0.207E+02 -.382E+03   0.579E+01 -.250E+02 0.406E+03   0.369E+01 0.410E+01 -.226E+02
   -.288E+02 -.638E+02 -.377E+03   0.297E+02 0.690E+02 0.403E+03   -.294E+00 -.350E+01 -.254E+02
   0.431E+01 0.567E+02 -.358E+03   -.263E+01 -.606E+02 0.375E+03   -.164E+01 0.266E+01 -.180E+02
   0.357E+02 -.118E+02 -.363E+03   -.362E+02 0.141E+02 0.381E+03   -.999E+00 -.299E+01 -.185E+02
   -.149E+02 0.134E+02 0.331E+03   0.169E+02 -.119E+02 -.357E+03   -.132E+01 -.256E+01 0.250E+02
   -.172E+02 -.150E+02 0.319E+03   0.187E+02 0.140E+02 -.343E+03   -.143E+01 0.182E+01 0.245E+02
   0.135E+02 0.125E+02 0.291E+03   -.158E+02 -.958E+01 -.306E+03   0.151E+01 -.295E+01 0.178E+02
   0.308E+02 -.231E+02 0.286E+03   -.339E+02 0.232E+02 -.303E+03   0.221E+01 0.143E+01 0.178E+02
   -.520E+01 -.470E+02 -.343E+03   0.673E+01 0.505E+02 0.368E+03   -.280E+01 -.177E+01 -.251E+02
   -.217E+02 0.868E+01 -.329E+03   0.222E+02 -.799E+01 0.348E+03   -.455E+00 -.467E+00 -.192E+02
   0.812E+01 -.477E+01 -.318E+03   -.982E+01 0.496E+01 0.342E+03   0.200E+01 0.557E+00 -.227E+02
   0.322E+02 0.233E+02 -.304E+03   -.334E+02 -.240E+02 0.318E+03   0.946E+00 0.358E+00 -.158E+02
   -.620E+01 0.152E+02 0.397E+03   0.672E+01 -.170E+02 -.420E+03   0.522E-01 0.124E+01 0.229E+02
   -.440E+01 -.139E+02 0.388E+03   0.395E+01 0.150E+02 -.416E+03   0.129E+01 -.561E+00 0.274E+02
   -.632E+01 0.948E+01 0.352E+03   0.727E+01 -.831E+01 -.367E+03   -.981E+00 -.142E+01 0.157E+02
   0.525E+01 -.177E+00 0.360E+03   -.500E+01 -.122E+01 -.378E+03   -.409E+00 0.126E+01 0.180E+02
 -----------------------------------------------------------------------------------------------
   -.443E+01 0.512E+01 0.131E+01   0.648E-13 -.666E-13 0.568E-13   0.437E+01 -.512E+01 -.132E+01
 
 
 POSITION                                       TOTAL-FORCE (eV/Angst)
 -----------------------------------------------------------------------------------
     -2.68923      4.76473      0.10350         0.402750      0.385680     -0.207075
      1.68879      4.91587     14.59544        -0.360223      0.530748      0.620664
      4.26503      0.76550      4.93137         0.628387     -0.308152     -0.345840
      2.92918      3.11215      4.63830         0.248495      0.194234      0.922465
      3.03317      1.55497      9.71868         0.055719      0.081836     -0.276629
      2.56873      4.61990      9.90398         0.479849     -0.070105     -0.489301
      0.24037      1.57973      2.40875         1.154027     -0.195233      0.460967
     -1.00696      3.99058      2.45347        -2.302709     -0.127868      0.636828
      3.01891      1.64558      2.49014         1.327456     -0.951986     -1.895471
      1.68402      4.00870      2.42010         0.197883      0.348225      0.300981
      3.16038      4.79177      7.24279        -0.907783     -0.659480      0.455489
      4.53704      2.37803      7.35071        -0.589663      1.013560     -1.357264
      0.32076      4.85807      7.24272         1.732852     -2.377041     -0.691293
      1.75946      2.34415      7.30757         0.343806      1.808725     -1.209910
      2.90315      1.44986     12.20284         1.701012      0.546166      0.073307
      1.51374      3.87355     12.26934         1.129450      0.245349      0.019174
      5.78716      1.55168     12.22564        -2.555872     -1.418509     -0.009897
      4.31155      3.93933     12.25374        -0.492883     -1.507198     -0.373119
      3.06797      4.86335      3.56696        -0.408209     -1.092883     -1.583960
      4.47568      2.36746      3.49167        -0.791509      0.677901     -0.585282
      0.31762      4.75966      3.35599         0.619761      0.638778      1.251278
      1.65139      2.36924      3.42276        -0.327708      1.047675      0.249409
      1.72691      0.75785      1.49842        -0.952566     -0.192644     -0.972529
      0.31491      3.17359      1.44396        -0.129080      0.431543     -0.434601
      4.36056      0.85258      1.30101         0.441265     -0.879892      1.513788
      3.04738      3.28430      1.45595         0.606204     -0.320061      0.425807
      1.72326      0.82040      8.21749         0.433674     -0.176956      1.010043
      0.37864      3.05456      8.28592         0.719505      1.667541      0.248167
      4.45714      0.85945      8.31912         0.054607     -1.264387     -0.267053
      3.25779      3.24485      8.38617        -1.468389     -0.722350     -0.647115
      0.31437      1.66523      6.32562         0.630062     -1.177681     -0.568271
     -1.01015      3.90565      6.28459         0.097436      0.829691      0.216877
      3.20585      1.64169      6.07484        -0.841234     -0.143203      2.526248
      1.84268      3.85919      6.26033        -0.896540      1.515672      0.403428
      1.63898      2.15031     13.27214        -1.273123      1.774253      0.038181
      0.14447      4.67050     13.26014         0.093403      0.160488      0.038908
      4.32384      2.24569     13.11164         0.304309      0.712563      1.034887
      2.99145      4.77203     13.30744        -0.361034     -0.489784     -0.972120
      1.49195      0.72483     11.16194         0.571680     -0.557633      0.091018
      0.10738      3.10136     11.26134         0.857110      0.493960      0.043921
      4.32229      0.70101     11.17754        -0.023788     -0.260966      0.852680
      2.92792      3.13797     11.29754        -0.148389     -0.210577     -0.547789
 -----------------------------------------------------------------------------------
    total drift:                               -0.057092     -0.004471     -0.016216


--------------------------------------------------------------------------------------------------------



  FREE ENERGIE OF THE ION-ELECTRON SYSTEM (eV)
  ---------------------------------------------------
  free  energy   TOTEN  =      -233.62959467 eV

  energy  without entropy=     -233.62959467  energy(sigma->0) =     -233.62959467
 


--------------------------------------------------------------------------------------------------------


    POTLOK:  cpu time    0.0662: real time    0.0662


--------------------------------------------------------------------------------------------------------


     LOOP+:  cpu time 4166.4073: real time 4200.3808
    4ORBIT:  cpu time    0.0000: real time    0.0000
 


 total charge     
 
# of ion       s       p       d       tot
------------------------------------------
    1        0.093   0.196   0.000   0.289
    2        0.095   0.198   0.000   0.293
    3        0.093   0.195   0.000   0.288
    4        0.093   0.197   0.000   0.289
    5        0.072   0.145   0.000   0.217
    6        0.088   0.181   0.000   0.268
    7        0.436   0.694   7.377   8.507
    8        0.475   0.765   7.254   8.493
    9        0.449   0.717   7.420   8.586
   10        0.468   0.753   7.253   8.474
   11        0.436   0.683   7.394   8.513
   12        0.504   0.851   7.310   8.664
   13        0.408   0.608   7.329   8.345
   14        0.468   0.751   7.251   8.471
   15        0.460   0.749   7.455   8.664
   16        0.423   0.649   7.365   8.438
   17        0.485   0.793   7.274   8.551
   18        0.472   0.770   7.240   8.482
   19        1.571   3.378   0.000   4.949
   20        1.566   3.438   0.000   5.004
   21        1.574   3.451   0.000   5.025
   22        1.573   3.425   0.000   4.999
   23        1.569   3.436   0.000   5.004
   24        1.573   3.424   0.000   4.997
   25        1.568   3.405   0.000   4.973
   26        1.572   3.422   0.000   4.994
   27        1.571   3.473   0.000   5.044
   28        1.584   3.360   0.000   4.944
   29        1.563   3.456   0.000   5.019
   30        1.566   3.412   0.000   4.979
   31        1.580   3.397   0.000   4.976
   32        1.576   3.394   0.000   4.970
   33        1.566   3.422   0.000   4.988
   34        1.564   3.431   0.000   4.995
   35        1.577   3.407   0.000   4.984
   36        1.563   3.472   0.000   5.035
   37        1.578   3.389   0.000   4.967
   38        1.563   3.461   0.000   5.024
   39        1.572   3.426   0.000   4.998
   40        1.583   3.376   0.000   4.960
   41        1.563   3.442   0.000   5.005
   42        1.564   3.452   0.000   5.016
--------------------------------------------------
tot         43.715  92.046  87.922 223.683
 


 magnetization (x)
 
# of ion       s       p       d       tot
------------------------------------------
    1        0.001   0.000   0.000   0.002
    2        0.000  -0.001   0.000  -0.001
    3       -0.000  -0.003   0.000  -0.003
    4        0.001   0.001   0.000   0.002
    5        0.001   0.000   0.000   0.001
    6        0.001   0.000   0.000   0.001
    7        0.002   0.003   0.001   0.006
    8        0.010   0.013   1.266   1.289
    9        0.005   0.006  -0.016  -0.005
   10        0.012   0.015   1.335   1.362
   11        0.003   0.005  -0.012  -0.004
   12        0.008   0.011   1.154   1.173
   13        0.004   0.004   0.022   0.030
   14        0.010   0.010   1.294   1.315
   15        0.004   0.005   0.001   0.010
   16        0.003   0.003   0.003   0.009
   17        0.010   0.012   1.237   1.259
   18        0.010   0.013   1.282   1.305
   19       -0.000  -0.118   0.000  -0.118
   20        0.000  -0.031   0.000  -0.030
   21        0.001  -0.046   0.000  -0.046
   22        0.000  -0.075   0.000  -0.075
   23        0.000  -0.053   0.000  -0.053
   24        0.000  -0.108   0.000  -0.108
   25        0.000  -0.065   0.000  -0.065
   26        0.001  -0.066   0.000  -0.066
   27       -0.000  -0.022   0.000  -0.022
   28        0.000  -0.124   0.000  -0.124
   29        0.000  -0.007   0.000  -0.007
   30        0.000  -0.072   0.000  -0.071
   31        0.000  -0.127   0.000  -0.127
   32        0.000  -0.044   0.000  -0.044
   33        0.001  -0.046   0.000  -0.045
   34        0.000  -0.022   0.000  -0.021
   35        0.000  -0.055   0.000  -0.055
   36        0.000  -0.025   0.000  -0.025
   37        0.000  -0.115   0.000  -0.114
   38        0.000  -0.047   0.000  -0.047
   39        0.001  -0.053   0.000  -0.052
   40        0.001  -0.125   0.000  -0.124
   41        0.000  -0.042   0.000  -0.042
   42       -0.000  -0.046   0.000  -0.046
--------------------------------------------------
tot          0.092  -1.434   7.566   6.224
 

 total amount of memory used by VASP MPI-rank0   158254. kBytes
=======================================================================

   base      :      30000. kBytes
   nonlr-proj:       4354. kBytes
   fftplans  :       1689. kBytes
   grid      :       4644. kBytes
   one-center:        342. kBytes
   wavefun   :     117225. kBytes
 
  
  
 General timing and accounting informations for this job:
 ========================================================
  
                  Total CPU time used (sec):     4194.190
                            User time (sec):     3897.080
                          System time (sec):      297.111
                         Elapsed time (sec):     4228.597
  
                   Maximum memory used (kb):      878040.
                   Average memory used (kb):           0.
  
                          Minor page faults:        70826
                          Major page faults:           68
                 Voluntary context switches:          557
