       N       E                     dE             d eps       ncg     rms          ort
DAV:   1     0.357015977574E+04    0.35702E+04   -0.14062E+05  5760   0.228E+03
DAV:   2     0.409149798357E+03   -0.31610E+04   -0.29136E+04  5760   0.562E+02
DAV:   3    -0.219375344399E+03   -0.62853E+03   -0.56380E+03  5760   0.260E+02
DAV:   4    -0.269814413284E+03   -0.50439E+02   -0.49471E+02  5760   0.759E+01
DAV:   5    -0.271377046014E+03   -0.15626E+01   -0.15602E+01  5760   0.132E+01
SDA:   6     0.107814210300E+03    0.37919E+03   -0.15602E+01  5760   0.640E+04 0.000E+00
CGA:   7    -0.210649713686E+02   -0.12888E+03   -0.36633E+03  5760   0.511E+04-0.145E+04
CGA:   8    -0.153318606225E+03   -0.13225E+03   -0.15933E+03  5760   0.279E+04 0.903E+03
CGA:   9    -0.156257106461E+03   -0.29385E+01   -0.83114E+02  5760   0.223E+04-0.122E+04
CGA:  10    -0.162541732943E+03   -0.62846E+01   -0.51628E+02  5760   0.103E+04-0.679E+03
CGA:  11    -0.170107745210E+03   -0.75660E+01   -0.27973E+02  5760   0.832E+03-0.621E+03
CGA:  12    -0.188591990191E+03   -0.18484E+02   -0.37805E+02  5760   0.680E+03-0.372E+03
CGA:  13    -0.205938487565E+03   -0.17346E+02   -0.20627E+02  5760   0.248E+03-0.365E+02
CGA:  14    -0.211497449627E+03   -0.55590E+01   -0.53213E+01  5760   0.542E+02-0.451E+02
CGA:  15    -0.213870571475E+03   -0.23731E+01   -0.21659E+01  5760   0.263E+02 0.281E+01
CGA:  16    -0.214461966561E+03   -0.59140E+00   -0.13241E+01  5760   0.439E+02-0.118E+02
CGA:  17    -0.215654561582E+03   -0.11926E+01   -0.10833E+01  5760   0.420E+02 0.657E+00
CGA:  18    -0.216724425578E+03   -0.10699E+01   -0.10968E+01  5760   0.102E+02-0.954E+00
CGA:  19    -0.217437283598E+03   -0.71286E+00   -0.74518E+00  5760   0.138E+02-0.110E+00
CGA:  20    -0.217909193362E+03   -0.47191E+00   -0.58870E+00  5760   0.422E+01-0.168E+01
CGA:  21    -0.218109647689E+03   -0.20045E+00   -0.20252E+00  5760   0.216E+01-0.136E-01
CGA:  22    -0.218218563964E+03   -0.10892E+00   -0.10748E+00  5760   0.129E+01 0.172E-01
CGA:  23    -0.218321843891E+03   -0.10328E+00   -0.10491E+00  5760   0.125E+01-0.160E-01
CGA:  24    -0.218393143778E+03   -0.71300E-01   -0.73709E-01  5760   0.105E+01-0.567E-01
CGA:  25    -0.218485974045E+03   -0.92830E-01   -0.94368E-01  5760   0.140E+01 0.248E-01
CGA:  26    -0.218621805556E+03   -0.13583E+00   -0.13610E+00  5760   0.159E+01-0.142E-01
CGA:  27    -0.218727605564E+03   -0.10580E+00   -0.10148E+00  5760   0.120E+01 0.279E-01
CGA:  28    -0.218849394839E+03   -0.12179E+00   -0.12113E+00  5760   0.204E+01-0.327E-01
CGA:  29    -0.218958609957E+03   -0.10922E+00   -0.11585E+00  5760   0.169E+01-0.172E-01
CGA:  30    -0.219091423381E+03   -0.13281E+00   -0.13691E+00  5760   0.232E+01 0.683E-01
CGA:  31    -0.219284123389E+03   -0.19270E+00   -0.19530E+00  5760   0.137E+01 0.656E-01
CGA:  32    -0.219413867003E+03   -0.12974E+00   -0.12947E+00  5760   0.108E+01-0.103E-01
CGA:  33    -0.219545329062E+03   -0.13146E+00   -0.13136E+00  5760   0.144E+01 0.434E-03
CGA:  34    -0.219636133112E+03   -0.90804E-01   -0.87318E-01  5760   0.118E+01 0.142E-01
CGA:  35    -0.219771682561E+03   -0.13555E+00   -0.13507E+00  5760   0.110E+01 0.200E-01
CGA:  36    -0.219841272595E+03   -0.69590E-01   -0.69261E-01  5760   0.122E+01 0.119E-02
CGA:  37    -0.219949056878E+03   -0.10778E+00   -0.10853E+00  5760   0.873E+00 0.442E-01
CGA:  38    -0.220013221683E+03   -0.64165E-01   -0.63880E-01  5760   0.119E+01-0.621E-01
CGA:  39    -0.220088342021E+03   -0.75120E-01   -0.73729E-01  5760   0.548E+00-0.827E-01
CGA:  40    -0.220121154850E+03   -0.32813E-01   -0.32543E-01  5760   0.718E+00 0.278E-01
CGA:  41    -0.220167997313E+03   -0.46842E-01   -0.49347E-01  5760   0.311E+00 0.334E-01
SDA:  42    -0.220193258136E+03   -0.25261E-01   -0.25328E-01  5760   0.581E+00-0.466E-01
CGA:  43    -0.220212734186E+03   -0.19476E-01   -0.22283E-01  5760   0.230E+00-0.246E-01
CGA:  44    -0.220246881756E+03   -0.34148E-01   -0.34435E-01  5760   0.208E+00 0.180E-02
CGA:  45    -0.220276088394E+03   -0.29207E-01   -0.27295E-01  5760   0.362E+00 0.193E-01
CGA:  46    -0.220306434189E+03   -0.30346E-01   -0.29850E-01  5760   0.169E+00-0.224E-02
CGA:  47    -0.220318055637E+03   -0.11621E-01   -0.12224E-01  5760   0.109E+00 0.357E-02
CGA:  48    -0.220333761489E+03   -0.15706E-01   -0.16177E-01  5760   0.208E+00-0.380E-02
CGA:  49    -0.220346029017E+03   -0.12268E-01   -0.13056E-01  5760   0.503E-01-0.124E-02
CGA:  50    -0.220354247087E+03   -0.82181E-02   -0.80210E-02  5760   0.499E-01 0.874E-03
CGA:  51    -0.220357255775E+03   -0.30087E-02   -0.31033E-02  5760   0.395E-01-0.394E-03
CGA:  52    -0.220363546337E+03   -0.62906E-02   -0.62750E-02  5760   0.236E-01 0.451E-04
CGA:  53    -0.220365336943E+03   -0.17906E-02   -0.18289E-02  5760   0.292E-01-0.582E-03
CGA:  54    -0.220369503594E+03   -0.41667E-02   -0.41646E-02  5760   0.171E-01 0.280E-04
CGA:  55    -0.220371359012E+03   -0.18554E-02   -0.18529E-02  5760   0.392E-01-0.323E-03
CGA:  56    -0.220376985030E+03   -0.56260E-02   -0.52923E-02  5760   0.187E-01 0.689E-02
CGA:  57    -0.220382131259E+03   -0.51462E-02   -0.46150E-02  5760   0.445E-01 0.127E-02
CGA:  58    -0.220384886314E+03   -0.27551E-02   -0.25728E-02  5760   0.205E-01 0.123E-02
CGA:  59    -0.220390501763E+03   -0.56154E-02   -0.49760E-02  5760   0.248E-01 0.158E-02
CGA:  60    -0.220392452103E+03   -0.19503E-02   -0.19165E-02  5760   0.253E-01 0.213E-03
CGA:  61    -0.220395800359E+03   -0.33483E-02   -0.32716E-02  5760   0.110E-01 0.205E-02
CGA:  62    -0.220397916382E+03   -0.21160E-02   -0.21479E-02  5760   0.351E-01 0.240E-03
CGA:  63    -0.220400036797E+03   -0.21204E-02   -0.24087E-02  5760   0.139E-01 0.620E-05
CGA:  64    -0.220402830967E+03   -0.27942E-02   -0.28237E-02  5760   0.535E-01-0.207E-02
CGA:  65    -0.220404947609E+03   -0.21166E-02   -0.19467E-02  5760   0.137E-01 0.158E-02
CGA:  66    -0.220406229481E+03   -0.12819E-02   -0.12915E-02  5760   0.400E-01-0.585E-03
CGA:  67    -0.220410515295E+03   -0.42858E-02   -0.42857E-02  5760   0.480E-01-0.325E-03
CGA:  68    -0.220412180411E+03   -0.16651E-02   -0.17725E-02  5760   0.281E-01-0.221E-02
CGA:  69    -0.220415896645E+03   -0.37162E-02   -0.36915E-02  5760   0.714E-01 0.144E-02
CGA:  70    -0.220418428742E+03   -0.25321E-02   -0.36772E-02  5760   0.305E-01-0.116E-01
CGA:  71    -0.219966736664E+03    0.45169E+00   -0.11497E-01  5760   0.240E+02-0.324E+01
CGA:  72    -0.220292596897E+03   -0.32586E+00   -0.14193E+01  5760   0.209E+01-0.292E+01
CGA:  73    -0.220443263720E+03   -0.15067E+00   -0.72665E-01  5760   0.448E+00 0.100E+01
CGA:  74    -0.220465346232E+03   -0.22083E-01   -0.13903E-01  5760   0.938E-01 0.302E+00
CGA:  75    -0.220471474964E+03   -0.61287E-02   -0.56632E-02  5760   0.296E-01 0.438E-02
CGA:  76    -0.220479941958E+03   -0.84670E-02   -0.72258E-02  5760   0.303E-01 0.946E-02
CGA:  77    -0.220485316765E+03   -0.53748E-02   -0.53727E-02  5760   0.237E-01 0.846E-02
CGA:  78    -0.220394800936E+03    0.90516E-01   -0.15636E-01  5760   0.132E+01-0.932E-01
CGA:  79    -0.220494604521E+03   -0.99804E-01   -0.55024E-01  5760   0.643E-01-0.157E+00
CGA:  80    -0.220500491746E+03   -0.58872E-02   -0.51452E-02  5760   0.148E-01 0.873E-03
CGA:  81    -0.220502200594E+03   -0.17088E-02   -0.16407E-02  5760   0.943E-02 0.108E-02
CGA:  82    -0.220503626177E+03   -0.14256E-02   -0.24848E-02  5760   0.259E-01-0.256E-02
CGA:  83    -0.220505073924E+03   -0.14477E-02   -0.13817E-02  5760   0.109E-01-0.583E-03
CGA:  84    -0.220505665220E+03   -0.59130E-03   -0.48968E-03  5760   0.643E-02 0.195E-02
CGA:  85    -0.220506695207E+03   -0.10300E-02   -0.10327E-02  5760   0.840E-02-0.429E-03
CGA:  86    -0.220507504326E+03   -0.80912E-03   -0.48798E-03  5760   0.526E-02 0.173E-02
CGA:  87    -0.220508287257E+03   -0.78293E-03   -0.78350E-03  5760   0.776E-02 0.260E-02
CGA:  88    -0.220509617631E+03   -0.13304E-02   -0.12029E-02  5760   0.488E-02-0.738E-04
CGA:  89    -0.220510211666E+03   -0.59404E-03   -0.12352E-02  5760   0.789E-02-0.272E-02
CGA:  90    -0.220510879573E+03   -0.66791E-03   -0.54101E-03  5760   0.296E-02 0.192E-02
CGA:  91    -0.220511064254E+03   -0.18468E-03   -0.97102E-03  5760   0.673E-02-0.166E-02
CGA:  92    -0.220511730524E+03   -0.66627E-03   -0.23225E-03  5760   0.172E-02 0.239E-02
CGA:  93    -0.220511869499E+03   -0.13898E-03   -0.10518E-03  5760   0.139E-02 0.108E-02
CGA:  94    -0.220511990551E+03   -0.12105E-03   -0.84993E-04  5760   0.553E-03 0.381E-03
CGA:  95    -0.220512120665E+03   -0.13011E-03   -0.21050E-03  5760   0.915E-03-0.272E-03
CGA:  96    -0.220512198606E+03   -0.77941E-04   -0.11200E-03  5760   0.236E-02-0.141E-03
CGA:  97    -0.220512568971E+03   -0.37037E-03   -0.36783E-03  5760   0.207E-02 0.733E-04
CGA:  98    -0.220513029905E+03   -0.46093E-03   -0.51809E-03  5760   0.141E-02-0.119E-03
CGA:  99    -0.220513222245E+03   -0.19234E-03   -0.19328E-03  5760   0.210E-02 0.844E-04
CGA: 100    -0.220513572310E+03   -0.35007E-03   -0.36601E-03  5760   0.229E-02-0.194E-03
CGA: 101    -0.220514022838E+03   -0.45053E-03   -0.52368E-03  5760   0.233E-02-0.299E-03
CGA: 102    -0.220514290262E+03   -0.26742E-03   -0.25015E-03  5760   0.179E-02 0.106E-03
CGA: 103    -0.220514509408E+03   -0.21915E-03   -0.20440E-03  5760   0.873E-03 0.275E-04
CGA: 104    -0.220514652155E+03   -0.14275E-03   -0.14682E-03  5760   0.720E-03-0.408E-04
CGA: 105    -0.220514766733E+03   -0.11458E-03   -0.11883E-03  5760   0.959E-03 0.829E-05
CGA: 106    -0.220514913873E+03   -0.14714E-03   -0.14940E-03  5760   0.786E-03-0.174E-04
CGA: 107    -0.220515003818E+03   -0.89945E-04   -0.79719E-04  5760   0.418E-03 0.176E-04
CGA: 108    -0.220515069807E+03   -0.65989E-04   -0.66569E-04  5760   0.300E-03-0.127E-04
CGA: 109    -0.220515132497E+03   -0.62690E-04   -0.67395E-04  5760   0.385E-03-0.149E-04
CGA: 110    -0.220515185699E+03   -0.53202E-04   -0.52867E-04  5760   0.393E-03 0.129E-04
CGA: 111    -0.220515252479E+03   -0.66779E-04   -0.72618E-04  5760   0.406E-03-0.841E-05
CGA: 112    -0.220515300712E+03   -0.48233E-04   -0.41340E-04  5760   0.308E-03 0.831E-05
CGA: 113    -0.220515356826E+03   -0.56114E-04   -0.57648E-04  5760   0.279E-03-0.301E-04
CGA: 114    -0.220515403713E+03   -0.46887E-04   -0.47340E-04  5760   0.357E-03 0.303E-04
CGA: 115    -0.220515448286E+03   -0.44573E-04   -0.39814E-04  5760   0.216E-03 0.324E-04
CGA: 116    -0.220515482690E+03   -0.34404E-04   -0.33862E-04  5760   0.157E-03-0.129E-04
CGA: 117    -0.220515508236E+03   -0.25546E-04   -0.25984E-04  5760   0.189E-03-0.945E-06
CGA: 118    -0.220515538763E+03   -0.30527E-04   -0.30990E-04  5760   0.148E-03 0.422E-05
CGA: 119    -0.220515560837E+03   -0.22074E-04   -0.21683E-04  5760   0.150E-03 0.590E-05
CGA: 120    -0.220515580993E+03   -0.20156E-04   -0.19426E-04  5760   0.117E-03 0.232E-05
CGA: 121    -0.220515604205E+03   -0.23212E-04   -0.24294E-04  5760   0.124E-03-0.538E-05
CGA: 122    -0.220515630502E+03   -0.26297E-04   -0.27256E-04  5760   0.164E-03-0.315E-05
CGA: 123    -0.220515650710E+03   -0.20208E-04   -0.19844E-04  5760   0.109E-03 0.584E-05
SDA: 124    -0.220515667040E+03   -0.16329E-04   -0.15767E-04  5760   0.924E-04 0.559E-05
CGA: 125    -0.220515678203E+03   -0.11163E-04   -0.89362E-05  5760   0.856E-04 0.292E-04
CGA: 126    -0.220515696527E+03   -0.18324E-04   -0.18707E-04  5760   0.546E-04-0.971E-05
CGA: 127    -0.220515704888E+03   -0.83614E-05   -0.89525E-05  5760   0.455E-04 0.674E-06
CGA: 128    -0.220515710413E+03   -0.55243E-05   -0.37192E-05  5760   0.233E-04 0.724E-05
CGA: 129    -0.220515716955E+03   -0.65421E-05   -0.68792E-05  5760   0.239E-04-0.277E-05
CGA: 130    -0.220515723100E+03   -0.61456E-05   -0.63844E-05  5760   0.296E-04-0.137E-05
CGA: 131    -0.220515727931E+03   -0.48307E-05   -0.48485E-05  5760   0.286E-04 0.992E-06
CGA: 132    -0.220515731940E+03   -0.40086E-05   -0.30475E-05  5760   0.215E-04 0.627E-05
CGA: 133    -0.220515736646E+03   -0.47060E-05   -0.47780E-05  5760   0.236E-04-0.833E-06
CGA: 134    -0.220515741692E+03   -0.50466E-05   -0.53719E-05  5760   0.277E-04 0.419E-06
CGA: 135    -0.220515745530E+03   -0.38376E-05   -0.35885E-05  5760   0.238E-04 0.287E-05
CGA: 136    -0.220515749271E+03   -0.37408E-05   -0.35936E-05  5760   0.202E-04 0.895E-06
CGA: 137    -0.220515753277E+03   -0.40068E-05   -0.40721E-05  5760   0.194E-04 0.652E-06
CGA: 138    -0.220515756668E+03   -0.33909E-05   -0.34356E-05  5760   0.201E-04 0.956E-06
CGA: 139    -0.220515759116E+03   -0.24472E-05   -0.21871E-05  5760   0.148E-04 0.119E-05
CGA: 140    -0.220515762203E+03   -0.30879E-05   -0.31537E-05  5760   0.128E-04-0.505E-06
CGA: 141    -0.220515765861E+03   -0.36574E-05   -0.36747E-05  5760   0.181E-04-0.166E-06
CGA: 142    -0.220515769822E+03   -0.39613E-05   -0.41682E-05  5760   0.216E-04 0.110E-05
CGA: 143    -0.220515772192E+03   -0.23695E-05   -0.19978E-05  5760   0.164E-04 0.180E-05
CGA: 144    -0.220515776087E+03   -0.38954E-05   -0.41097E-05  5760   0.196E-04-0.288E-05
CGA: 145    -0.220515778536E+03   -0.24493E-05   -0.24076E-05  5760   0.250E-04 0.232E-05
CGA: 146    -0.220515782149E+03   -0.36127E-05   -0.33175E-05  5760   0.161E-04 0.375E-06
CGA: 147    -0.220515784674E+03   -0.25250E-05   -0.24564E-05  5760   0.119E-04-0.610E-06
CGA: 148    -0.220515786182E+03   -0.15080E-05   -0.14576E-05  5760   0.749E-05-0.101E-06
CGA: 149    -0.220515787366E+03   -0.11837E-05   -0.11697E-05  5760   0.684E-05 0.222E-07
CGA: 150    -0.220515788304E+03   -0.93849E-06   -0.92331E-06  5760   0.638E-05 0.184E-06
   1 F= -.23184499E+03 E0= -.23184042E+03  d E =-.914105E-02  mag=     6.0000
