 vasp.5.4.4.18Apr17-6-g9f103f2a35 (build Nov 22 2021 14:44:17) complex          
  
 executed on             LinuxIFC date 2022.08.08  10:58:42
 running on   64 total cores
 distrk:  each k-point on   64 cores,    1 groups
 distr:  one band on NCORES_PER_BAND=   4 cores,   16 groups


--------------------------------------------------------------------------------------------------------


 INCAR:
 POTCAR:    PAW_PBE Li 17Jan2003                  
 POTCAR:    PAW_PBE Co 02Aug2007                  
 POTCAR:    PAW_PBE O 08Apr2002                   
 POTCAR:    PAW_PBE Li 17Jan2003                  
   VRHFIN =Li: s1p0                                                             
   LEXCH  = PE                                                                  
   EATOM  =     5.3001 eV,    0.3895 Ry                                         
                                                                                
   TITEL  = PAW_PBE Li 17Jan2003                                                
   LULTRA =        F    use ultrasoft PP ?                                      
   IUNSCR =        1    unscreen: 0-lin 1-nonlin 2-no                           
   RPACOR =    1.500    partial core radius                                     
   POMASS =    7.010; ZVAL   =    1.000    mass and valenz                      
   RCORE  =    2.050    outmost cutoff radius                                   
   RWIGS  =    2.600; RWIGS  =    1.376    wigner-seitz radius (au A)           
   ENMAX  =  140.000; ENMIN  =  100.000 eV                                      
   ICORE  =        2    local potential                                         
   LCOR   =        T    correct aug charges                                     
   LPAW   =        T    paw PP                                                  
   EAUG   =  331.638                                                            
   DEXC   =    0.000                                                            
   RMAX   =    2.098    core radius for proj-oper                               
   RAUG   =    1.300    factor for augmentation sphere                          
   RDEP   =    2.094    radius for radial grids                                 
   RDEPT  =    1.810    core radius for aug-charge                              
                                                                                
   Atomic configuration                                                         
    4 entries                                                                   
     n  l   j            E        occ.                                          
     1  0  0.50       -51.8549   2.0000                                         
     2  0  0.50        -2.8742   1.0000                                         
     2  1  0.50        -1.3606   0.0000                                         
     3  2  1.50        -1.3606   0.0000                                         
   Description                                                                  
     l       E           TYP  RCUT    TYP  RCUT                                 
     0     -2.8742052     23  2.050                                             
     0     27.2116520     23  2.050                                             
     1     -1.3605826     23  2.050                                             
     2     -1.3605826     23  2.050                                             
  local pseudopotential read in
  partial core-charges read in
  partial kinetic energy density read in
  atomic valenz-charges read in
  non local Contribution for L=           0  read in
    real space projection operators read in
  non local Contribution for L=           0  read in
    real space projection operators read in
  non local Contribution for L=           1  read in
    real space projection operators read in
    PAW grid and wavefunctions read in
 
   number of l-projection  operators is LMAX  =           3
   number of lm-projection operators is LMMAX =           5
 
 POTCAR:    PAW_PBE Co 02Aug2007                  
   VRHFIN =Co: d8 s1                                                            
   LEXCH  = PE                                                                  
   EATOM  =   813.3670 eV,   59.7808 Ry                                         
                                                                                
   TITEL  = PAW_PBE Co 02Aug2007                                                
   LULTRA =        F    use ultrasoft PP ?                                      
   IUNSCR =        1    unscreen: 0-lin 1-nonlin 2-no                           
   RPACOR =    2.000    partial core radius                                     
   POMASS =   58.933; ZVAL   =    9.000    mass and valenz                      
   RCORE  =    2.300    outmost cutoff radius                                   
   RWIGS  =    2.460; RWIGS  =    1.302    wigner-seitz radius (au A)           
   ENMAX  =  267.968; ENMIN  =  200.976 eV                                      
   RCLOC  =    1.203    cutoff for local pot                                    
   LCOR   =        T    correct aug charges                                     
   LPAW   =        T    paw PP                                                  
   EAUG   =  477.818                                                            
   DEXC   =    0.000                                                            
   RMAX   =    2.360    core radius for proj-oper                               
   RAUG   =    1.300    factor for augmentation sphere                          
   RDEP   =    2.393    radius for radial grids                                 
   RDEPT  =    1.864    core radius for aug-charge                              
                                                                                
   Atomic configuration                                                         
    9 entries                                                                   
     n  l   j            E        occ.                                          
     1  0  0.50     -7587.6674   2.0000                                         
     2  0  0.50      -893.6084   2.0000                                         
     2  1  1.50      -764.5805   6.0000                                         
     3  0  0.50       -97.5973   2.0000                                         
     3  1  1.50       -60.9648   6.0000                                         
     3  2  2.50        -4.2382   8.0000                                         
     4  0  0.50        -4.3746   1.0000                                         
     4  1  1.50        -4.0817   0.0000                                         
     4  3  2.50        -1.3606   0.0000                                         
   Description                                                                  
     l       E           TYP  RCUT    TYP  RCUT                                 
     2     -4.2382362     23  2.300                                             
     2     -5.5988188     23  2.300                                             
     0     -4.3745797     23  2.300                                             
     0      5.7660125     23  2.300                                             
     1     -2.7211652     23  2.300                                             
     1     16.9860234     23  2.300                                             
  local pseudopotential read in
  partial core-charges read in
  partial kinetic energy density read in
  atomic valenz-charges read in
  non local Contribution for L=           2  read in
    real space projection operators read in
  non local Contribution for L=           2  read in
    real space projection operators read in
  non local Contribution for L=           0  read in
    real space projection operators read in
  non local Contribution for L=           0  read in
    real space projection operators read in
  non local Contribution for L=           1  read in
    real space projection operators read in
  non local Contribution for L=           1  read in
    real space projection operators read in
    PAW grid and wavefunctions read in
 
   number of l-projection  operators is LMAX  =           6
   number of lm-projection operators is LMMAX =          18
 
 POTCAR:    PAW_PBE O 08Apr2002                   
   VRHFIN =O: s2p4                                                              
   LEXCH  = PE                                                                  
   EATOM  =   432.3788 eV,   31.7789 Ry                                         
                                                                                
   TITEL  = PAW_PBE O 08Apr2002                                                 
   LULTRA =        F    use ultrasoft PP ?                                      
   IUNSCR =        1    unscreen: 0-lin 1-nonlin 2-no                           
   RPACOR =    1.200    partial core radius                                     
   POMASS =   16.000; ZVAL   =    6.000    mass and valenz                      
   RCORE  =    1.520    outmost cutoff radius                                   
   RWIGS  =    1.550; RWIGS  =    0.820    wigner-seitz radius (au A)           
   ENMAX  =  400.000; ENMIN  =  300.000 eV                                      
   ICORE  =        2    local potential                                         
   LCOR   =        T    correct aug charges                                     
   LPAW   =        T    paw PP                                                  
   EAUG   =  605.392                                                            
   DEXC   =    0.000                                                            
   RMAX   =    1.553    core radius for proj-oper                               
   RAUG   =    1.300    factor for augmentation sphere                          
   RDEP   =    1.550    radius for radial grids                                 
   RDEPT  =    1.329    core radius for aug-charge                              
                                                                                
   Atomic configuration                                                         
    4 entries                                                                   
     n  l   j            E        occ.                                          
     1  0  0.50      -514.6923   2.0000                                         
     2  0  0.50       -23.9615   2.0000                                         
     2  1  0.50        -9.0305   4.0000                                         
     3  2  1.50        -9.5241   0.0000                                         
   Description                                                                  
     l       E           TYP  RCUT    TYP  RCUT                                 
     0    -23.9615318     23  1.200                                             
     0     -9.5240782     23  1.200                                             
     1     -9.0304911     23  1.520                                             
     1      8.1634956     23  1.520                                             
     2     -9.5240782      7  1.500                                             
  local pseudopotential read in
  partial core-charges read in
  partial kinetic energy density read in
  kinetic energy density of atom read in
  atomic valenz-charges read in
  non local Contribution for L=           0  read in
    real space projection operators read in
  non local Contribution for L=           0  read in
    real space projection operators read in
  non local Contribution for L=           1  read in
    real space projection operators read in
  non local Contribution for L=           1  read in
    real space projection operators read in
    PAW grid and wavefunctions read in
 
   number of l-projection  operators is LMAX  =           4
   number of lm-projection operators is LMMAX =           8
 
 Optimization of the real space projectors (new method)

 maximal supplied QI-value         = 18.33
 optimisation between [QCUT,QGAM] = [ 12.46, 24.93] = [ 43.51,174.03] Ry 
 Optimized for a Real-space Cutoff    1.13 Angstroem

   l    n(q)    QCUT    max X(q) W(low)/X(q) W(high)/X(q)  e(spline) 
   0      8    12.465    33.825    0.12E-03    0.29E-03    0.99E-07
   0      8    12.465     8.944    0.86E-04    0.22E-03    0.72E-07
   1      8    12.465     4.214    0.27E-03    0.11E-03    0.82E-07
 Optimization of the real space projectors (new method)

 maximal supplied QI-value         = 16.25
 optimisation between [QCUT,QGAM] = [ 12.51, 25.03] = [ 43.85,175.40] Ry 
 Optimized for a Real-space Cutoff    1.31 Angstroem

   l    n(q)    QCUT    max X(q) W(low)/X(q) W(high)/X(q)  e(spline) 
   2      9    12.514    65.824    0.30E-03    0.46E-03    0.43E-06
   2      9    12.514    61.429    0.31E-03    0.46E-03    0.44E-06
   0     10    12.514    56.174    0.90E-04    0.33E-03    0.30E-06
   0     10    12.514    31.263    0.81E-04    0.30E-03    0.28E-06
   1      9    12.514    19.828    0.38E-03    0.65E-04    0.24E-06
   1      9    12.514    15.139    0.32E-03    0.60E-04    0.20E-06
 Optimization of the real space projectors (new method)

 maximal supplied QI-value         = 24.76
 optimisation between [QCUT,QGAM] = [ 12.38, 25.00] = [ 42.90,175.06] Ry 
 Optimized for a Real-space Cutoff    1.13 Angstroem

   l    n(q)    QCUT    max X(q) W(low)/X(q) W(high)/X(q)  e(spline) 
   0      8    12.378    20.381    0.16E-03    0.54E-05    0.27E-06
   0      8    12.378    15.268    0.17E-03    0.61E-05    0.29E-06
   1      8    12.378     5.964    0.38E-03    0.23E-03    0.28E-06
   1      8    12.378     5.382    0.33E-03    0.20E-03    0.25E-06
  PAW_PBE Li 17Jan2003                  :
 energy of atom  1       EATOM=   -5.3001
 kinetic energy error for atom=    0.0000 (will be added to EATOM!!)
  PAW_PBE Co 02Aug2007                  :
 energy of atom  2       EATOM= -813.3670
 kinetic energy error for atom=    0.0018 (will be added to EATOM!!)
  PAW_PBE O 08Apr2002                   :
 energy of atom  3       EATOM= -432.3788
 kinetic energy error for atom=    0.0168 (will be added to EATOM!!)
 
 
 POSCAR: Li6 Co12 O24                            
  positions in cartesian coordinates
  No initial velocities read in
 exchange correlation table for  LEXCH =        8
   RHO(1)=    0.500       N(1)  =     2000
   RHO(2)=  100.500       N(2)  =     4000
 


--------------------------------------------------------------------------------------------------------


 ion  position               nearest neighbor table
   1  0.474  0.734  0.986-  38 2.06  24 2.19  35 2.29  25 2.43  37 2.46   7 2.81  16 2.97  18 3.01
                            15 3.18
   2  0.230  0.030  0.324-  22 2.02  20 2.21  33 2.46  19 2.51   9 2.81  13 2.98  10 3.06   8 3.17

   3  0.996  0.359  0.654-  29 1.89  28 1.92  27 1.96  42 2.01  39 2.11   4 2.55  40 2.61  14 2.65
                             5 2.67  12 2.67  11 2.70   6 2.84   6 2.88  15 2.92   4 3.08   5 3.09
   4  0.995  0.908  0.679-  40 1.80  41 1.93  27 2.00  30 2.11  39 2.12  28 2.35   3 2.55  16 2.68
                             6 2.70  18 2.77  15 2.78   5 2.79   5 2.82  11 2.89   6 3.03   3 3.08
   5  0.486  0.405  0.669-  42 1.99  30 2.01  41 2.04  27 2.08  40 2.13  29 2.38  14 2.64   3 2.67
                             6 2.74   4 2.79  18 2.80  17 2.81   4 2.82   6 2.84  15 2.90  12 2.94
   6  0.465  0.904  0.680-  41 1.88  42 1.92  39 2.02  28 2.05  29 2.13  30 2.49  18 2.55   4 2.70
                            16 2.71   5 2.74  17 2.83   3 2.84   5 2.84  13 2.85   3 2.88  14 3.00
   7  0.555  0.725  0.166-  19 1.82  24 1.85  20 1.86  25 1.95  23 1.95  22 1.96  10 2.75   8 2.76
                             8 2.81   1 2.81   9 2.83  10 2.86   9 2.90
   8  0.564  0.224  0.163-  23 1.81  19 1.85  26 1.88  24 1.89  21 1.94  20 1.97   7 2.76   9 2.76
                            10 2.79   7 2.81   9 2.85  10 2.93   2 3.17
   9  0.056  0.716  0.164-  25 1.80  26 1.80  23 1.86  21 1.89  20 1.92  22 1.93   8 2.76  10 2.78
                            10 2.79   2 2.81   7 2.83   8 2.85   7 2.90
  10  0.045  0.211  0.160-  22 1.78  26 1.84  24 1.89  25 1.91  21 1.92  19 1.97   7 2.75   9 2.78
                             9 2.79   8 2.79   7 2.86   8 2.93   2 3.06
  11  0.783  0.989  0.514-  31 1.83  30 1.85  32 1.85  27 1.92  29 1.95  34 2.04   3 2.70  12 2.74
                            14 2.75  12 2.83  13 2.86  14 2.86  13 2.87   4 2.89
  12  0.780  0.494  0.518-  33 1.79  32 1.88  29 1.89  31 1.92  30 1.96  28 1.96   3 2.67  11 2.74
                            13 2.77  11 2.83  13 2.84  14 2.84  14 2.89   5 2.94   4 3.09
  13  0.286  0.997  0.515-  34 1.84  32 1.97  28 1.97  27 1.98  29 2.00  33 2.02  14 2.75  12 2.77
                            14 2.82  12 2.84   6 2.85  11 2.86  11 2.87   2 2.98   5 2.99   4 3.11
  14  0.292  0.507  0.523-  31 1.90  30 1.92  33 1.93  28 1.93  27 1.97  34 1.97   5 2.64   3 2.65
                            11 2.75  13 2.75  13 2.82  12 2.84  11 2.86  12 2.89   6 3.00
  15  0.212  0.293  0.823-  36 1.73  37 1.83  35 1.90  42 1.91  41 2.04  39 2.05  18 2.73  16 2.77
                             4 2.78  16 2.80  17 2.86  17 2.87   5 2.90  18 2.90   3 2.92   1 3.18
  16  0.202  0.789  0.823-  35 1.80  36 1.85  38 1.86  41 1.90  40 1.92  42 2.15  17 2.68   4 2.68
                             6 2.71  18 2.74  15 2.77  15 2.80  17 2.93   1 2.97  18 2.99
  17  0.722  0.313  0.821-  37 1.86  39 1.95  38 1.95  40 1.95  35 1.99  41 2.05  16 2.68  18 2.78
                            18 2.81   5 2.81   6 2.83  15 2.86  15 2.87  16 2.93   3 3.13
  18  0.678  0.791  0.813-  39 1.78  37 1.79  38 1.86  40 1.93  42 1.95  36 2.18   6 2.55  15 2.73
                            16 2.74   4 2.77  17 2.78   5 2.80  17 2.81  15 2.90  16 2.99   1 3.01
  19  0.419  0.402  0.221-   7 1.82   8 1.85  10 1.97   2 2.51
  20  0.410  0.892  0.230-   7 1.86   9 1.92   8 1.97   2 2.21
  21  0.923  0.403  0.230-   9 1.89  10 1.92   8 1.94
  22  0.930  0.923  0.226-  10 1.78   9 1.93   7 1.96   2 2.02
  23  0.705  0.535  0.105-   8 1.81   9 1.86   7 1.95
  24  0.688  0.028  0.100-   7 1.85   8 1.89  10 1.89   1 2.19
  25  0.191  0.548  0.102-   9 1.80  10 1.91   7 1.95   1 2.43
  26  0.202  0.035  0.110-   9 1.80  10 1.84   8 1.88
  27  0.128  0.165  0.585-  11 1.92   3 1.96  14 1.97  13 1.98   4 2.00   5 2.08
  28  0.138  0.680  0.588-   3 1.92  14 1.93  12 1.96  13 1.97   6 2.05   4 2.35
  29  0.655  0.181  0.584-   3 1.89  12 1.89  11 1.95  13 2.00   6 2.13   5 2.38
  30  0.654  0.697  0.585-  11 1.85  14 1.92  12 1.96   5 2.01   4 2.11   6 2.49
  31  0.937  0.314  0.460-  11 1.83  14 1.90  12 1.92
  32  0.916  0.807  0.452-  11 1.85  12 1.88  13 1.97
  33  0.455  0.354  0.454-  12 1.79  14 1.93  13 2.02   2 2.46
  34  0.404  0.815  0.447-  13 1.84  14 1.97  11 2.04
  35  0.094  0.495  0.887-  16 1.80  15 1.90  17 1.99   1 2.29
  36  0.091  1.000  0.880-  15 1.73  16 1.85  18 2.18
  37  0.566  0.490  0.874-  18 1.79  15 1.83  17 1.86   1 2.46
  38  0.555  0.971  0.881-  18 1.86  16 1.86  17 1.95   1 2.06
  39  0.830  0.095  0.754-  18 1.78  17 1.95   6 2.02  15 2.05   3 2.11   4 2.12
  40  0.857  0.637  0.753-   4 1.80  16 1.92  18 1.93  17 1.95   5 2.13   3 2.61
  41  0.345  0.089  0.750-   6 1.88  16 1.90   4 1.93  15 2.04   5 2.04  17 2.05
  42  0.327  0.570  0.741-  15 1.91   6 1.92  18 1.95   5 1.99   3 2.01  16 2.15
 

IMPORTANT INFORMATION: All symmetrisations will be switched off!
NOSYMM: (Re-)initialisation of all symmetry stuff for point group C_1.

 
 

Automatic generation of k-mesh.
 generate k-points for:    6    6    2
Space group operators:
 irot       det(A)        alpha          n_x          n_y          n_z        tau_x        tau_y        tau_z
    1     1.000000     0.000000     1.000000     0.000000     0.000000     0.000000     0.000000     0.000000
 
 Subroutine IBZKPT returns following result:
 ===========================================
 
 Found     36 irreducible k-points:
 
 Following reciprocal coordinates:
            Coordinates               Weight
  0.083333  0.083333  0.250000      2.000000
  0.250000  0.083333  0.250000      2.000000
  0.416667  0.083333  0.250000      2.000000
 -0.416667  0.083333  0.250000      2.000000
 -0.250000  0.083333  0.250000      2.000000
 -0.083333  0.083333  0.250000      2.000000
  0.083333  0.250000  0.250000      2.000000
  0.250000  0.250000  0.250000      2.000000
  0.416667  0.250000  0.250000      2.000000
 -0.416667  0.250000  0.250000      2.000000
 -0.250000  0.250000  0.250000      2.000000
 -0.083333  0.250000  0.250000      2.000000
  0.083333  0.416667  0.250000      2.000000
  0.250000  0.416667  0.250000      2.000000
  0.416667  0.416667  0.250000      2.000000
 -0.416667  0.416667  0.250000      2.000000
 -0.250000  0.416667  0.250000      2.000000
 -0.083333  0.416667  0.250000      2.000000
  0.083333 -0.416667  0.250000      2.000000
  0.250000 -0.416667  0.250000      2.000000
  0.416667 -0.416667  0.250000      2.000000
 -0.416667 -0.416667  0.250000      2.000000
 -0.250000 -0.416667  0.250000      2.000000
 -0.083333 -0.416667  0.250000      2.000000
  0.083333 -0.250000  0.250000      2.000000
  0.250000 -0.250000  0.250000      2.000000
  0.416667 -0.250000  0.250000      2.000000
 -0.416667 -0.250000  0.250000      2.000000
 -0.250000 -0.250000  0.250000      2.000000
 -0.083333 -0.250000  0.250000      2.000000
  0.083333 -0.083333  0.250000      2.000000
  0.250000 -0.083333  0.250000      2.000000
  0.416667 -0.083333  0.250000      2.000000
 -0.416667 -0.083333  0.250000      2.000000
 -0.250000 -0.083333  0.250000      2.000000
 -0.083333 -0.083333  0.250000      2.000000
 
 Following cartesian coordinates:
            Coordinates               Weight
  0.014556  0.025940  0.019550      2.000000
  0.043669  0.043086  0.023695      2.000000
  0.072782  0.060233  0.027839      2.000000
 -0.072782 -0.025501  0.007116      2.000000
 -0.043669 -0.008354  0.011261      2.000000
 -0.014556  0.008793  0.015405      2.000000
  0.014556  0.060672  0.022272      2.000000
  0.043669  0.077819  0.026417      2.000000
  0.072782  0.094966  0.030561      2.000000
 -0.072782  0.009231  0.009838      2.000000
 -0.043669  0.026378  0.013983      2.000000
 -0.014556  0.043525  0.018127      2.000000
  0.014556  0.095404  0.024994      2.000000
  0.043669  0.112551  0.029139      2.000000
  0.072782  0.129698  0.033283      2.000000
 -0.072782  0.043964  0.012560      2.000000
 -0.043669  0.061111  0.016705      2.000000
 -0.014556  0.078257  0.020850      2.000000
  0.014556 -0.078257  0.011383      2.000000
  0.043669 -0.061111  0.015528      2.000000
  0.072782 -0.043964  0.019673      2.000000
 -0.072782 -0.129698 -0.001050      2.000000
 -0.043669 -0.112551  0.003094      2.000000
 -0.014556 -0.095404  0.007239      2.000000
  0.014556 -0.043525  0.014106      2.000000
  0.043669 -0.026378  0.018250      2.000000
  0.072782 -0.009231  0.022395      2.000000
 -0.072782 -0.094966  0.001672      2.000000
 -0.043669 -0.077819  0.005816      2.000000
 -0.014556 -0.060672  0.009961      2.000000
  0.014556 -0.008793  0.016828      2.000000
  0.043669  0.008354  0.020972      2.000000
  0.072782  0.025501  0.025117      2.000000
 -0.072782 -0.060233  0.004394      2.000000
 -0.043669 -0.043086  0.008539      2.000000
 -0.014556 -0.025940  0.012683      2.000000
 


--------------------------------------------------------------------------------------------------------




 Dimension of arrays:
   k-points           NKPTS =     36   k-points in BZ     NKDIM =     36   number of bands    NBANDS=    160
   number of dos      NEDOS =    301   number of ions     NIONS =     42
   non local maximal  LDIM  =      6   non local SUM 2l+1 LMDIM =     18
   total plane-waves  NPLWV = 124416
   max r-space proj   IRMAX =   2778   max aug-charges    IRDMAX=  11713
   dimension x,y,z NGX =    36 NGY =   36 NGZ =   96
   dimension x,y,z NGXF=    72 NGYF=   72 NGZF=  192
   support grid    NGXF=    72 NGYF=   72 NGZF=  192
   ions per type =               6  12  24
   NGX,Y,Z   is equivalent  to a cutoff of  10.45, 10.75, 10.21 a.u.
   NGXF,Y,Z  is equivalent  to a cutoff of  20.91, 21.49, 20.42 a.u.

 SYSTEM =  LiCoO2                                  
 POSCAR =  Li6 Co12 O24                            

 Startparameter for this run:
   NWRITE =      2    write-flag & timer
   PREC   = normal    normal or accurate (medium, high low for compatibility)
   ISTART =      0    job   : 0-new  1-cont  2-samecut
   ICHARG =      2    charge: 1-file 2-atom 10-const
   ISPIN  =      2    spin polarized calculation?
   LNONCOLLINEAR =      F non collinear calculations
   LSORBIT =      F    spin-orbit coupling
   INIWAV =      1    electr: 0-lowe 1-rand  2-diag
   LASPH  =      F    aspherical Exc in radial PAW
   METAGGA=      F    non-selfconsistent MetaGGA calc.

 Electronic Relaxation 1
   ENCUT  =  600.0 eV  44.10 Ry    6.64 a.u.  11.43 11.12 31.22*2*pi/ulx,y,z
   ENINI  =  600.0     initial cutoff
   ENAUG  =  605.4 eV  augmentation charge cutoff
   NELM   =    600;   NELMIN=  2; NELMDL= -5     # of ELM steps 
   EDIFF  = 0.1E-05   stopping-criterion for ELM
   LREAL  =      T    real-space projection
   NLSPLINE    = F    spline interpolate recip. space projectors
   LCOMPAT=      F    compatible to vasp.4.4
   GGA_COMPAT  = T    GGA compatible to vasp.4.4-vasp.4.6
   LMAXPAW     = -100 max onsite density
   LMAXMIX     =    2 max onsite mixed and CHGCAR
   VOSKOWN=      0    Vosko Wilk Nusair interpolation
   ROPT   =   -0.00050  -0.00050  -0.00050
 Ionic relaxation
   EDIFFG = 0.1E-04   stopping-criterion for IOM
   NSW    =      0    number of steps for IOM
   NBLOCK =      1;   KBLOCK =      1    inner block; outer block 
   IBRION =     -1    ionic relax: 0-MD 1-quasi-New 2-CG
   NFREE  =      0    steps in history (QN), initial steepest desc. (CG)
   ISIF   =      2    stress and relaxation
   IWAVPR =     10    prediction:  0-non 1-charg 2-wave 3-comb
   ISYM   =      0    0-nonsym 1-usesym 2-fastsym
   LCORR  =      T    Harris-Foulkes like correction to forces

   POTIM  = 0.5000    time-step for ionic-motion
   TEIN   =    0.0    initial temperature
   TEBEG  =    0.0;   TEEND  =   0.0 temperature during run
   SMASS  =  -3.00    Nose mass-parameter (am)
   estimated Nose-frequenzy (Omega)   =  0.10E-29 period in steps =****** mass=  -0.749E-27a.u.
   SCALEE = 1.0000    scale energy and forces
   NPACO  =    256;   APACO  = 16.0  distance and # of slots for P.C.
   PSTRESS=    0.0 pullay stress

  Mass of Ions in am
   POMASS =   7.01 58.93 16.00
  Ionic Valenz
   ZVAL   =   1.00  9.00  6.00
  Atomic Wigner-Seitz radii
   RWIGS  =  -1.00 -1.00 -1.00
  virtual crystal weights 
   VCA    =   1.00  1.00  1.00
   NELECT =     258.0000    total number of electrons
   NUPDOWN=       6.0000    fix difference up-down

 DOS related values:
   EMIN   =  10.00;   EMAX   =-10.00  energy-range for DOS
   EFERMI =   0.00
   ISMEAR =     0;   SIGMA  =   0.05  broadening in eV -4-tet -1-fermi 0-gaus

 Electronic relaxation 2 (details)
   IALGO  =     58    algorithm
   LDIAG  =      T    sub-space diagonalisation (order eigenvalues)
   LSUBROT=      F    optimize rotation matrix (better conditioning)
   TURBO    =      0    0=normal 1=particle mesh
   IRESTART =      0    0=no restart 2=restart with 2 vectors
   NREBOOT  =      0    no. of reboots
   NMIN     =      0    reboot dimension
   EREF     =   0.00    reference energy to select bands
   IMIX   =      4    mixing-type and parameters
     AMIX     =   0.40;   BMIX     =  1.00
     AMIX_MAG =   1.60;   BMIX_MAG =  1.00
     AMIN     =   0.10
     WC   =   100.;   INIMIX=   1;  MIXPRE=   1;  MAXMIX= -45

 Intra band minimization:
   WEIMIN = 0.0000     energy-eigenvalue tresh-hold
   EBREAK =  0.16E-08  absolut break condition
   DEPER  =   0.30     relativ break condition  

   TIME   =   0.40     timestep for ELM

  volume/ion in A,a.u.               =      10.15        68.47
  Fermi-wavevector in a.u.,A,eV,Ry     =   1.384946  2.617169 26.097012  1.918076
  Thomas-Fermi vector in A             =   2.509403
 
 Write flags
   LWAVE        =      F    write WAVECAR
   LDOWNSAMPLE  =      F    k-point downsampling of WAVECAR
   LCHARG       =      F    write CHGCAR
   LVTOT        =      F    write LOCPOT, total local potential
   LVHAR        =      F    write LOCPOT, Hartree potential only
   LELF         =      F    write electronic localiz. function (ELF)
   LORBIT       =     11    0 simple, 1 ext, 2 COOP (PROOUT), +10 PAW based schemes


 Dipole corrections
   LMONO  =      F    monopole corrections only (constant potential shift)
   LDIPOL =      F    correct potential (dipole corrections)
   IDIPOL =      0    1-x, 2-y, 3-z, 4-all directions 
   EPSILON=  1.0000000 bulk dielectric constant

 LDA+U is selected, type is set to LDAUTYPE =  2
   angular momentum for each species LDAUL =    -1    2   -1
   U (eV)           for each species LDAUU =   0.0  5.1  0.0
   J (eV)           for each species LDAUJ =   0.0  0.0  0.0
 Exchange correlation treatment:
   GGA     =    --    GGA type
   LEXCH   =     8    internal setting for exchange type
   VOSKOWN=      0    Vosko Wilk Nusair interpolation
   LHFCALC =     F    Hartree Fock is set to
   LHFONE  =     F    Hartree Fock one center treatment
   AEXX    =    0.0000 exact exchange contribution

 Linear response parameters
   LEPSILON=     F    determine dielectric tensor
   LRPA    =     F    only Hartree local field effects (RPA)
   LNABLA  =     F    use nabla operator in PAW spheres
   LVEL    =     F    velocity operator in full k-point grid
   LINTERFAST=   F  fast interpolation
   KINTER  =     0    interpolate to denser k-point grid
   CSHIFT  =0.1000    complex shift for real part using Kramers Kronig
   OMEGAMAX=  -1.0    maximum frequency
   DEG_THRESHOLD= 0.2000000E-02 threshold for treating states as degnerate
   RTIME   =   -0.100 relaxation time in fs
  (WPLASMAI=    0.000 imaginary part of plasma frequency in eV, 0.658/RTIME)
   DFIELD  = 0.0000000 0.0000000 0.0000000 field for delta impulse in time
 
 Orbital magnetization related:
   ORBITALMAG=     F  switch on orbital magnetization
   LCHIMAG   =     F  perturbation theory with respect to B field
   DQ        =  0.001000  dq finite difference perturbation B field
   LLRAUG    =     F  two centre corrections for induced B field



--------------------------------------------------------------------------------------------------------


 Static calculation
 charge density and potential will be updated during run
 spin polarized calculation
 Conjugate gradient for all bands (Freysoldt, et al. PRB 79, 241103 (2009))
 preconditioned conjugated gradient                                        
 perform sub-space diagonalisation
    before iterative eigenvector-optimisation
 modified Broyden-mixing scheme, WC =      100.0
 initial mixing is a Kerker type mixing with AMIX =  0.4000 and BMIX =      1.0000
 Hartree-type preconditioning will be used
 using additional bands           31
 real space projection scheme for non local part
 use partial core corrections
 no Harris-corrections to forces 
 use gradient corrections 
 use of overlap-Matrix (Vanderbilt PP)
 Gauss-broadening in eV      SIGMA  =   0.05


--------------------------------------------------------------------------------------------------------


  energy-cutoff  :      600.00
  volume of cell :      426.13
      direct lattice vectors                 reciprocal lattice vectors
     5.724828720  0.000000000  0.000000000     0.174677715  0.102880905  0.024867618
    -2.826257944  4.798599720  0.000000000     0.000000000  0.208394127  0.016332895
    -1.492285490 -1.215754986 15.512020111     0.000000000  0.000000000  0.064466136

  length of vectors
     5.724828720  5.569047786 15.630986664     0.204242951  0.209033193  0.064466136


 
 k-points in units of 2pi/SCALE and weight: read from INCAR                         
   0.01455648  0.02593959  0.01954991       0.028
   0.04366943  0.04308640  0.02369451       0.028
   0.07278238  0.06023322  0.02783912       0.028
  -0.07278238 -0.02550087  0.00711610       0.028
  -0.04366943 -0.00835405  0.01126070       0.028
  -0.01455648  0.00879277  0.01540531       0.028
   0.01455648  0.06067194  0.02227206       0.028
   0.04366943  0.07781876  0.02641666       0.028
   0.07278238  0.09496558  0.03056127       0.028
  -0.07278238  0.00923149  0.00983825       0.028
  -0.04366943  0.02637831  0.01398285       0.028
  -0.01455648  0.04352512  0.01812746       0.028
   0.01455648  0.09540430  0.02499421       0.028
   0.04366943  0.11255111  0.02913881       0.028
   0.07278238  0.12969793  0.03328341       0.028
  -0.07278238  0.04396384  0.01256040       0.028
  -0.04366943  0.06111066  0.01670500       0.028
  -0.01455648  0.07825748  0.02084961       0.028
   0.01455648 -0.07825748  0.01138346       0.028
   0.04366943 -0.06111066  0.01552807       0.028
   0.07278238 -0.04396384  0.01967267       0.028
  -0.07278238 -0.12969793 -0.00105035       0.028
  -0.04366943 -0.11255111  0.00309426       0.028
  -0.01455648 -0.09540430  0.00723886       0.028
   0.01455648 -0.04352512  0.01410561       0.028
   0.04366943 -0.02637831  0.01825021       0.028
   0.07278238 -0.00923149  0.02239482       0.028
  -0.07278238 -0.09496558  0.00167180       0.028
  -0.04366943 -0.07781876  0.00581641       0.028
  -0.01455648 -0.06067194  0.00996101       0.028
   0.01455648 -0.00879277  0.01682776       0.028
   0.04366943  0.00835405  0.02097236       0.028
   0.07278238  0.02550087  0.02511697       0.028
  -0.07278238 -0.06023322  0.00439395       0.028
  -0.04366943 -0.04308640  0.00853855       0.028
  -0.01455648 -0.02593959  0.01268316       0.028
 
 k-points in reciprocal lattice and weights: read from INCAR                         
   0.08333333  0.08333333  0.25000000       0.028
   0.25000000  0.08333333  0.25000000       0.028
   0.41666667  0.08333333  0.25000000       0.028
  -0.41666667  0.08333333  0.25000000       0.028
  -0.25000000  0.08333333  0.25000000       0.028
  -0.08333333  0.08333333  0.25000000       0.028
   0.08333333  0.25000000  0.25000000       0.028
   0.25000000  0.25000000  0.25000000       0.028
   0.41666667  0.25000000  0.25000000       0.028
  -0.41666667  0.25000000  0.25000000       0.028
  -0.25000000  0.25000000  0.25000000       0.028
  -0.08333333  0.25000000  0.25000000       0.028
   0.08333333  0.41666667  0.25000000       0.028
   0.25000000  0.41666667  0.25000000       0.028
   0.41666667  0.41666667  0.25000000       0.028
  -0.41666667  0.41666667  0.25000000       0.028
  -0.25000000  0.41666667  0.25000000       0.028
  -0.08333333  0.41666667  0.25000000       0.028
   0.08333333 -0.41666667  0.25000000       0.028
   0.25000000 -0.41666667  0.25000000       0.028
   0.41666667 -0.41666667  0.25000000       0.028
  -0.41666667 -0.41666667  0.25000000       0.028
  -0.25000000 -0.41666667  0.25000000       0.028
  -0.08333333 -0.41666667  0.25000000       0.028
   0.08333333 -0.25000000  0.25000000       0.028
   0.25000000 -0.25000000  0.25000000       0.028
   0.41666667 -0.25000000  0.25000000       0.028
  -0.41666667 -0.25000000  0.25000000       0.028
  -0.25000000 -0.25000000  0.25000000       0.028
  -0.08333333 -0.25000000  0.25000000       0.028
   0.08333333 -0.08333333  0.25000000       0.028
   0.25000000 -0.08333333  0.25000000       0.028
   0.41666667 -0.08333333  0.25000000       0.028
  -0.41666667 -0.08333333  0.25000000       0.028
  -0.25000000 -0.08333333  0.25000000       0.028
  -0.08333333 -0.08333333  0.25000000       0.028
 
 position of ions in fractional coordinates (direct lattice) 
   0.47388580  0.73403990  0.98631191
   0.22977967  0.02953479  0.32419825
   0.99608608  0.35923352  0.65388000
   0.99539787  0.90774929  0.67939315
   0.48600153  0.40497814  0.66894898
   0.46527237  0.90371836  0.68036139
   0.55534309  0.72475780  0.16634325
   0.56414908  0.22433646  0.16343004
   0.05646298  0.71627053  0.16377944
   0.04453085  0.21114289  0.16018867
   0.78314327  0.98852360  0.51400913
   0.77965138  0.49434726  0.51756702
   0.28629337  0.99712138  0.51470601
   0.29164314  0.50701128  0.52293771
   0.21239139  0.29262207  0.82252280
   0.20236296  0.78945590  0.82289027
   0.72225299  0.31284943  0.82129149
   0.67846793  0.79141979  0.81289152
   0.41863426  0.40225117  0.22070432
   0.41034320  0.89215565  0.22975667
   0.92302353  0.40292376  0.23012025
   0.92969739  0.92258771  0.22571915
   0.70489441  0.53516086  0.10466979
   0.68774281  0.02794514  0.09996055
   0.19146417  0.54847920  0.10231678
   0.20199239  0.03472253  0.10981613
   0.12816876  0.16537645  0.58518811
   0.13777449  0.68043210  0.58770165
   0.65521166  0.18121869  0.58408640
   0.65373124  0.69711347  0.58481229
   0.93663711  0.31413750  0.45978023
   0.91596162  0.80674873  0.45166521
   0.45465098  0.35358309  0.45433798
   0.40374284  0.81513398  0.44667039
   0.09397083  0.49524817  0.88720812
   0.09129768  0.99979227  0.88033604
   0.56563906  0.49018033  0.87357997
   0.55525037  0.97070266  0.88110964
   0.83027205  0.09501454  0.75410488
   0.85722812  0.63714540  0.75279622
   0.34537121  0.08929688  0.74977277
   0.32671796  0.57040827  0.74148242
 
 position of ions in cartesian coordinates  (Angst):
  -0.83353001  2.32325006 15.29969025
   0.74817997 -0.25242001  5.02896976
   3.71135998  0.92886001 10.14299965
   2.11910009  3.52994990 10.53876019
   0.63944000  1.13004994 10.37674999
  -0.90583003  3.50942993 10.55377960
   0.88265997  3.27558994  2.58031988
   2.35173988  0.87781000  2.53513002
  -1.94553006  3.23797989  2.54054999
  -0.58086002  0.81844002  2.48484993
   0.92249000  4.11861992  7.97332001
   2.29385996  1.74293995  8.02851009
  -1.94722998  4.15902996  7.98412991
  -0.54370999  1.79718006  8.11182022
  -0.83855999  0.40419000 12.75899029
  -2.30069995  2.78784990 12.76469040
   2.02498007  0.50274998 12.73989010
   0.43428999  2.80942988 12.60958958
   0.93039000  1.66191995  3.42356992
  -0.51517999  4.00177002  3.56399012
   3.80198002  1.65369999  3.56962991
   2.37805009  4.15270996  3.50135994
   2.36669993  2.44076991  1.62363994
   3.70905995  0.01257000  1.55059004
  -0.60672998  2.50753999  1.58713996
   0.89436001  0.03311000  1.70346999
  -0.60692000  0.08213000  9.07744980
  -2.01135993  2.55062008  9.11643982
   2.36718011  0.15949000  9.06035995
   0.89956999  2.63418007  9.07161999
   3.78813004  0.94844002  7.13212013
   2.28962994  3.32214999  7.00623989
   0.92548001  1.14434004  7.04769993
  -0.65898001  3.36845994  6.92876005
  -2.18569994  1.29787004 13.76239014
  -3.61671996  3.72732997 13.65579033
   0.54917997  1.29012001 13.55099010
  -0.87961000  3.58680010 13.66779041
   3.35928988 -0.46087000 11.69769001
   1.98336005  2.14218998 11.67739010
   0.60593998 -0.48304000 11.63049030
  -0.84821999  1.83570004 11.50189018
 


--------------------------------------------------------------------------------------------------------


 k-point  1 :   0.0833 0.0833 0.2500  plane waves:   14225
 k-point  2 :   0.2500 0.0833 0.2500  plane waves:   14225
 k-point  3 :   0.4167 0.0833 0.2500  plane waves:   14218
 k-point  4 :  -0.4167 0.0833 0.2500  plane waves:   14199
 k-point  5 :  -0.2500 0.0833 0.2500  plane waves:   14201
 k-point  6 :  -0.0833 0.0833 0.2500  plane waves:   14199
 k-point  7 :   0.0833 0.2500 0.2500  plane waves:   14249
 k-point  8 :   0.2500 0.2500 0.2500  plane waves:   14241
 k-point  9 :   0.4167 0.2500 0.2500  plane waves:   14214
 k-point 10 :  -0.4167 0.2500 0.2500  plane waves:   14200
 k-point 11 :  -0.2500 0.2500 0.2500  plane waves:   14234
 k-point 12 :  -0.0833 0.2500 0.2500  plane waves:   14231
 k-point 13 :   0.0833 0.4167 0.2500  plane waves:   14239
 k-point 14 :   0.2500 0.4167 0.2500  plane waves:   14237
 k-point 15 :   0.4167 0.4167 0.2500  plane waves:   14205
 k-point 16 :  -0.4167 0.4167 0.2500  plane waves:   14223
 k-point 17 :  -0.2500 0.4167 0.2500  plane waves:   14233
 k-point 18 :  -0.0833 0.4167 0.2500  plane waves:   14242
 k-point 19 :   0.0833-0.4167 0.2500  plane waves:   14250
 k-point 20 :   0.2500-0.4167 0.2500  plane waves:   14217
 k-point 21 :   0.4167-0.4167 0.2500  plane waves:   14208
 k-point 22 :  -0.4167-0.4167 0.2500  plane waves:   14211
 k-point 23 :  -0.2500-0.4167 0.2500  plane waves:   14245
 k-point 24 :  -0.0833-0.4167 0.2500  plane waves:   14238
 k-point 25 :   0.0833-0.2500 0.2500  plane waves:   14230
 k-point 26 :   0.2500-0.2500 0.2500  plane waves:   14220
 k-point 27 :   0.4167-0.2500 0.2500  plane waves:   14201
 k-point 28 :  -0.4167-0.2500 0.2500  plane waves:   14208
 k-point 29 :  -0.2500-0.2500 0.2500  plane waves:   14224
 k-point 30 :  -0.0833-0.2500 0.2500  plane waves:   14228
 k-point 31 :   0.0833-0.0833 0.2500  plane waves:   14227
 k-point 32 :   0.2500-0.0833 0.2500  plane waves:   14214
 k-point 33 :   0.4167-0.0833 0.2500  plane waves:   14162
 k-point 34 :  -0.4167-0.0833 0.2500  plane waves:   14205
 k-point 35 :  -0.2500-0.0833 0.2500  plane waves:   14204
 k-point 36 :  -0.0833-0.0833 0.2500  plane waves:   14218

 maximum and minimum number of plane-waves per node :      3591     3512

 maximum number of plane-waves:     14250
 maximum index in each direction: 
   IXMAX=   11   IYMAX=   11   IZMAX=   30
   IXMIN=  -11   IYMIN=  -11   IZMIN=  -31


 real space projection operators:
  total allocation   :       7419.52 KBytes
  max/ min on nodes  :       1857.29       1850.34


 parallel 3D FFT for wavefunctions:
    minimum data exchange during FFTs selected (reduces bandwidth)
 parallel 3D FFT for charge:
    minimum data exchange during FFTs selected (reduces bandwidth)


 total amount of memory used by VASP MPI-rank0   169068. kBytes
=======================================================================

   base      :      30000. kBytes
   nonlr-proj:       4243. kBytes
   fftplans  :       1800. kBytes
   grid      :       4952. kBytes
   one-center:        342. kBytes
   wavefun   :     127731. kBytes
 
     INWAV:  cpu time    0.0000: real time    0.0002
 Broyden mixing: mesh for mixing (old mesh)
   NGX = 23   NGY = 23   NGZ = 63
  (NGX  = 72   NGY  = 72   NGZ  =192)
  gives a total of  33327 points

 initial charge density was supplied:
 charge density of overlapping atoms calculated
 number of electron     258.0000000 magnetization       6.0000000
 keeping initial charge density in first step


--------------------------------------------------------------------------------------------------------


 Maximum index for non-local projection operator          680
 Maximum index for augmentation-charges          816 (set IRDMAX)


--------------------------------------------------------------------------------------------------------


 First call to EWALD:  gamma=   0.236
 Maximum number of real-space cells 4x 4x 2
 Maximum number of reciprocal cells 2x 2x 5

    FEWALD:  cpu time    0.0055: real time    0.0055


--------------------------------------- Iteration      1(   1)  ---------------------------------------


    POTLOK:  cpu time    0.0794: real time    0.0839
    SETDIJ:  cpu time    0.0186: real time    0.0198
    TRIAL :  cpu time   22.8822: real time   22.9623
    CORREC:  cpu time    0.0041: real time    0.0041
    --------------------------------------------
      LOOP:  cpu time   23.1965: real time   23.2839

 eigenvalue-minimisations  : 23040
 total energy-change (2. order) : 0.3476718E+04  (-0.1388040E+05)
 number of electron     258.0000000 magnetization       6.0000000
 augmentation part      258.0000000 magnetization       6.0000000

 Free energy of the ion-electron system (eV)
  ---------------------------------------------------
  alpha Z        PSCENC =       687.96972469
  Ewald energy   TEWEN  =    -11372.46306683
  -Hartree energ DENC   =     -9340.78203788
  -exchange      EXHF   =         0.00000000
  -V(xc)+E(xc)   XCENC  =       841.77835014
  PAW double counting   =     17015.18481625   -17491.61297812
  entropy T*S    EENTRO =        -0.00915216
  eigenvalues    EBANDS =      2967.78110009
  atomic energy  EATOM  =     20168.87094289
  ---------------------------------------------------
  free energy    TOTEN  =      3476.71769906 eV

  energy without entropy =     3476.72685123  energy(sigma->0) =     3476.72227514


--------------------------------------------------------------------------------------------------------




--------------------------------------- Iteration      1(   2)  ---------------------------------------


    TRIAL :  cpu time   23.7944: real time   24.0739
    CORREC:  cpu time    0.0044: real time    0.0045
    --------------------------------------------
      LOOP:  cpu time   23.7998: real time   24.0793

 eigenvalue-minimisations  : 25024
 total energy-change (2. order) :-0.3055017E+04  (-0.2812905E+04)
 number of electron     258.0000000 magnetization       6.0000000
 augmentation part      258.0000000 magnetization       6.0000000

 Free energy of the ion-electron system (eV)
  ---------------------------------------------------
  alpha Z        PSCENC =       687.96972469
  Ewald energy   TEWEN  =    -11372.46306683
  -Hartree energ DENC   =     -9340.78203788
  -exchange      EXHF   =         0.00000000
  -V(xc)+E(xc)   XCENC  =       841.77835014
  PAW double counting   =     17015.18481625   -17491.61297812
  entropy T*S    EENTRO =        -0.02025632
  eigenvalues    EBANDS =       -87.22505582
  atomic energy  EATOM  =     20168.87094289
  ---------------------------------------------------
  free energy    TOTEN  =       421.70043899 eV

  energy without entropy =      421.72069531  energy(sigma->0) =      421.71056715


--------------------------------------------------------------------------------------------------------




--------------------------------------- Iteration      1(   3)  ---------------------------------------


    TRIAL :  cpu time   25.2448: real time   25.4875
    CORREC:  cpu time    0.0045: real time    0.0046
    --------------------------------------------
      LOOP:  cpu time   25.2540: real time   25.4967

 eigenvalue-minimisations  : 26672
 total energy-change (2. order) :-0.6395776E+03  (-0.5905397E+03)
 number of electron     258.0000000 magnetization       6.0000000
 augmentation part      258.0000000 magnetization       6.0000000

 Free energy of the ion-electron system (eV)
  ---------------------------------------------------
  alpha Z        PSCENC =       687.96972469
  Ewald energy   TEWEN  =    -11372.46306683
  -Hartree energ DENC   =     -9340.78203788
  -exchange      EXHF   =         0.00000000
  -V(xc)+E(xc)   XCENC  =       841.77835014
  PAW double counting   =     17015.18481625   -17491.61297812
  entropy T*S    EENTRO =        -0.03107755
  eigenvalues    EBANDS =      -726.79178664
  atomic energy  EATOM  =     20168.87094289
  ---------------------------------------------------
  free energy    TOTEN  =      -217.87711305 eV

  energy without entropy =     -217.84603551  energy(sigma->0) =     -217.86157428


--------------------------------------------------------------------------------------------------------




--------------------------------------- Iteration      1(   4)  ---------------------------------------


    TRIAL :  cpu time   24.5427: real time   24.7245
    CORREC:  cpu time    0.0044: real time    0.0044
    --------------------------------------------
      LOOP:  cpu time   24.5515: real time   24.7333

 eigenvalue-minimisations  : 25264
 total energy-change (2. order) :-0.5175280E+02  (-0.5051736E+02)
 number of electron     258.0000000 magnetization       6.0000000
 augmentation part      258.0000000 magnetization       6.0000000

 Free energy of the ion-electron system (eV)
  ---------------------------------------------------
  alpha Z        PSCENC =       687.96972469
  Ewald energy   TEWEN  =    -11372.46306683
  -Hartree energ DENC   =     -9340.78203788
  -exchange      EXHF   =         0.00000000
  -V(xc)+E(xc)   XCENC  =       841.77835014
  PAW double counting   =     17015.18481625   -17491.61297812
  entropy T*S    EENTRO =        -0.03638100
  eigenvalues    EBANDS =      -778.53927968
  atomic energy  EATOM  =     20168.87094289
  ---------------------------------------------------
  free energy    TOTEN  =      -269.62990955 eV

  energy without entropy =     -269.59352855  energy(sigma->0) =     -269.61171905


--------------------------------------------------------------------------------------------------------




--------------------------------------- Iteration      1(   5)  ---------------------------------------


    TRIAL :  cpu time   27.3813: real time   27.6364
    CORREC:  cpu time    0.0049: real time    0.0049
    CHARGE:  cpu time    0.5198: real time    0.5234
    --------------------------------------------
      LOOP:  cpu time   27.9108: real time   28.1694

 eigenvalue-minimisations  : 29392
 total energy-change (2. order) :-0.1906698E+01  (-0.1902333E+01)
 number of electron     257.9999986 magnetization       6.0000002
 augmentation part       68.1016516 magnetization       4.2829343

 Free energy of the ion-electron system (eV)
  ---------------------------------------------------
  alpha Z        PSCENC =       687.96972469
  Ewald energy   TEWEN  =    -11372.46306683
  -Hartree energ DENC   =     -9340.78203788
  -exchange      EXHF   =         0.00000000
  -V(xc)+E(xc)   XCENC  =       841.77835014
  PAW double counting   =     17015.18481625   -17491.61297812
  entropy T*S    EENTRO =        -0.03615702
  eigenvalues    EBANDS =      -780.44620136
  atomic energy  EATOM  =     20168.87094289
  ---------------------------------------------------
  free energy    TOTEN  =      -271.53660725 eV

  energy without entropy =     -271.50045023  energy(sigma->0) =     -271.51852874


--------------------------------------------------------------------------------------------------------




--------------------------------------- Iteration      1(   6)  ---------------------------------------


    POTLOK:  cpu time    0.0504: real time    0.0506
    SETDIJ:  cpu time    0.0120: real time    0.0121
    TRIAL :  cpu time   13.0966: real time   13.2137
    CORREC:  cpu time    4.5353: real time    4.5642
    CHARGE:  cpu time    0.5216: real time    0.5250
    --------------------------------------------
      LOOP:  cpu time   18.2201: real time   18.3698

 eigenvalue-minimisations  :     0
 total energy-change (2. order) : 0.4434671E+03  (-0.5191392E+03)
 number of electron     257.9999995 magnetization       5.9999999
 augmentation part       71.0114598 magnetization       4.3813876

 Free energy of the ion-electron system (eV)
  ---------------------------------------------------
  alpha Z        PSCENC =       687.96972469
  Ewald energy   TEWEN  =    -11372.46306683
  -Hartree energ DENC   =     -9414.05900827
  -exchange      EXHF   =         0.00000000
  -V(xc)+E(xc)   XCENC  =       877.74436996
  PAW double counting   =     23716.51235313   -23929.19538044
  entropy T*S    EENTRO =        -0.08951127
  eigenvalues    EBANDS =      -563.41324611
  atomic energy  EATOM  =     20168.87094289
  ---------------------------------------------------
  free energy    TOTEN  =       171.93053199 eV

  energy without entropy =      172.02004326  energy(sigma->0) =      171.97528762


--------------------------------------------------------------------------------------------------------




--------------------------------------- Iteration      1(   7)  ---------------------------------------


    POTLOK:  cpu time    0.0517: real time    0.0520
    SETDIJ:  cpu time    0.0120: real time    0.0120
    TRIAL :  cpu time   13.0145: real time   13.0927
    CORREC:  cpu time    4.5492: real time    4.5758
    CHARGE:  cpu time    0.5007: real time    0.5037
    --------------------------------------------
      LOOP:  cpu time   18.1322: real time   18.2405

 eigenvalue-minimisations  :     0
 total energy-change (2. order) : 0.8319006E+03  (-0.1844172E+05)
 number of electron     257.9999968 magnetization       6.0000002
 augmentation part       81.1699417 magnetization       1.4040895

 Free energy of the ion-electron system (eV)
  ---------------------------------------------------
  alpha Z        PSCENC =       687.96972469
  Ewald energy   TEWEN  =    -11372.46306683
  -Hartree energ DENC   =     -9084.02502282
  -exchange      EXHF   =         0.00000000
  -V(xc)+E(xc)   XCENC  =       873.88734202
  PAW double counting   =     24593.72434667   -24983.86285665
  entropy T*S    EENTRO =        -0.01616002
  eigenvalues    EBANDS =       119.81926997
  atomic energy  EATOM  =     20168.87094289
  ---------------------------------------------------
  free energy    TOTEN  =      1003.83116868 eV

  energy without entropy =     1003.84732870  energy(sigma->0) =     1003.83924869


--------------------------------------------------------------------------------------------------------




--------------------------------------- Iteration      1(   8)  ---------------------------------------


    POTLOK:  cpu time    0.0486: real time    0.0488
    SETDIJ:  cpu time    0.0120: real time    0.0120
    TRIAL :  cpu time   12.9119: real time   13.0330
    CORREC:  cpu time    4.5344: real time    4.5662
    CHARGE:  cpu time    0.5173: real time    0.5208
    --------------------------------------------
      LOOP:  cpu time   18.0281: real time   18.1850

 eigenvalue-minimisations  :     0
 total energy-change (2. order) : 0.9191461E+04  (-0.4255972E+04)
 number of electron     257.9999996 magnetization       5.9999999
 augmentation part       68.5834754 magnetization       4.0308309

 Free energy of the ion-electron system (eV)
  ---------------------------------------------------
  alpha Z        PSCENC =       687.96972469
  Ewald energy   TEWEN  =    -11372.46306683
  -Hartree energ DENC   =    -22854.90669549
  -exchange      EXHF   =         0.00000000
  -V(xc)+E(xc)   XCENC  =       927.24927966
  PAW double counting   =     33010.38736358   -34055.21962604
  entropy T*S    EENTRO =        -0.05212743
  eigenvalues    EBANDS =     23683.42007129
  atomic energy  EATOM  =     20168.87094289
  ---------------------------------------------------
  free energy    TOTEN  =     10195.29183374 eV

  energy without entropy =    10195.34396116  energy(sigma->0) =    10195.31789745


--------------------------------------------------------------------------------------------------------




--------------------------------------- Iteration      1(   9)  ---------------------------------------


    POTLOK:  cpu time    0.0489: real time    0.0491
    SETDIJ:  cpu time    0.0120: real time    0.0121
    TRIAL :  cpu time   14.6630: real time   14.7913
    CORREC:  cpu time    4.7346: real time    4.7685
    CHARGE:  cpu time    0.4838: real time    0.5023
    --------------------------------------------
      LOOP:  cpu time   19.9465: real time   20.1281

 eigenvalue-minimisations  :     0
 total energy-change (2. order) :-0.4453073E+04  (-0.3553401E+04)
 number of electron     258.0000001 magnetization       6.0000001
 augmentation part       67.2296564 magnetization       3.9909412

 Free energy of the ion-electron system (eV)
  ---------------------------------------------------
  alpha Z        PSCENC =       687.96972469
  Ewald energy   TEWEN  =    -11372.46306683
  -Hartree energ DENC   =    -10114.63644571
  -exchange      EXHF   =         0.00000000
  -V(xc)+E(xc)   XCENC  =       864.04022824
  PAW double counting   =     46886.04462538   -47752.07284218
  entropy T*S    EENTRO =        -0.02574299
  eigenvalues    EBANDS =      6374.51767370
  atomic energy  EATOM  =     20168.87094289
  ---------------------------------------------------
  free energy    TOTEN  =      5742.21871275 eV

  energy without entropy =     5742.24445574  energy(sigma->0) =     5742.23158424


--------------------------------------------------------------------------------------------------------




--------------------------------------- Iteration      1(  10)  ---------------------------------------


    POTLOK:  cpu time    0.0493: real time    0.0507
    SETDIJ:  cpu time    0.0119: real time    0.0121
    TRIAL :  cpu time   12.6050: real time   13.0745
    CORREC:  cpu time    4.5307: real time    4.5716
    CHARGE:  cpu time    0.5107: real time    0.5111
    --------------------------------------------
      LOOP:  cpu time   17.7082: real time   18.2247

 eigenvalue-minimisations  :     0
 total energy-change (2. order) :-0.1236888E+04  (-0.4993506E+04)
 number of electron     257.9999993 magnetization       5.9999998
 augmentation part       61.8037450 magnetization       3.5782659

 Free energy of the ion-electron system (eV)
  ---------------------------------------------------
  alpha Z        PSCENC =       687.96972469
  Ewald energy   TEWEN  =    -11372.46306683
  -Hartree energ DENC   =     -7647.02267249
  -exchange      EXHF   =         0.00000000
  -V(xc)+E(xc)   XCENC  =       806.96173520
  PAW double counting   =     55230.28719734   -56052.25117423
  entropy T*S    EENTRO =        -0.01833803
  eigenvalues    EBANDS =      2683.00391890
  atomic energy  EATOM  =     20168.87094289
  ---------------------------------------------------
  free energy    TOTEN  =      4505.33086248 eV

  energy without entropy =     4505.34920051  energy(sigma->0) =     4505.34003149


--------------------------------------------------------------------------------------------------------




--------------------------------------- Iteration      1(  11)  ---------------------------------------


    POTLOK:  cpu time    0.0489: real time    0.0489
    SETDIJ:  cpu time    0.0122: real time    0.0121
    TRIAL :  cpu time   12.9823: real time   13.0557
    CORREC:  cpu time    4.5468: real time    4.5994
    CHARGE:  cpu time    0.5109: real time    0.5223
    --------------------------------------------
      LOOP:  cpu time   18.1052: real time   18.2426

 eigenvalue-minimisations  :     0
 total energy-change (2. order) : 0.1625061E+03  (-0.6914549E+04)
 number of electron     257.9999985 magnetization       6.0000000
 augmentation part       67.9291875 magnetization       1.8192707

 Free energy of the ion-electron system (eV)
  ---------------------------------------------------
  alpha Z        PSCENC =       687.96972469
  Ewald energy   TEWEN  =    -11372.46306683
  -Hartree energ DENC   =     -5390.98237585
  -exchange      EXHF   =         0.00000000
  -V(xc)+E(xc)   XCENC  =       727.97208132
  PAW double counting   =     48252.47393867   -48866.22310957
  entropy T*S    EENTRO =        -0.00981989
  eigenvalues    EBANDS =       460.23719827
  atomic energy  EATOM  =     20168.87094289
  ---------------------------------------------------
  free energy    TOTEN  =      4667.83699556 eV

  energy without entropy =     4667.84681545  energy(sigma->0) =     4667.84190550


--------------------------------------------------------------------------------------------------------




--------------------------------------- Iteration      1(  12)  ---------------------------------------


    POTLOK:  cpu time    0.0496: real time    0.0503
    SETDIJ:  cpu time    0.0119: real time    0.0124
    TRIAL :  cpu time   12.8368: real time   13.1255
    CORREC:  cpu time    4.5707: real time    4.5995
    CHARGE:  cpu time    0.5019: real time    0.5049
    --------------------------------------------
      LOOP:  cpu time   17.9717: real time   18.2974

 eigenvalue-minimisations  :     0
 total energy-change (2. order) :-0.8367397E+03  (-0.2549282E+04)
 number of electron     257.9999982 magnetization       6.0000000
 augmentation part       76.1459590 magnetization       1.4183001

 Free energy of the ion-electron system (eV)
  ---------------------------------------------------
  alpha Z        PSCENC =       687.96972469
  Ewald energy   TEWEN  =    -11372.46306683
  -Hartree energ DENC   =     -4498.07258263
  -exchange      EXHF   =         0.00000000
  -V(xc)+E(xc)   XCENC  =       694.56580964
  PAW double counting   =     58240.03663926   -58997.25221316
  entropy T*S    EENTRO =        -0.00788067
  eigenvalues    EBANDS =     -1092.54816871
  atomic energy  EATOM  =     20168.87094289
  ---------------------------------------------------
  free energy    TOTEN  =      3831.09726526 eV

  energy without entropy =     3831.10514592  energy(sigma->0) =     3831.10120559


--------------------------------------------------------------------------------------------------------




--------------------------------------- Iteration      1(  13)  ---------------------------------------


    POTLOK:  cpu time    0.0484: real time    0.0486
    SETDIJ:  cpu time    0.0121: real time    0.0121
    TRIAL :  cpu time   12.8426: real time   13.1584
    CORREC:  cpu time    4.7383: real time    4.7433
    CHARGE:  cpu time    0.4981: real time    0.4986
    --------------------------------------------
      LOOP:  cpu time   18.1437: real time   18.4651

 eigenvalue-minimisations  :     0
 total energy-change (2. order) :-0.5977083E+03  (-0.1748161E+04)
 number of electron     257.9999984 magnetization       6.0000000
 augmentation part       75.4859733 magnetization       1.4057547

 Free energy of the ion-electron system (eV)
  ---------------------------------------------------
  alpha Z        PSCENC =       687.96972469
  Ewald energy   TEWEN  =    -11372.46306683
  -Hartree energ DENC   =     -8979.92131599
  -exchange      EXHF   =         0.00000000
  -V(xc)+E(xc)   XCENC  =       741.81028971
  PAW double counting   =     62592.52374290   -63583.04021848
  entropy T*S    EENTRO =        -0.00605654
  eigenvalues    EBANDS =      2977.64679145
  atomic energy  EATOM  =     20168.87094289
  ---------------------------------------------------
  free energy    TOTEN  =      3233.38900967 eV

  energy without entropy =     3233.39506621  energy(sigma->0) =     3233.39203794


--------------------------------------------------------------------------------------------------------




--------------------------------------- Iteration      1(  14)  ---------------------------------------


    POTLOK:  cpu time    0.0487: real time    0.0487
    SETDIJ:  cpu time    0.0122: real time    0.0122
    TRIAL :  cpu time   12.9157: real time   12.9491
    CORREC:  cpu time    4.6814: real time    4.6859
    CHARGE:  cpu time    0.5011: real time    0.5016
    --------------------------------------------
      LOOP:  cpu time   18.1636: real time   18.2027

 eigenvalue-minimisations  :     0
 total energy-change (2. order) :-0.6574608E+03  (-0.7828328E+03)
 number of electron     257.9999986 magnetization       6.0000000
 augmentation part       76.4792228 magnetization       1.4349096

 Free energy of the ion-electron system (eV)
  ---------------------------------------------------
  alpha Z        PSCENC =       687.96972469
  Ewald energy   TEWEN  =    -11372.46306683
  -Hartree energ DENC   =     -7392.98006453
  -exchange      EXHF   =         0.00000000
  -V(xc)+E(xc)   XCENC  =       740.26584495
  PAW double counting   =     61904.71439164   -62871.33652273
  entropy T*S    EENTRO =        -0.00592005
  eigenvalues    EBANDS =       710.89297358
  atomic energy  EATOM  =     20168.87094289
  ---------------------------------------------------
  free energy    TOTEN  =      2575.92816711 eV

  energy without entropy =     2575.93408716  energy(sigma->0) =     2575.93112714


--------------------------------------------------------------------------------------------------------




--------------------------------------- Iteration      1(  15)  ---------------------------------------


    POTLOK:  cpu time    0.0482: real time    0.0482
    SETDIJ:  cpu time    0.0121: real time    0.0121
    TRIAL :  cpu time   13.0058: real time   13.0392
    CORREC:  cpu time    4.5579: real time    4.5626
    CHARGE:  cpu time    0.5037: real time    0.5040
    --------------------------------------------
      LOOP:  cpu time   18.1315: real time   18.1701

 eigenvalue-minimisations  :     0
 total energy-change (2. order) :-0.5649698E+03  (-0.5521340E+03)
 number of electron     257.9999989 magnetization       6.0000000
 augmentation part       74.5350391 magnetization       1.6815486

 Free energy of the ion-electron system (eV)
  ---------------------------------------------------
  alpha Z        PSCENC =       687.96972469
  Ewald energy   TEWEN  =    -11372.46306683
  -Hartree energ DENC   =     -6968.81407347
  -exchange      EXHF   =         0.00000000
  -V(xc)+E(xc)   XCENC  =       752.37970608
  PAW double counting   =     60359.78065775   -61326.04052516
  entropy T*S    EENTRO =        -0.00414744
  eigenvalues    EBANDS =      -290.71909640
  atomic energy  EATOM  =     20168.87094289
  ---------------------------------------------------
  free energy    TOTEN  =      2010.95834950 eV

  energy without entropy =     2010.96249694  energy(sigma->0) =     2010.96042322


--------------------------------------------------------------------------------------------------------




--------------------------------------- Iteration      1(  16)  ---------------------------------------


    POTLOK:  cpu time    0.0485: real time    0.0485
    SETDIJ:  cpu time    0.0121: real time    0.0122
    TRIAL :  cpu time   13.1043: real time   13.1171
    CORREC:  cpu time    4.5842: real time    4.5883
    CHARGE:  cpu time    0.4986: real time    0.4990
    --------------------------------------------
      LOOP:  cpu time   18.2521: real time   18.2693

 eigenvalue-minimisations  :     0
 total energy-change (2. order) :-0.5572705E+03  (-0.8197546E+03)
 number of electron     257.9999988 magnetization       6.0000000
 augmentation part       70.7609063 magnetization       2.2255493

 Free energy of the ion-electron system (eV)
  ---------------------------------------------------
  alpha Z        PSCENC =       687.96972469
  Ewald energy   TEWEN  =    -11372.46306683
  -Hartree energ DENC   =     -7500.06691797
  -exchange      EXHF   =         0.00000000
  -V(xc)+E(xc)   XCENC  =       783.63804642
  PAW double counting   =     47554.66586690   -48357.51714316
  entropy T*S    EENTRO =        -0.00644595
  eigenvalues    EBANDS =      -511.40542383
  atomic energy  EATOM  =     20168.87094289
  ---------------------------------------------------
  free energy    TOTEN  =      1453.68788166 eV

  energy without entropy =     1453.69432761  energy(sigma->0) =     1453.69110464


--------------------------------------------------------------------------------------------------------




--------------------------------------- Iteration      1(  17)  ---------------------------------------


    POTLOK:  cpu time    0.0483: real time    0.0483
    SETDIJ:  cpu time    0.0123: real time    0.0123
    TRIAL :  cpu time   13.0329: real time   13.0456
    CORREC:  cpu time    4.6047: real time    4.6095
    CHARGE:  cpu time    0.5138: real time    0.5142
    --------------------------------------------
      LOOP:  cpu time   18.2160: real time   18.2341

 eigenvalue-minimisations  :     0
 total energy-change (2. order) :-0.5734579E+03  (-0.1912106E+03)
 number of electron     257.9999987 magnetization       5.9999999
 augmentation part       72.8677331 magnetization       2.4433761

 Free energy of the ion-electron system (eV)
  ---------------------------------------------------
  alpha Z        PSCENC =       687.96972469
  Ewald energy   TEWEN  =    -11372.46306683
  -Hartree energ DENC   =     -7926.86673538
  -exchange      EXHF   =         0.00000000
  -V(xc)+E(xc)   XCENC  =       803.01093830
  PAW double counting   =     36176.51176124   -36745.08503111
  entropy T*S    EENTRO =        -0.00530549
  eigenvalues    EBANDS =      -911.71206191
  atomic energy  EATOM  =     20168.87094289
  ---------------------------------------------------
  free energy    TOTEN  =       880.23002595 eV

  energy without entropy =      880.23533145  energy(sigma->0) =      880.23267870


--------------------------------------------------------------------------------------------------------




--------------------------------------- Iteration      1(  18)  ---------------------------------------


    POTLOK:  cpu time    0.0486: real time    0.0487
    SETDIJ:  cpu time    0.0121: real time    0.0121
    TRIAL :  cpu time   13.0409: real time   13.0543
    CORREC:  cpu time    4.6838: real time    4.6940
    CHARGE:  cpu time    0.5087: real time    0.5092
    --------------------------------------------
      LOOP:  cpu time   18.2981: real time   18.3223

 eigenvalue-minimisations  :     0
 total energy-change (2. order) :-0.1769464E+03  (-0.4264858E+03)
 number of electron     257.9999990 magnetization       6.0000000
 augmentation part       77.2124187 magnetization       3.1528568

 Free energy of the ion-electron system (eV)
  ---------------------------------------------------
  alpha Z        PSCENC =       687.96972469
  Ewald energy   TEWEN  =    -11372.46306683
  -Hartree energ DENC   =     -8911.87202933
  -exchange      EXHF   =         0.00000000
  -V(xc)+E(xc)   XCENC  =       819.27422773
  PAW double counting   =     33961.25572418   -34548.93745516
  entropy T*S    EENTRO =        -0.00854082
  eigenvalues    EBANDS =      -100.80909126
  atomic energy  EATOM  =     20168.87094289
  ---------------------------------------------------
  free energy    TOTEN  =       703.28367141 eV

  energy without entropy =      703.29221223  energy(sigma->0) =      703.28794182


--------------------------------------------------------------------------------------------------------




--------------------------------------- Iteration      1(  19)  ---------------------------------------


    POTLOK:  cpu time    0.0484: real time    0.0484
    SETDIJ:  cpu time    0.0121: real time    0.0121
    TRIAL :  cpu time   13.1543: real time   13.1718
    CORREC:  cpu time    4.5724: real time    4.5771
    CHARGE:  cpu time    0.5057: real time    0.5061
    --------------------------------------------
      LOOP:  cpu time   18.2970: real time   18.3202

 eigenvalue-minimisations  :     0
 total energy-change (2. order) :-0.4261556E+03  (-0.8813449E+02)
 number of electron     257.9999992 magnetization       6.0000000
 augmentation part       77.0771733 magnetization       3.3324052

 Free energy of the ion-electron system (eV)
  ---------------------------------------------------
  alpha Z        PSCENC =       687.96972469
  Ewald energy   TEWEN  =    -11372.46306683
  -Hartree energ DENC   =     -9318.03165511
  -exchange      EXHF   =         0.00000000
  -V(xc)+E(xc)   XCENC  =       846.52578136
  PAW double counting   =     30628.85503607   -31238.77758256
  entropy T*S    EENTRO =        -0.00660040
  eigenvalues    EBANDS =      -125.81253617
  atomic energy  EATOM  =     20168.87094289
  ---------------------------------------------------
  free energy    TOTEN  =       277.12810352 eV

  energy without entropy =      277.13470392  energy(sigma->0) =      277.13140372


--------------------------------------------------------------------------------------------------------




--------------------------------------- Iteration      1(  20)  ---------------------------------------


    POTLOK:  cpu time    0.0490: real time    0.0490
    SETDIJ:  cpu time    0.0121: real time    0.0121
    TRIAL :  cpu time   13.0257: real time   13.0402
    CORREC:  cpu time    4.5498: real time    4.5546
    CHARGE:  cpu time    0.4996: real time    0.4999
    --------------------------------------------
      LOOP:  cpu time   18.1403: real time   18.1599

 eigenvalue-minimisations  :     0
 total energy-change (2. order) :-0.7083022E+02  (-0.7433708E+02)
 number of electron     257.9999991 magnetization       6.0000000
 augmentation part       76.8962628 magnetization       3.4917758

 Free energy of the ion-electron system (eV)
  ---------------------------------------------------
  alpha Z        PSCENC =       687.96972469
  Ewald energy   TEWEN  =    -11372.46306683
  -Hartree energ DENC   =     -8965.44927118
  -exchange      EXHF   =         0.00000000
  -V(xc)+E(xc)   XCENC  =       841.05975127
  PAW double counting   =     29816.02471452   -30406.30969400
  entropy T*S    EENTRO =        -0.00418389
  eigenvalues    EBANDS =      -563.39862227
  atomic energy  EATOM  =     20168.87094289
  ---------------------------------------------------
  free energy    TOTEN  =       206.29787869 eV

  energy without entropy =      206.30206258  energy(sigma->0) =      206.29997064


--------------------------------------------------------------------------------------------------------




--------------------------------------- Iteration      1(  21)  ---------------------------------------


    POTLOK:  cpu time    0.0485: real time    0.0486
    SETDIJ:  cpu time    0.0121: real time    0.0121
    TRIAL :  cpu time   13.0534: real time   13.0675
    CORREC:  cpu time    4.6049: real time    4.6092
    CHARGE:  cpu time    0.4985: real time    0.4989
    --------------------------------------------
      LOOP:  cpu time   18.2215: real time   18.2404

 eigenvalue-minimisations  :     0
 total energy-change (2. order) :-0.7349037E+02  (-0.9024794E+02)
 number of electron     257.9999991 magnetization       6.0000000
 augmentation part       76.6329471 magnetization       3.6429890

 Free energy of the ion-electron system (eV)
  ---------------------------------------------------
  alpha Z        PSCENC =       687.96972469
  Ewald energy   TEWEN  =    -11372.46306683
  -Hartree energ DENC   =     -9159.11358344
  -exchange      EXHF   =         0.00000000
  -V(xc)+E(xc)   XCENC  =       840.33970556
  PAW double counting   =     28788.92662913   -29368.55272687
  entropy T*S    EENTRO =        -0.00775600
  eigenvalues    EBANDS =      -453.16593638
  atomic energy  EATOM  =     20168.87094289
  ---------------------------------------------------
  free energy    TOTEN  =       132.80750486 eV

  energy without entropy =      132.81526085  energy(sigma->0) =      132.81138286


--------------------------------------------------------------------------------------------------------




--------------------------------------- Iteration      1(  22)  ---------------------------------------


    POTLOK:  cpu time    0.0485: real time    0.0485
    SETDIJ:  cpu time    0.0122: real time    0.0122
    TRIAL :  cpu time   13.0171: real time   13.0321
    CORREC:  cpu time    4.8118: real time    4.8171
    CHARGE:  cpu time    0.5097: real time    0.5101
    --------------------------------------------
      LOOP:  cpu time   18.4034: real time   18.4240

 eigenvalue-minimisations  :     0
 total energy-change (2. order) :-0.9385655E+02  (-0.5798867E+02)
 number of electron     257.9999991 magnetization       6.0000000
 augmentation part       76.4854518 magnetization       3.7321395

 Free energy of the ion-electron system (eV)
  ---------------------------------------------------
  alpha Z        PSCENC =       687.96972469
  Ewald energy   TEWEN  =    -11372.46306683
  -Hartree energ DENC   =     -9172.06341140
  -exchange      EXHF   =         0.00000000
  -V(xc)+E(xc)   XCENC  =       841.20428208
  PAW double counting   =     27195.75006951   -27753.83825238
  entropy T*S    EENTRO =        -0.00672158
  eigenvalues    EBANDS =      -556.47158004
  atomic energy  EATOM  =     20168.87094289
  ---------------------------------------------------
  free energy    TOTEN  =        38.95095252 eV

  energy without entropy =       38.95767410  energy(sigma->0) =       38.95431331


--------------------------------------------------------------------------------------------------------




--------------------------------------- Iteration      1(  23)  ---------------------------------------


    POTLOK:  cpu time    0.0485: real time    0.0486
    SETDIJ:  cpu time    0.0122: real time    0.0122
    TRIAL :  cpu time   12.8997: real time   12.9141
    CORREC:  cpu time    4.5704: real time    4.5942
    CHARGE:  cpu time    0.4993: real time    0.4996
    --------------------------------------------
      LOOP:  cpu time   18.0343: real time   18.0729

 eigenvalue-minimisations  :     0
 total energy-change (2. order) :-0.5771785E+02  (-0.2859964E+02)
 number of electron     257.9999992 magnetization       6.0000000
 augmentation part       76.3132762 magnetization       3.8156055

 Free energy of the ion-electron system (eV)
  ---------------------------------------------------
  alpha Z        PSCENC =       687.96972469
  Ewald energy   TEWEN  =    -11372.46306683
  -Hartree energ DENC   =     -9236.65135957
  -exchange      EXHF   =         0.00000000
  -V(xc)+E(xc)   XCENC  =       841.65204106
  PAW double counting   =     26196.19910147   -26730.45614837
  entropy T*S    EENTRO =        -0.00718471
  eigenvalues    EBANDS =      -573.88141474
  atomic energy  EATOM  =     20168.87094289
  ---------------------------------------------------
  free energy    TOTEN  =       -18.76690099 eV

  energy without entropy =      -18.75971628  energy(sigma->0) =      -18.76330863


--------------------------------------------------------------------------------------------------------




--------------------------------------- Iteration      1(  24)  ---------------------------------------


    POTLOK:  cpu time    0.0484: real time    0.0484
    SETDIJ:  cpu time    0.0121: real time    0.0121
    TRIAL :  cpu time   13.0796: real time   13.0939
    CORREC:  cpu time    4.5599: real time    4.5645
    CHARGE:  cpu time    0.4987: real time    0.4991
    --------------------------------------------
      LOOP:  cpu time   18.2030: real time   18.2223

 eigenvalue-minimisations  :     0
 total energy-change (2. order) :-0.2856316E+02  (-0.3986995E+02)
 number of electron     257.9999992 magnetization       6.0000000
 augmentation part       76.0543672 magnetization       4.0636107

 Free energy of the ion-electron system (eV)
  ---------------------------------------------------
  alpha Z        PSCENC =       687.96972469
  Ewald energy   TEWEN  =    -11372.46306683
  -Hartree energ DENC   =     -9149.01097182
  -exchange      EXHF   =         0.00000000
  -V(xc)+E(xc)   XCENC  =       844.89240413
  PAW double counting   =     25738.76545833   -26252.48834423
  entropy T*S    EENTRO =        -0.01546006
  eigenvalues    EBANDS =      -713.85902138
  atomic energy  EATOM  =     20168.87094289
  ---------------------------------------------------
  free energy    TOTEN  =       -47.33005894 eV

  energy without entropy =      -47.31459888  energy(sigma->0) =      -47.32232891


--------------------------------------------------------------------------------------------------------




--------------------------------------- Iteration      1(  25)  ---------------------------------------


    POTLOK:  cpu time    0.0493: real time    0.0493
    SETDIJ:  cpu time    0.0120: real time    0.0120
    TRIAL :  cpu time   13.0920: real time   13.1061
    CORREC:  cpu time    4.5592: real time    4.5643
    CHARGE:  cpu time    0.5085: real time    0.5089
    --------------------------------------------
      LOOP:  cpu time   18.2251: real time   18.2453

 eigenvalue-minimisations  :     0
 total energy-change (2. order) :-0.3976286E+02  (-0.2310711E+02)
 number of electron     257.9999991 magnetization       6.0000000
 augmentation part       77.0243423 magnetization       4.1941124

[...]
   20        1.574   3.387   0.000   4.960
   21        1.582   3.350   0.000   4.932
   22        1.572   3.417   0.000   4.990
   23        1.578   3.385   0.000   4.963
   24        1.572   3.414   0.000   4.986
   25        1.578   3.381   0.000   4.959
   26        1.579   3.410   0.000   4.988
   27        1.561   3.460   0.000   5.021
   28        1.561   3.451   0.000   5.013
   29        1.559   3.460   0.000   5.019
   30        1.564   3.463   0.000   5.026
   31        1.582   3.358   0.000   4.940
   32        1.577   3.365   0.000   4.942
   33        1.575   3.377   0.000   4.952
   34        1.582   3.319   0.000   4.901
   35        1.572   3.388   0.000   4.960
   36        1.581   3.377   0.000   4.958
   37        1.573   3.435   0.000   5.007
   38        1.564   3.428   0.000   4.993
   39        1.557   3.485   0.000   5.042
   40        1.557   3.482   0.000   5.038
   41        1.556   3.474   0.000   5.030
   42        1.556   3.477   0.000   5.033
--------------------------------------------------
tot         43.588  91.491  87.585 222.664
 


 magnetization (x)
 
# of ion       s       p       d       tot
------------------------------------------
    1        0.000  -0.000   0.000  -0.000
    2        0.000  -0.001   0.000  -0.001
    3        0.001   0.000   0.000   0.001
    4        0.001  -0.001   0.000   0.000
    5        0.000  -0.001   0.000  -0.001
    6       -0.000  -0.002   0.000  -0.002
    7        0.012   0.016   1.373   1.400
    8        0.007   0.010  -0.008   0.009
    9        0.011   0.016   1.220   1.248
   10        0.013   0.017   1.327   1.356
   11        0.012   0.014   1.396   1.422
   12        0.004   0.005  -0.050  -0.040
   13        0.004   0.004  -0.001   0.007
   14        0.014   0.015   1.711   1.740
   15        0.010   0.005   1.284   1.299
   16        0.001  -0.000  -0.094  -0.094
   17        0.001   0.000  -0.016  -0.015
   18        0.003   0.002  -0.054  -0.049
   19        0.000  -0.120   0.000  -0.119
   20        0.001  -0.095   0.000  -0.094
   21        0.001  -0.099   0.000  -0.098
   22        0.000  -0.129   0.000  -0.128
   23        0.001  -0.134   0.000  -0.133
   24        0.001  -0.084   0.000  -0.083
   25        0.000  -0.169   0.000  -0.169
   26        0.001  -0.060   0.000  -0.059
   27        0.002  -0.077   0.000  -0.075
   28        0.001  -0.046   0.000  -0.045
   29        0.000  -0.038   0.000  -0.038
   30        0.001  -0.055   0.000  -0.054
   31        0.000  -0.180   0.000  -0.180
   32        0.000  -0.085   0.000  -0.085
   33        0.000  -0.110   0.000  -0.110
   34        0.000  -0.215   0.000  -0.215
   35       -0.001  -0.116   0.000  -0.117
   36        0.001   0.007   0.000   0.007
   37        0.000  -0.074   0.000  -0.074
   38       -0.000  -0.012   0.000  -0.012
   39        0.000  -0.039   0.000  -0.039
   40       -0.001  -0.018   0.000  -0.019
   41       -0.000  -0.047   0.000  -0.047
   42        0.001  -0.006   0.000  -0.005
--------------------------------------------------
tot          0.105  -1.906   8.087   6.287
 
    FORLOC:  cpu time    0.0089: real time    0.0089
    FORNL :  cpu time    4.4771: real time    4.4799
    STRESS:  cpu time   13.4041: real time   13.4116
    FORCOR:  cpu time    0.0520: real time    0.0521
    OFIELD:  cpu time    0.0003: real time    0.0003

  DFT-D2 method for vdW energy calculation
  -------------------------------------------------------------------

  Parameters of vdW forcefield:
         C6(Jnm^6/mol)     R0(A)
   -----------------------------
   Li       1.610          0.825
   Co      10.800          1.562
   O        0.700          1.342

  IVDW =   1
  VDW_RADIUS =    50.000 A
  VDW_S6 =     0.750
  VDW_SR =     1.000
  VDW_D =    20.000
  LVDW_EWALD = F

  Number of pair interactions contributing to vdW energy: 1110121
  Edisp (eV):   -8.92966
    FORVDW:  cpu time    0.1692: real time    0.1704

  FORCE on cell =-STRESS in cart. coord.  units (eV):
  Direction    XX          YY          ZZ          XY          YZ          ZX
  --------------------------------------------------------------------------------------
  Alpha Z   687.96972   687.96972   687.96972
  Ewald     750.63132  1042.61617-13165.77748   -91.13295  -230.39700   -63.73380
  Hartree  6808.01633  6917.78921 -4391.70961   -44.76200   -89.78154   -27.64555
  E(xc)   -1284.90945 -1284.38237 -1286.38549    -0.23966    -0.27706    -0.10356
  Local  -12466.24583-12828.62252 12618.75398   124.30294   303.68556    85.89342
  n-local  -600.32764  -584.03023  -600.83513    -3.52467    -7.74372    -3.57294
  augment  2031.94328  2006.95396  2005.89233     7.10061     7.74636     3.05005
  Kinetic  4070.64074  4059.23077  4137.98366     5.10938     7.07049     4.00480
  Fock        0.00000     0.00000     0.00000     0.00000     0.00000     0.00000
  vdW        -6.05419    -6.10125   -11.64847     0.64374    -0.18030     0.64886
  -------------------------------------------------------------------------------------
  Total      -8.33572    11.42346    -5.75650    -2.50261    -9.87721    -1.45872
  in kB     -31.34067    42.94995   -21.64331    -9.40931   -37.13639    -5.48451
  external pressure =       -3.34 kB  Pullay stress =        0.00 kB


 VOLUME and BASIS-vectors are now :
 -----------------------------------------------------------------------------
  energy-cutoff  :      600.00
  volume of cell :      426.13
      direct lattice vectors                 reciprocal lattice vectors
     5.724828720  0.000000000  0.000000000     0.174677715  0.102880905  0.024867618
    -2.826257944  4.798599720  0.000000000     0.000000000  0.208394127  0.016332895
    -1.492285490 -1.215754986 15.512020111     0.000000000  0.000000000  0.064466136

  length of vectors
     5.724828720  5.569047786 15.630986664     0.204242951  0.209033193  0.064466136


 FORCES acting on ions:
    Electron-Ion                     Ewald-Force                    Non-Local-Force
 -----------------------------------------------------------------------------------------------
   -.347E+01 0.350E+01 -.271E+02   0.327E+01 -.287E+01 0.264E+02   0.134E+00 -.595E+00 0.442E+00
   -.410E+00 -.257E+01 -.103E+02   0.271E+00 0.252E+01 0.977E+01   0.295E+00 0.187E+00 0.950E+00
   0.366E+01 0.839E+00 -.117E+02   -.379E+01 -.650E+00 0.119E+02   -.232E+00 0.254E-01 0.107E+01
   0.124E+00 -.244E+01 0.128E+02   0.109E+00 0.200E+01 -.122E+02   -.246E+00 0.518E+00 -.117E+01
   -.587E+01 0.368E+01 0.564E+01   0.570E+01 -.353E+01 -.485E+01   0.643E+00 -.279E+00 -.362E+00
   -.220E+01 -.337E+01 0.149E+02   0.176E+01 0.337E+01 -.144E+02   0.693E+00 0.853E-01 -.111E+01
   -.218E+02 0.121E+02 -.532E+02   0.219E+02 -.128E+02 0.544E+02   0.473E+00 0.953E-01 -.984E+00
   -.117E+02 0.110E+02 -.427E+02   0.114E+02 -.113E+02 0.433E+02   0.175E+00 -.952E+00 0.644E+00
   0.228E+02 0.964E+01 -.490E+02   -.229E+02 -.996E+01 0.494E+02   -.306E+00 0.435E+00 0.101E+01
   0.107E+01 -.373E+02 0.236E+02   -.703E+00 0.390E+02 -.234E+02   0.488E+00 0.636E+00 -.125E+00
   0.323E+02 -.218E+01 0.393E+03   -.327E+02 0.275E+01 -.394E+03   -.575E+00 0.933E-01 0.652E+00
   -.220E+02 0.755E+01 0.318E+03   0.232E+02 -.694E+01 -.319E+03   0.391E+00 0.696E+00 0.204E+01
   0.971E+01 -.347E+02 0.347E+03   -.102E+02 0.343E+02 -.349E+03   -.525E+00 0.868E+00 0.153E+01
   -.714E+01 0.890E+01 0.294E+03   0.650E+01 -.879E+01 -.297E+03   0.169E+00 -.110E+00 0.129E+01
   0.317E+02 0.109E+02 -.295E+03   -.320E+02 -.105E+02 0.295E+03   0.100E-02 -.139E+00 -.189E+01
   -.123E+01 0.157E+02 -.298E+03   0.444E+00 -.137E+02 0.299E+03   0.140E+01 -.656E+00 -.302E+01
   -.191E+02 0.377E+00 -.325E+03   0.189E+02 -.160E+01 0.327E+03   -.761E-02 -.200E+00 -.165E+01
   -.319E+02 -.208E+02 -.284E+03   0.333E+02 0.210E+02 0.286E+03   0.108E+01 -.242E+00 -.112E+00
   0.115E+02 0.662E+01 -.395E+03   -.130E+02 -.862E+01 0.417E+03   0.603E+00 0.169E+01 -.212E+02
   -.147E+01 -.105E+02 -.413E+03   0.225E+01 0.114E+02 0.434E+03   -.128E+01 -.504E+00 -.212E+02
   0.424E+01 0.908E+01 -.418E+03   -.430E+01 -.109E+02 0.442E+03   -.160E+00 0.172E+01 -.253E+02
   0.104E+02 0.274E+02 -.411E+03   -.134E+02 -.313E+02 0.432E+03   0.272E+01 0.236E+01 -.198E+02
   0.173E+02 -.167E+02 0.362E+03   -.181E+02 0.179E+02 -.386E+03   0.860E-01 0.928E-01 0.234E+02
   -.394E+01 -.647E+01 0.367E+03   0.247E+01 0.973E+01 -.389E+03   0.193E+01 -.343E+01 0.215E+02
   -.259E+02 0.144E+02 0.360E+03   0.275E+02 -.152E+02 -.384E+03   -.132E+00 0.270E+00 0.225E+02
   -.336E+01 -.206E+02 0.358E+03   0.573E+01 0.227E+02 -.382E+03   -.252E+01 -.196E+01 0.224E+02
   -.232E+02 -.277E+01 -.138E+03   0.253E+02 0.904E-01 0.150E+03   -.136E+01 0.311E+01 -.128E+02
   0.569E+01 -.124E+02 -.145E+03   -.877E+01 0.143E+02 0.160E+03   0.339E+01 -.145E+01 -.154E+02
   0.230E+02 0.138E+02 -.150E+03   -.242E+02 -.158E+02 0.165E+03   0.219E+00 0.133E+01 -.153E+02
   0.397E+01 0.164E+02 -.160E+03   -.211E+01 -.162E+02 0.177E+03   -.218E+01 -.997E+00 -.170E+02
   -.799E+01 -.128E+02 0.584E+03   0.858E+01 0.162E+02 -.609E+03   -.766E+00 -.335E+01 0.246E+02
   -.213E+02 -.154E+02 0.594E+03   0.225E+02 0.136E+02 -.618E+03   -.520E+00 0.261E+01 0.241E+02
   0.307E+02 0.271E+02 0.585E+03   -.334E+02 -.252E+02 -.608E+03   0.135E+01 -.417E+01 0.228E+02
   -.145E+02 0.252E+01 0.585E+03   0.173E+02 -.526E+01 -.608E+03   -.177E+01 0.294E+01 0.245E+02
   0.258E+02 0.385E+02 -.569E+03   -.281E+02 -.426E+02 0.592E+03   0.175E+01 0.278E+01 -.235E+02
   0.448E+02 0.420E+02 -.574E+03   -.505E+02 -.486E+02 0.599E+03   0.475E+01 0.538E+01 -.238E+02
   -.323E+02 0.653E+01 -.568E+03   0.353E+02 -.680E+01 0.592E+03   -.327E+01 -.501E+00 -.222E+02
   -.155E+02 -.356E+02 -.566E+03   0.158E+02 0.397E+02 0.586E+03   -.181E+00 -.384E+01 -.198E+02
   -.879E+01 -.472E+02 0.166E+03   0.100E+02 0.523E+02 -.180E+03   -.747E+00 -.289E+01 0.131E+02
   -.116E+02 0.191E+02 0.171E+03   0.130E+02 -.190E+02 -.185E+03   -.140E+01 -.191E+01 0.135E+02
   -.134E+02 -.224E+02 0.174E+03   0.141E+02 0.240E+02 -.185E+03   -.844E+00 -.274E+00 0.107E+02
   0.248E+02 -.111E+01 0.188E+03   -.286E+02 0.123E+01 -.200E+03   0.327E+01 0.460E+00 0.135E+02
 -----------------------------------------------------------------------------------------------
   -.689E+01 0.320E-01 0.166E+01   0.107E-13 -.888E-15 -.136E-11   0.698E+01 -.588E-01 -.162E+01
 
 
 POSITION                                       TOTAL-FORCE (eV/Angst)
 -----------------------------------------------------------------------------------
     -0.83353      2.32325     15.29969        -0.089021     -0.047145     -0.268853
      0.74818     -0.25242      5.02897         0.165093      0.161191      0.336601
      3.71136      0.92886     10.14300        -0.324146      0.198753      0.948312
      2.11910      3.52995     10.53876         0.093747      0.011906     -0.313350
      0.63944      1.13005     10.37675         0.435304     -0.127128      0.455486
     -0.90583      3.50943     10.55378         0.120417      0.046481     -0.479229
      0.88266      3.27559      2.58032         0.401340     -0.533932      0.089884
      2.35174      0.87781      2.53513        -0.246607     -1.078405      1.128922
     -1.94553      3.23798      2.54055        -0.321377      0.188148      1.302786
     -0.58086      0.81844      2.48485         0.887007      2.006348      0.243019
      0.92249      4.11862      7.97332        -0.711998      0.728514     -0.530471
      2.29386      1.74294      8.02851         1.349781      1.178080      0.577526
     -1.94723      4.15903      7.98413        -0.851674      0.267804      0.472023
     -0.54371      1.79718      8.11182        -0.512581     -0.005479     -1.544911
     -0.83856      0.40419     12.75899        -0.087261      0.200277     -1.444375
     -2.30070      2.78785     12.76469         0.522516      1.346705     -1.493925
      2.02498      0.50275     12.73989        -0.243014     -1.325627     -0.462107
      0.43429      2.80943     12.60959         2.163776     -0.106086      0.872807
      0.93039      1.66192      3.42357        -0.924925     -0.348953      1.007248
     -0.51518      4.00177      3.56399        -0.454638      0.479453     -0.124394
      3.80198      1.65370      3.56963        -0.231772     -0.066922     -1.094032
      2.37805      4.15271      3.50136        -0.265964     -1.571168      0.700049
      2.36670      2.44077      1.62364        -0.692061      1.266479     -0.788650
      3.70906      0.01257      1.55059         0.467650     -0.139631     -0.118914
     -0.60673      2.50754      1.58714         1.440297     -0.562119     -0.595618
      0.89436      0.03311      1.70347        -0.155583      0.228604     -1.793382
     -0.60692      0.08213      9.07745         0.817402      0.434456     -0.460597
     -2.01136      2.55062      9.11644         0.223090      0.459656     -0.941725
      2.36718      0.15949      9.06036        -1.104811     -0.661104     -0.550593
      0.89957      2.63418      9.07162        -0.442549     -0.742683     -0.106164
      3.78813      0.94844      7.13212        -0.182911      0.081153     -0.199682
      2.28963      3.32215      7.00624         0.706534      0.868897      0.381633
      0.92548      1.14434      7.04770        -1.286547     -2.374716     -0.151347
     -0.65898      3.36846      6.92876         1.084745      0.239192      1.259438
     -2.18570      1.29787     13.76239        -0.598538     -1.283402     -0.013484
     -3.61672      3.72733     13.65579        -0.900990     -1.289518      0.815812
      0.54918      1.29012     13.55099        -0.206336     -0.737559      1.614027
     -0.87961      3.58680     13.66779         0.056241      0.266480      0.136655
      3.35929     -0.46087     11.69769         0.443621      2.248967     -0.538297
      1.98336      2.14219     11.67739         0.076162     -1.833197      0.213502
      0.60594     -0.48304     11.63049        -0.111342      1.336721      0.587446
     -0.84822      1.83570     11.50189        -0.508074      0.590509      0.870924
 -----------------------------------------------------------------------------------
    total drift:                                0.088754     -0.026842      0.036954


--------------------------------------------------------------------------------------------------------



  FREE ENERGIE OF THE ION-ELECTRON SYSTEM (eV)
  ---------------------------------------------------
  free  energy   TOTEN  =      -231.86911390 eV

  energy  without entropy=     -231.86119217  energy(sigma->0) =     -231.86515303
 


--------------------------------------------------------------------------------------------------------


    POTLOK:  cpu time    0.0740: real time    0.0740


--------------------------------------------------------------------------------------------------------


     LOOP+:  cpu time 4506.8190: real time 4530.4190
    4ORBIT:  cpu time    0.0000: real time    0.0000
 


 total charge     
 
# of ion       s       p       d       tot
------------------------------------------
    1        0.052   0.095   0.000   0.146
    2        0.047   0.085   0.000   0.131
    3        0.115   0.252   0.000   0.366
    4        0.119   0.256   0.000   0.375
    5        0.096   0.203   0.000   0.299
    6        0.111   0.241   0.000   0.352
    7        0.458   0.730   7.210   8.398
    8        0.449   0.714   7.406   8.569
    9        0.487   0.801   7.266   8.554
   10        0.469   0.752   7.227   8.448
   11        0.454   0.722   7.214   8.391
   12        0.445   0.705   7.398   8.548
   13        0.402   0.595   7.311   8.308
   14        0.429   0.653   7.182   8.264
   15        0.467   0.729   7.275   8.472
   16        0.451   0.703   7.409   8.564
   17        0.398   0.589   7.278   8.266
   18        0.454   0.731   7.408   8.593
   19        1.577   3.393   0.000   4.969
   20        1.574   3.387   0.000   4.960
   21        1.582   3.350   0.000   4.932
   22        1.572   3.417   0.000   4.990
   23        1.578   3.385   0.000   4.963
   24        1.572   3.414   0.000   4.986
   25        1.578   3.381   0.000   4.959
   26        1.579   3.410   0.000   4.988
   27        1.561   3.460   0.000   5.021
   28        1.561   3.451   0.000   5.013
   29        1.559   3.460   0.000   5.019
   30        1.564   3.463   0.000   5.026
   31        1.582   3.358   0.000   4.940
   32        1.577   3.365   0.000   4.942
   33        1.575   3.377   0.000   4.952
   34        1.582   3.319   0.000   4.901
   35        1.572   3.388   0.000   4.960
   36        1.581   3.377   0.000   4.958
   37        1.573   3.435   0.000   5.007
   38        1.564   3.428   0.000   4.993
   39        1.557   3.485   0.000   5.042
   40        1.557   3.482   0.000   5.038
   41        1.556   3.474   0.000   5.030
   42        1.556   3.477   0.000   5.033
--------------------------------------------------
tot         43.588  91.491  87.585 222.664
 


 magnetization (x)
 
# of ion       s       p       d       tot
------------------------------------------
    1        0.000  -0.000   0.000  -0.000
    2        0.000  -0.001   0.000  -0.001
    3        0.001   0.000   0.000   0.001
    4        0.001  -0.001   0.000   0.000
    5        0.000  -0.001   0.000  -0.001
    6       -0.000  -0.002   0.000  -0.002
    7        0.012   0.016   1.373   1.400
    8        0.007   0.010  -0.008   0.009
    9        0.011   0.016   1.220   1.248
   10        0.013   0.017   1.327   1.356
   11        0.012   0.014   1.396   1.422
   12        0.004   0.005  -0.050  -0.040
   13        0.004   0.004  -0.001   0.007
   14        0.014   0.015   1.711   1.740
   15        0.010   0.005   1.284   1.299
   16        0.001  -0.000  -0.094  -0.094
   17        0.001   0.000  -0.016  -0.015
   18        0.003   0.002  -0.054  -0.049
   19        0.000  -0.120   0.000  -0.119
   20        0.001  -0.095   0.000  -0.094
   21        0.001  -0.099   0.000  -0.098
   22        0.000  -0.129   0.000  -0.128
   23        0.001  -0.134   0.000  -0.133
   24        0.001  -0.084   0.000  -0.083
   25        0.000  -0.169   0.000  -0.169
   26        0.001  -0.060   0.000  -0.059
   27        0.002  -0.077   0.000  -0.075
   28        0.001  -0.046   0.000  -0.045
   29        0.000  -0.038   0.000  -0.038
   30        0.001  -0.055   0.000  -0.054
   31        0.000  -0.180   0.000  -0.180
   32        0.000  -0.085   0.000  -0.085
   33        0.000  -0.110   0.000  -0.110
   34        0.000  -0.215   0.000  -0.215
   35       -0.001  -0.116   0.000  -0.117
   36        0.001   0.007   0.000   0.007
   37        0.000  -0.074   0.000  -0.074
   38       -0.000  -0.012   0.000  -0.012
   39        0.000  -0.039   0.000  -0.039
   40       -0.001  -0.018   0.000  -0.019
   41       -0.000  -0.047   0.000  -0.047
   42        0.001  -0.006   0.000  -0.005
--------------------------------------------------
tot          0.105  -1.906   8.087   6.287
 

 total amount of memory used by VASP MPI-rank0   169068. kBytes
=======================================================================

   base      :      30000. kBytes
   nonlr-proj:       4243. kBytes
   fftplans  :       1800. kBytes
   grid      :       4952. kBytes
   one-center:        342. kBytes
   wavefun   :     127731. kBytes
 
  
  
 General timing and accounting informations for this job:
 ========================================================
  
                  Total CPU time used (sec):     4533.292
                            User time (sec):     3960.303
                          System time (sec):      572.989
                         Elapsed time (sec):     4557.438
  
                   Maximum memory used (kb):     1010012.
                   Average memory used (kb):           0.
  
                          Minor page faults:       468695
                          Major page faults:           67
                 Voluntary context switches:          723
