 running on   64 total cores
 distrk:  each k-point on   64 cores,    1 groups
 distr:  one band on    4 cores,   16 groups
 using from now: INCAR     
 vasp.5.4.4.18Apr17-6-g9f103f2a35 (build Nov 22 2021 14:44:17) complex          
  
 POSCAR found type information on POSCAR  Li Co O 
 POSCAR found :  3 types and      42 ions
 scaLAPACK will be used
 LDA part: xc-table for Pade appr. of Perdew
 generate k-points for:    6    6    2
 POSCAR, INCAR and KPOINTS ok, starting setup
 FFT: planning ...
 WAVECAR not read
 entering main loop
       N       E                     dE             d eps       ncg     rms          ort
DAV:   1     0.349578237614E+04    0.34958E+04   -0.13967E+05  5760   0.218E+03
DAV:   2     0.417066602363E+03   -0.30787E+04   -0.28391E+04  5760   0.532E+02
DAV:   3    -0.219211213288E+03   -0.63628E+03   -0.58133E+03  5760   0.255E+02
DAV:   4    -0.270970650195E+03   -0.51759E+02   -0.50693E+02  5760   0.749E+01
DAV:   5    -0.272762109746E+03   -0.17915E+01   -0.17882E+01  5760   0.139E+01
 gam= 0.000 g(H,U,f)=  0.185E+04 0.836E+03 0.258E+04 ort(H,U,f) = 0.000E+00 0.000E+00 0.000E+00
SDA:   6     0.153745534853E+03    0.42651E+03   -0.17882E+01  5760   0.527E+04 0.000E+00
 gam= 0.000 trial= 0.400  step= 0.069 mean= 0.400
 gam= 1.748 g(H,U,f)=  0.122E+04 0.409E+04 0.389E+04 ort(H,U,f) = 0.846E+03-0.132E+04-0.429E+03
CGA:   7     0.115975743285E+03   -0.37770E+02   -0.18196E+03  5760   0.921E+04-0.906E+03
 gam= 1.748 trial= 0.383  step= 0.060 mean= 0.383
 gam= 0.000 g(H,U,f)=  0.287E+04 0.595E+05 0.688E+05 ort(H,U,f) = 0.131E+04-0.130E+05-0.180E+05
CGA:   8     0.734908447785E+03    0.61893E+03   -0.22825E+03  5760   0.131E+06-0.297E+05
 gam= 0.000 trial= 0.367  step= 0.148 mean= 0.367
 gam= 0.833 g(H,U,f)=  0.108E+05 0.828E+05 0.156E+05 ort(H,U,f) =-0.415E+04-0.269E+05-0.611E+04
CGA:   9     0.385418332776E+04    0.31193E+04   -0.97160E+04  5760   0.109E+06-0.372E+05
 gam= 0.833 trial= 0.356  step= 0.147 mean= 0.356
 gam= 0.195 g(H,U,f)=  0.129E+05 0.818E+04 0.151E+03 ort(H,U,f) =-0.402E+04-0.442E+04-0.574E+03
CGA:  10     0.280272340924E+04   -0.10515E+04   -0.57645E+04  5760   0.213E+05-0.902E+04
 gam= 0.195 trial= 0.346  step= 0.077 mean= 0.346
 gam= 0.000 g(H,U,f)=  0.937E+03 0.316E+04 0.560E+01 ort(H,U,f) =-0.259E+03-0.111E+05-0.721E+01
CGA:  11     0.101458070013E+03   -0.27013E+04   -0.74942E+03  5760   0.410E+04-0.113E+05
 gam= 0.000 trial= 0.332  step= 0.039 mean= 0.332
 gam= 0.284 g(H,U,f)=  0.498E+03 0.550E+03 0.118E+03 ort(H,U,f) = 0.641E+03 0.911E+03 0.319E+03
CGA:  12     0.610198211231E+01   -0.95356E+02   -0.79734E+02  5760   0.117E+04 0.187E+04
 gam= 0.284 trial= 0.318  step= 0.020 mean= 0.318
 gam= 0.000 g(H,U,f)=  0.397E+03 0.340E+03 0.263E+02 ort(H,U,f) = 0.584E+03 0.592E+03 0.103E+03
CGA:  13    -0.180127478734E+02   -0.24115E+02   -0.16895E+02  5760   0.763E+03 0.128E+04
 gam= 0.000 trial= 0.303  step= 0.104 mean= 0.303
 gam= 0.436 g(H,U,f)=  0.190E+03 0.133E+03 0.947E+01 ort(H,U,f) = 0.239E+03 0.140E+03-0.624E+00
CGA:  14    -0.757463490828E+02   -0.57734E+02   -0.39589E+02  5760   0.333E+03 0.378E+03
 gam= 0.436 trial= 0.293  step= 0.224 mean= 0.293
 gam= 2.119 g(H,U,f)=  0.166E+03 0.420E+03 0.119E+03 ort(H,U,f) = 0.427E+02-0.408E+02-0.262E+02
CGA:  15    -0.132841519557E+03   -0.57095E+02   -0.55699E+02  5760   0.705E+03-0.244E+02
 gam= 2.119 trial= 0.289  step= 0.062 mean= 0.289
 gam= 0.688 g(H,U,f)=  0.165E+03 0.269E+03 0.506E+02 ort(H,U,f) =-0.566E+01 0.374E+01-0.618E+01
CGA:  16    -0.147457610480E+03   -0.14616E+02   -0.20238E+02  5760   0.485E+03-0.810E+01
 gam= 0.688 trial= 0.278  step= 0.066 mean= 0.278
 gam= 0.753 g(H,U,f)=  0.162E+03 0.190E+03 0.136E+02 ort(H,U,f) = 0.606E+01 0.340E+02-0.153E+02
CGA:  17    -0.160154607775E+03   -0.12697E+02   -0.15812E+02  5760   0.365E+03 0.248E+02
 gam= 0.753 trial= 0.267  step= 0.122 mean= 0.267
 gam= 0.852 g(H,U,f)=  0.129E+03 0.172E+03 0.995E+01 ort(H,U,f) =-0.146E+02 0.336E+01-0.501E+01
CGA:  18    -0.177736798426E+03   -0.17582E+02   -0.23326E+02  5760   0.311E+03-0.162E+02
 gam= 0.852 trial= 0.260  step= 0.102 mean= 0.260
 gam= 0.316 g(H,U,f)=  0.543E+02 0.391E+02 0.497E+01 ort(H,U,f) =-0.265E+02 0.326E+02 0.493E+01
CGA:  19    -0.193578427266E+03   -0.15842E+02   -0.15228E+02  5760   0.984E+02 0.110E+02
 gam= 0.316 trial= 0.252  step= 0.087 mean= 0.252
 gam= 0.613 g(H,U,f)=  0.309E+02 0.254E+02 0.406E+01 ort(H,U,f) = 0.117E+02-0.670E+01-0.126E+01
CGA:  20    -0.198082354630E+03   -0.45039E+01   -0.44161E+01  5760   0.603E+02 0.375E+01
 gam= 0.613 trial= 0.244  step= 0.121 mean= 0.244
 gam= 0.847 g(H,U,f)=  0.281E+02 0.209E+02 0.207E+01 ort(H,U,f) = 0.101E+02-0.956E+01-0.224E+01
CGA:  21    -0.201644250535E+03   -0.35619E+01   -0.37798E+01  5760   0.511E+02-0.170E+01
 gam= 0.847 trial= 0.238  step= 0.186 mean= 0.238
 gam= 1.273 g(H,U,f)=  0.241E+02 0.378E+02 0.318E+01 ort(H,U,f) = 0.666E+01-0.737E+01-0.161E+01
CGA:  22    -0.206252052643E+03   -0.46078E+01   -0.46207E+01  5760   0.651E+02-0.232E+01
 gam= 1.273 trial= 0.235  step= 0.126 mean= 0.235
 gam= 0.593 g(H,U,f)=  0.152E+02 0.214E+02 0.198E+01 ort(H,U,f) =-0.652E+01 0.392E+01-0.318E+00
CGA:  23    -0.210080967939E+03   -0.38289E+01   -0.39084E+01  5760   0.386E+02-0.292E+01
 gam= 0.593 trial= 0.230  step= 0.139 mean= 0.230
 gam= 0.447 g(H,U,f)=  0.989E+01 0.649E+01 0.870E+00 ort(H,U,f) =-0.877E+01 0.674E+01 0.877E+00
CGA:  24    -0.212601699240E+03   -0.25207E+01   -0.25635E+01  5760   0.173E+02-0.116E+01
 gam= 0.447 trial= 0.225  step= 0.162 mean= 0.225
 gam= 1.041 g(H,U,f)=  0.857E+01 0.847E+01 0.930E+00 ort(H,U,f) = 0.306E-01-0.673E+00-0.104E+01
CGA:  25    -0.213973915743E+03   -0.13722E+01   -0.13554E+01  5760   0.180E+02-0.168E+01
 gam= 1.041 trial= 0.222  step= 0.190 mean= 0.222
 gam= 1.336 g(H,U,f)=  0.784E+01 0.145E+02 0.166E+01 ort(H,U,f) =-0.279E+00-0.225E+01 0.578E+00
CGA:  26    -0.215577793237E+03   -0.16039E+01   -0.15379E+01  5760   0.240E+02-0.195E+01
 gam= 1.336 trial= 0.220  step= 0.124 mean= 0.220
 gam= 1.011 g(H,U,f)=  0.738E+01 0.142E+02 0.269E+01 ort(H,U,f) =-0.246E+01 0.326E+01 0.296E+01
CGA:  27    -0.217215575451E+03   -0.16378E+01   -0.13275E+01  5760   0.243E+02 0.375E+01
 gam= 1.011 trial= 0.216  step= 0.089 mean= 0.216
 gam= 0.965 g(H,U,f)=  0.650E+01 0.131E+02 0.384E+01 ort(H,U,f) =-0.327E+01 0.287E+01 0.542E+01
CGA:  28    -0.218345134374E+03   -0.11296E+01   -0.12502E+01  5760   0.234E+02 0.502E+01
 gam= 0.965 trial= 0.209  step= 0.079 mean= 0.209
 gam= 0.606 g(H,U,f)=  0.561E+01 0.662E+01 0.196E+01 ort(H,U,f) =-0.456E+01 0.196E+01 0.318E+01
CGA:  29    -0.219080886505E+03   -0.73575E+00   -0.11140E+01  5760   0.142E+02 0.578E+00
 gam= 0.606 trial= 0.203  step= 0.083 mean= 0.203
 gam= 0.686 g(H,U,f)=  0.516E+01 0.421E+01 0.362E+00 ort(H,U,f) =-0.102E+01-0.318E+00-0.495E+00
CGA:  30    -0.219493200321E+03   -0.41231E+00   -0.60269E+00  5760   0.973E+01-0.184E+01
 gam= 0.686 trial= 0.197  step= 0.118 mean= 0.197
 gam= 1.005 g(H,U,f)=  0.428E+01 0.400E+01 0.151E+01 ort(H,U,f) = 0.966E+00 0.141E+00-0.554E+00
CGA:  31    -0.219977057180E+03   -0.48386E+00   -0.49784E+00  5760   0.978E+01 0.553E+00
 gam= 1.005 trial= 0.193  step= 0.112 mean= 0.193
 gam= 0.736 g(H,U,f)=  0.334E+01 0.290E+01 0.956E+00 ort(H,U,f) = 0.626E+00-0.264E+00 0.184E+00
CGA:  32    -0.220559877332E+03   -0.58282E+00   -0.57783E+00  5760   0.720E+01 0.546E+00
 gam= 0.736 trial= 0.189  step= 0.099 mean= 0.189
 gam= 0.823 g(H,U,f)=  0.287E+01 0.256E+01 0.504E+00 ort(H,U,f) = 0.930E+00-0.298E+00-0.418E+00
CGA:  33    -0.220928212829E+03   -0.36834E+00   -0.37827E+00  5760   0.593E+01 0.214E+00
 gam= 0.823 trial= 0.184  step= 0.113 mean= 0.184
 gam= 0.845 g(H,U,f)=  0.221E+01 0.202E+01 0.781E+00 ort(H,U,f) = 0.631E+00 0.379E-01-0.462E+00
CGA:  34    -0.221262330977E+03   -0.33412E+00   -0.34406E+00  5760   0.501E+01 0.207E+00
 gam= 0.845 trial= 0.181  step= 0.102 mean= 0.181
 gam= 0.746 g(H,U,f)=  0.177E+01 0.185E+01 0.124E+00 ort(H,U,f) = 0.126E+00 0.207E+00-0.958E-01
CGA:  35    -0.221515810475E+03   -0.25348E+00   -0.26513E+00  5760   0.374E+01 0.237E+00
 gam= 0.746 trial= 0.177  step= 0.117 mean= 0.177
 gam= 1.004 g(H,U,f)=  0.153E+01 0.185E+01 0.368E+00 ort(H,U,f) =-0.161E+00 0.698E+00-0.270E+00
CGA:  36    -0.221737538481E+03   -0.22173E+00   -0.22812E+00  5760   0.375E+01 0.266E+00
 gam= 1.004 trial= 0.174  step= 0.122 mean= 0.174
 gam= 0.905 g(H,U,f)=  0.134E+01 0.153E+01 0.525E+00 ort(H,U,f) =-0.921E+00 0.114E+01 0.978E-01
CGA:  37    -0.221975173861E+03   -0.23764E+00   -0.24577E+00  5760   0.340E+01 0.321E+00
 gam= 0.905 trial= 0.171  step= 0.102 mean= 0.171
 gam= 0.777 g(H,U,f)=  0.128E+01 0.126E+01 0.101E+00 ort(H,U,f) =-0.983E+00 0.121E+01-0.102E-01
CGA:  38    -0.222152962755E+03   -0.17779E+00   -0.18795E+00  5760   0.264E+01 0.222E+00
 gam= 0.777 trial= 0.168  step= 0.160 mean= 0.168
 gam= 1.127 g(H,U,f)=  0.132E+01 0.131E+01 0.345E+00 ort(H,U,f) =-0.714E+00 0.111E+01-0.159E-01
CGA:  39    -0.222375221427E+03   -0.22226E+00   -0.22429E+00  5760   0.297E+01 0.376E+00
 gam= 1.127 trial= 0.167  step= 0.136 mean= 0.167
 gam= 0.785 g(H,U,f)=  0.133E+01 0.100E+01 0.761E-02 ort(H,U,f) =-0.683E+00 0.853E+00 0.456E-01
CGA:  40    -0.222603877223E+03   -0.22866E+00   -0.23152E+00  5760   0.234E+01 0.215E+00
 gam= 0.785 trial= 0.166  step= 0.142 mean= 0.166
 gam= 0.950 g(H,U,f)=  0.109E+01 0.107E+01 0.584E-01 ort(H,U,f) =-0.119E+00 0.409E+00-0.109E+00
CGA:  41    -0.222779073249E+03   -0.17520E+00   -0.17735E+00  5760   0.222E+01 0.181E+00
 gam= 0.950 trial= 0.165  step= 0.126 mean= 0.165
 gam= 0.855 g(H,U,f)=  0.856E+00 0.986E+00 0.554E-01 ort(H,U,f) =-0.830E-01 0.242E+00-0.119E+00
CGA:  42    -0.222928056386E+03   -0.14898E+00   -0.15016E+00  5760   0.190E+01 0.402E-01
 gam= 0.855 trial= 0.163  step= 0.115 mean= 0.163
 gam= 1.077 g(H,U,f)=  0.817E+00 0.102E+01 0.202E+00 ort(H,U,f) =-0.492E-01 0.156E+00-0.250E+00
CGA:  43    -0.223039035548E+03   -0.11098E+00   -0.11063E+00  5760   0.204E+01-0.143E+00
 gam= 1.077 trial= 0.160  step= 0.099 mean= 0.160
 gam= 0.000 g(H,U,f)=  0.797E+00 0.112E+01 0.208E+00 ort(H,U,f) =-0.810E-01 0.151E+00-0.809E-01
SDA:  44    -0.223133387108E+03   -0.94352E-01   -0.93910E-01  5760   0.213E+01-0.106E-01
 gam= 0.000 trial= 0.157  step= 0.221 mean= 0.157
 gam= 0.371 g(H,U,f)=  0.294E+00 0.473E+00 0.233E-01 ort(H,U,f) = 0.186E+00 0.218E+00 0.166E-02
CGA:  45    -0.223387284308E+03   -0.25390E+00   -0.23578E+00  5760   0.791E+00 0.406E+00
 gam= 0.371 trial= 0.160  step= 0.511 mean= 0.160
 gam= 1.061 g(H,U,f)=  0.298E+00 0.507E+00 0.343E-01 ort(H,U,f) =-0.932E-01 0.220E+00-0.144E-01
CGA:  46    -0.223651543170E+03   -0.26426E+00   -0.24057E+00  5760   0.839E+00 0.112E+00
 gam= 1.061 trial= 0.178  step= 0.398 mean= 0.178
 gam= 0.433 g(H,U,f)=  0.212E+00 0.150E+00 0.645E-03 ort(H,U,f) =-0.230E+00 0.291E+00 0.171E-02
CGA:  47    -0.223849262103E+03   -0.19772E+00   -0.19079E+00  5760   0.363E+00 0.631E-01
 gam= 0.433 trial= 0.189  step= 0.740 mean= 0.189
 gam= 1.022 g(H,U,f)=  0.193E+00 0.177E+00 0.915E-03 ort(H,U,f) =-0.852E-01 0.773E-01 0.272E-03
CGA:  48    -0.223992387478E+03   -0.14313E+00   -0.14463E+00  5760   0.371E+00-0.761E-02
 gam= 1.022 trial= 0.217  step= 0.440 mean= 0.217
 gam= 0.480 g(H,U,f)=  0.101E+00 0.767E-01 0.655E-06 ort(H,U,f) =-0.449E-01 0.695E-01-0.437E-05
CGA:  49    -0.224075472986E+03   -0.83086E-01   -0.80094E-01  5760   0.178E+00 0.246E-01
 gam= 0.480 trial= 0.228  step= 0.670 mean= 0.228
 gam= 0.788 g(H,U,f)=  0.687E-01 0.717E-01 0.135E-04 ort(H,U,f) =-0.306E-01 0.364E-01-0.202E-04
CGA:  50    -0.224140440658E+03   -0.64968E-01   -0.63666E-01  5760   0.140E+00 0.575E-02
 gam= 0.788 trial= 0.250  step= 0.606 mean= 0.250
 gam= 0.989 g(H,U,f)=  0.632E-01 0.755E-01 0.536E-04 ort(H,U,f) =-0.231E-01 0.239E-01-0.260E-04
CGA:  51    -0.224184384840E+03   -0.43944E-01   -0.43952E-01  5760   0.139E+00 0.828E-03
 gam= 0.989 trial= 0.268  step= 0.519 mean= 0.268
 gam= 0.501 g(H,U,f)=  0.397E-01 0.298E-01 0.384E-04 ort(H,U,f) =-0.322E-01 0.410E-01 0.538E-04
CGA:  52    -0.224221812266E+03   -0.37427E-01   -0.36231E-01  5760   0.696E-01 0.882E-02
 gam= 0.501 trial= 0.280  step= 0.676 mean= 0.280
 gam= 1.090 g(H,U,f)=  0.439E-01 0.318E-01 0.309E-04 ort(H,U,f) =-0.140E-01 0.158E-01 0.341E-04
CGA:  53    -0.224247204968E+03   -0.25393E-01   -0.24996E-01  5760   0.758E-01 0.185E-02
 gam= 1.090 trial= 0.300  step= 0.502 mean= 0.300
 gam= 0.456 g(H,U,f)=  0.208E-01 0.138E-01 0.136E-04 ort(H,U,f) =-0.114E-01 0.105E-01 0.461E-04
CGA:  54    -0.224266589182E+03   -0.19384E-01   -0.19543E-01  5760   0.346E-01-0.925E-03
 gam= 0.456 trial= 0.310  step= 0.547 mean= 0.310
 gam= 0.698 g(H,U,f)=  0.128E-01 0.113E-01 0.927E-05 ort(H,U,f) =-0.273E-02 0.290E-02-0.125E-04
CGA:  55    -0.224275952474E+03   -0.93633E-02   -0.93362E-02  5760   0.241E-01 0.149E-03
 gam= 0.698 trial= 0.322  step= 0.576 mean= 0.322
 gam= 0.729 g(H,U,f)=  0.825E-02 0.933E-02 0.347E-05 ort(H,U,f) =-0.392E-02 0.393E-02-0.158E-05
CGA:  56    -0.224282920199E+03   -0.69677E-02   -0.69734E-02  5760   0.176E-01 0.290E-05
 gam= 0.729 trial= 0.335  step= 0.587 mean= 0.335
 gam= 0.751 g(H,U,f)=  0.690E-02 0.631E-02 0.371E-05 ort(H,U,f) =-0.486E-02 0.462E-02-0.522E-05
CGA:  57    -0.224288034898E+03   -0.51147E-02   -0.51572E-02  5760   0.132E-01-0.248E-03
 gam= 0.751 trial= 0.347  step= 0.793 mean= 0.347
 gam= 1.017 g(H,U,f)=  0.762E-02 0.580E-02 0.106E-04 ort(H,U,f) =-0.342E-02 0.339E-02-0.254E-05
CGA:  58    -0.224293194025E+03   -0.51591E-02   -0.51621E-02  5760   0.134E-01-0.249E-04
 gam= 1.017 trial= 0.370  step= 0.494 mean= 0.370
 gam= 0.626 g(H,U,f)=  0.472E-02 0.368E-02 0.461E-05 ort(H,U,f) =-0.169E-02 0.173E-02 0.165E-05
CGA:  59    -0.224296505529E+03   -0.33115E-02   -0.33101E-02  5760   0.841E-02 0.410E-04
 gam= 0.626 trial= 0.376  step= 0.645 mean= 0.376
 gam= 0.691 g(H,U,f)=  0.303E-02 0.278E-02 0.421E-05 ort(H,U,f) =-0.916E-03 0.922E-03-0.504E-05
CGA:  60    -0.224299228385E+03   -0.27229E-02   -0.27217E-02  5760   0.582E-02 0.900E-06
 gam= 0.691 trial= 0.389  step= 0.591 mean= 0.389
 gam= 0.875 g(H,U,f)=  0.237E-02 0.272E-02 0.478E-06 ort(H,U,f) =-0.877E-03 0.854E-03-0.670E-06
CGA:  61    -0.224300945126E+03   -0.17167E-02   -0.17197E-02  5760   0.509E-02-0.232E-04
 gam= 0.875 trial= 0.399  step= 0.700 mean= 0.399
 gam= 1.006 g(H,U,f)=  0.224E-02 0.288E-02 0.238E-05 ort(H,U,f) =-0.151E-02 0.149E-02-0.841E-06
CGA:  62    -0.224302716360E+03   -0.17712E-02   -0.17749E-02  5760   0.512E-02-0.186E-04
 gam= 1.006 trial= 0.414  step= 0.692 mean= 0.414
 gam= 1.237 g(H,U,f)=  0.321E-02 0.312E-02 0.634E-05 ort(H,U,f) =-0.186E-02 0.185E-02-0.146E-05
CGA:  63    -0.224304473234E+03   -0.17569E-02   -0.17652E-02  5760   0.633E-02-0.141E-04
 gam= 1.237 trial= 0.428  step= 0.764 mean= 0.428
 gam= 1.168 g(H,U,f)=  0.438E-02 0.301E-02 0.638E-05 ort(H,U,f) =-0.227E-02 0.220E-02-0.121E-05
CGA:  64    -0.224306858471E+03   -0.23852E-02   -0.24141E-02  5760   0.740E-02-0.772E-04
 gam= 1.168 trial= 0.445  step= 0.691 mean= 0.445
 gam= 0.916 g(H,U,f)=  0.397E-02 0.280E-02 0.761E-05 ort(H,U,f) =-0.159E-02 0.156E-02-0.187E-04
CGA:  65    -0.224309374493E+03   -0.25160E-02   -0.25231E-02  5760   0.678E-02-0.490E-04
 gam= 0.916 trial= 0.457  step= 0.614 mean= 0.457
 gam= 0.843 g(H,U,f)=  0.315E-02 0.255E-02 0.239E-05 ort(H,U,f) =-0.842E-03 0.856E-03-0.421E-05
CGA:  66    -0.224311440610E+03   -0.20661E-02   -0.20655E-02  5760   0.571E-02 0.100E-04
 gam= 0.843 trial= 0.465  step= 0.641 mean= 0.465
 gam= 0.786 g(H,U,f)=  0.213E-02 0.235E-02 0.455E-05 ort(H,U,f) =-0.607E-03 0.606E-03-0.615E-06
CGA:  67    -0.224313272620E+03   -0.18320E-02   -0.18326E-02  5760   0.449E-02-0.151E-05
 gam= 0.786 trial= 0.474  step= 0.597 mean= 0.474
 gam= 0.721 g(H,U,f)=  0.160E-02 0.164E-02 0.125E-06 ort(H,U,f) =-0.984E-03 0.100E-02-0.392E-06
CGA:  68    -0.224314614260E+03   -0.13416E-02   -0.13405E-02  5760   0.324E-02 0.180E-04
 gam= 0.721 trial= 0.480  step= 0.731 mean= 0.480
 gam= 1.091 g(H,U,f)=  0.187E-02 0.164E-02 0.100E-04 ort(H,U,f) =-0.864E-03 0.877E-03-0.772E-05
CGA:  69    -0.224315803218E+03   -0.11890E-02   -0.11875E-02  5760   0.353E-02 0.554E-05
 gam= 1.091 trial= 0.493  step= 0.657 mean= 0.493
 gam= 0.658 g(H,U,f)=  0.143E-02 0.889E-03 0.323E-05 ort(H,U,f) =-0.832E-03 0.828E-03 0.133E-05
CGA:  70    -0.224316963442E+03   -0.11602E-02   -0.11621E-02  5760   0.232E-02-0.305E-05
 gam= 0.658 trial= 0.501  step= 0.582 mean= 0.501
 gam= 0.889 g(H,U,f)=  0.116E-02 0.896E-03 0.961E-05 ort(H,U,f) =-0.185E-03 0.169E-03-0.760E-05
CGA:  71    -0.224317636465E+03   -0.67302E-03   -0.67499E-03  5760   0.207E-02-0.237E-04
 gam= 0.889 trial= 0.505  step= 0.543 mean= 0.505
 gam= 0.512 g(H,U,f)=  0.612E-03 0.445E-03 0.579E-06 ort(H,U,f) =-0.113E-03 0.106E-03 0.895E-06
CGA:  72    -0.224318190892E+03   -0.55443E-03   -0.55462E-03  5760   0.106E-02-0.606E-05
 gam= 0.512 trial= 0.507  step= 0.535 mean= 0.507
 gam= 0.640 g(H,U,f)=  0.326E-03 0.348E-03 0.214E-05 ort(H,U,f) =-0.482E-04 0.440E-04-0.650E-06
CGA:  73    -0.224318473045E+03   -0.28215E-03   -0.28221E-03  5760   0.677E-03-0.483E-05
 gam= 0.640 trial= 0.508  step= 0.543 mean= 0.508
 gam= 0.718 g(H,U,f)=  0.242E-03 0.242E-03 0.200E-05 ort(H,U,f) =-0.872E-04 0.839E-04-0.432E-06
CGA:  74    -0.224318655847E+03   -0.18280E-03   -0.18283E-03  5760   0.486E-03-0.372E-05
 gam= 0.718 trial= 0.510  step= 0.665 mean= 0.510
 gam= 0.000 g(H,U,f)=  0.185E-03 0.187E-03 0.391E-06 ort(H,U,f) =-0.104E-03 0.107E-03 0.513E-06
SDA:  75    -0.224318816831E+03   -0.16098E-03   -0.16067E-03  5760   0.372E-03 0.364E-05
 gam= 0.000 trial= 0.518  step= 0.446 mean= 0.518
 gam= 0.612 g(H,U,f)=  0.848E-04 0.142E-03 0.685E-06 ort(H,U,f) = 0.759E-05-0.643E-05-0.219E-06
CGA:  76    -0.224318899774E+03   -0.82943E-04   -0.82977E-04  5760   0.228E-03 0.934E-06
 gam= 0.612 trial= 0.514  step= 0.804 mean= 0.514
 gam= 1.025 g(H,U,f)=  0.782E-04 0.155E-03 0.129E-06 ort(H,U,f) =-0.454E-04 0.497E-04 0.504E-08
CGA:  77    -0.224318992243E+03   -0.92469E-04   -0.91855E-04  5760   0.234E-03 0.425E-05
 gam= 1.025 trial= 0.529  step= 0.439 mean= 0.529
 gam= 0.613 g(H,U,f)=  0.694E-04 0.734E-04 0.391E-06 ort(H,U,f) =-0.514E-04 0.524E-04 0.213E-06
CGA:  78    -0.224319044510E+03   -0.52267E-04   -0.52287E-04  5760   0.143E-03 0.124E-05
 gam= 0.613 trial= 0.524  step= 0.766 mean= 0.524
 gam= 0.981 g(H,U,f)=  0.623E-04 0.781E-04 0.123E-06 ort(H,U,f) =-0.282E-04 0.302E-04-0.295E-06
CGA:  79    -0.224319099641E+03   -0.55132E-04   -0.55148E-04  5760   0.140E-03 0.166E-05
 gam= 0.981 trial= 0.536  step= 0.593 mean= 0.536
 gam= 0.741 g(H,U,f)=  0.469E-04 0.570E-04 0.164E-06 ort(H,U,f) =-0.224E-04 0.224E-04 0.926E-07
CGA:  80    -0.224319141742E+03   -0.42101E-04   -0.42154E-04  5760   0.104E-03-0.138E-08
 gam= 0.741 trial= 0.539  step= 0.742 mean= 0.539
 gam= 1.087 g(H,U,f)=  0.509E-04 0.619E-04 0.297E-06 ort(H,U,f) =-0.175E-04 0.164E-04-0.315E-06
CGA:  81    -0.224319180063E+03   -0.38320E-04   -0.38598E-04  5760   0.113E-03-0.150E-05
 gam= 1.087 trial= 0.549  step= 0.758 mean= 0.549
 gam= 0.824 g(H,U,f)=  0.437E-04 0.490E-04 0.430E-06 ort(H,U,f) =-0.280E-04 0.265E-04 0.557E-07
CGA:  82    -0.224319222116E+03   -0.42053E-04   -0.42255E-04  5760   0.932E-04-0.147E-05
 gam= 0.824 trial= 0.560  step= 0.769 mean= 0.560
 gam= 1.051 g(H,U,f)=  0.417E-04 0.559E-04 0.380E-06 ort(H,U,f) =-0.196E-04 0.188E-04-0.423E-06
CGA:  83    -0.224319257156E+03   -0.35040E-04   -0.35379E-04  5760   0.980E-04-0.119E-05
 gam= 1.051 trial= 0.570  step= 0.593 mean= 0.570
 gam= 0.954 g(H,U,f)=  0.372E-04 0.562E-04 0.757E-07 ort(H,U,f) =-0.143E-04 0.130E-04-0.581E-07
CGA:  84    -0.224319285786E+03   -0.28630E-04   -0.28655E-04  5760   0.935E-04-0.137E-05
 gam= 0.954 trial= 0.571  step= 0.528 mean= 0.571
 gam= 0.576 g(H,U,f)=  0.266E-04 0.272E-04 0.767E-07 ort(H,U,f) =-0.129E-04 0.132E-04 0.286E-07
CGA:  85    -0.224319310112E+03   -0.24326E-04   -0.24328E-04  5760   0.538E-04 0.372E-06
 gam= 0.576 trial= 0.569  step= 0.666 mean= 0.569
 gam= 0.650 g(H,U,f)=  0.182E-04 0.168E-04 0.208E-07 ort(H,U,f) =-0.587E-05 0.658E-05-0.334E-07
CGA:  86    -0.224319328129E+03   -0.18017E-04   -0.17979E-04  5760   0.350E-04 0.678E-06
 gam= 0.650 trial= 0.574  step= 0.874 mean= 0.574
 gam= 0.741 g(H,U,f)=  0.122E-04 0.137E-04 0.462E-08 ort(H,U,f) =-0.543E-05 0.653E-05 0.535E-08
CGA:  87    -0.224319343767E+03   -0.15638E-04   -0.15478E-04  5760   0.259E-04 0.111E-05
 gam= 0.741 trial= 0.589  step= 0.731 mean= 0.589
 gam= 0.952 g(H,U,f)=  0.971E-05 0.150E-04 0.211E-08 ort(H,U,f) =-0.512E-05 0.555E-05-0.549E-08
CGA:  88    -0.224319353567E+03   -0.97992E-05   -0.97680E-05  5760   0.247E-04 0.430E-06
 gam= 0.952 trial= 0.596  step= 0.753 mean= 0.596
 gam= 1.122 g(H,U,f)=  0.106E-04 0.171E-04 0.154E-07 ort(H,U,f) =-0.569E-05 0.625E-05 0.910E-08
CGA:  89    -0.224319363063E+03   -0.94966E-05   -0.94523E-05  5760   0.277E-04 0.571E-06
 gam= 1.122 trial= 0.604  step= 0.668 mean= 0.604
 gam= 1.145 g(H,U,f)=  0.132E-04 0.184E-04 0.802E-07 ort(H,U,f) =-0.670E-05 0.640E-05 0.212E-07
CGA:  90    -0.224319372519E+03   -0.94561E-05   -0.94729E-05  5760   0.317E-04-0.282E-06
 gam= 1.145 trial= 0.607  step= 0.634 mean= 0.607
 gam= 0.809 g(H,U,f)=  0.127E-04 0.130E-04 0.505E-07 ort(H,U,f) =-0.641E-05 0.601E-05-0.923E-07
CGA:  91    -0.224319382462E+03   -0.99428E-05   -0.99587E-05  5760   0.257E-04-0.491E-06
 gam= 0.809 trial= 0.608  step= 0.776 mean= 0.608
 gam= 0.954 g(H,U,f)=  0.110E-04 0.134E-04 0.720E-07 ort(H,U,f) =-0.311E-05 0.224E-05 0.576E-07
CGA:  92    -0.224319392136E+03   -0.96738E-05   -0.98054E-05  5760   0.245E-04-0.811E-06
 gam= 0.954 trial= 0.617  step= 0.567 mean= 0.617
 gam= 0.578 g(H,U,f)=  0.666E-05 0.746E-05 0.255E-07 ort(H,U,f) =-0.248E-05 0.171E-05-0.683E-07
CGA:  93    -0.224319398874E+03   -0.67382E-05   -0.67188E-05  5760   0.142E-04-0.832E-06
 gam= 0.578 trial= 0.614  step= 0.688 mean= 0.614
 gam= 0.823 g(H,U,f)=  0.469E-05 0.694E-05 0.181E-07 ort(H,U,f) =-0.140E-05 0.737E-06 0.975E-08
CGA:  94    -0.224319403548E+03   -0.46743E-05   -0.47052E-05  5760   0.116E-04-0.655E-06
 gam= 0.823 trial= 0.618  step= 0.683 mean= 0.618
 gam= 0.667 g(H,U,f)=  0.340E-05 0.435E-05 0.101E-07 ort(H,U,f) =-0.239E-05 0.238E-05 0.548E-08
CGA:  95    -0.224319407339E+03   -0.37905E-05   -0.37938E-05  5760   0.776E-05-0.357E-08
 gam= 0.667 trial= 0.621  step= 0.694 mean= 0.621
 gam= 1.373 g(H,U,f)=  0.343E-05 0.719E-05 0.294E-07 ort(H,U,f) =-0.120E-05 0.992E-06-0.129E-07
CGA:  96    -0.224319410024E+03   -0.26851E-05   -0.26925E-05  5760   0.107E-04-0.222E-06
 gam= 1.373 trial= 0.625  step= 0.637 mean= 0.625
 gam= 0.839 g(H,U,f)=  0.386E-05 0.507E-05 0.704E-08 ort(H,U,f) =-0.234E-05 0.247E-05-0.742E-08
CGA:  97    -0.224319413320E+03   -0.32967E-05   -0.32967E-05  5760   0.894E-05 0.131E-06
 gam= 0.839 trial= 0.626  step= 0.647 mean= 0.626
 gam= 0.767 g(H,U,f)=  0.353E-05 0.332E-05 0.514E-08 ort(H,U,f) =-0.170E-05 0.208E-05 0.482E-08
CGA:  98    -0.224319416252E+03   -0.29314E-05   -0.29275E-05  5760   0.685E-05 0.386E-06
 gam= 0.767 trial= 0.627  step= 1.093 mean= 0.627
 gam= 0.927 g(H,U,f)=  0.318E-05 0.317E-05 0.546E-08 ort(H,U,f) =-0.147E-05 0.170E-05-0.520E-08
CGA:  99    -0.224319420208E+03   -0.39564E-05   -0.39074E-05  5760   0.636E-05 0.218E-06
 gam= 0.927 trial= 0.650  step= 0.768 mean= 0.650
 gam= 0.904 g(H,U,f)=  0.290E-05 0.283E-05 0.117E-07 ort(H,U,f) =-0.124E-05 0.107E-05 0.719E-08
CGA: 100    -0.224319422717E+03   -0.25087E-05   -0.25192E-05  5760   0.575E-05-0.166E-06
 gam= 0.904 trial= 0.656  step= 0.800 mean= 0.656
 gam= 0.586 g(H,U,f)=  0.181E-05 0.156E-05 0.299E-08 ort(H,U,f) =-0.877E-06 0.108E-05-0.683E-08
CGA: 101    -0.224319424972E+03   -0.22552E-05   -0.22401E-05  5760   0.337E-05 0.198E-06
 gam= 0.586 trial= 0.663  step= 0.795 mean= 0.663
 gam= 1.003 g(H,U,f)=  0.118E-05 0.219E-05 0.122E-07 ort(H,U,f) =-0.357E-06 0.363E-06-0.155E-08
CGA: 102    -0.224319426355E+03   -0.13827E-05   -0.13862E-05  5760   0.338E-05 0.414E-08
 gam= 1.003 trial= 0.670  step= 0.505 mean= 0.670
 gam= 0.847 g(H,U,f)=  0.113E-05 0.172E-05 0.388E-08 ort(H,U,f) =-0.372E-06 0.266E-06-0.116E-08
CGA: 103    -0.224319427226E+03   -0.87074E-06   -0.85429E-06  5760   0.286E-05-0.107E-06
 gam= 0.847 trial= 0.661  step= 0.625 mean= 0.661
 final diagonalization
   1 F= -.23384844E+03 E0= -.23384808E+03  d E =-.728259E-03  mag=     6.0000
