       N       E                     dE             d eps       ncg     rms          ort
DAV:   1     0.347872716719E+04    0.34787E+04   -0.13929E+05  5760   0.219E+03
DAV:   2     0.400859840863E+03   -0.30779E+04   -0.28350E+04  5760   0.534E+02
DAV:   3    -0.221915813603E+03   -0.62278E+03   -0.56794E+03  5760   0.253E+02
DAV:   4    -0.271441703877E+03   -0.49526E+02   -0.48510E+02  5760   0.736E+01
DAV:   5    -0.273148230028E+03   -0.17065E+01   -0.17037E+01  5760   0.135E+01
SDA:   6     0.153050673074E+03    0.42620E+03   -0.17037E+01  5760   0.991E+04 0.000E+00
CGA:   7     0.818511808425E+03    0.66546E+03   -0.56753E+03  5760   0.140E+06-0.326E+05
CGA:   8     0.723972785867E+04    0.64212E+04   -0.11105E+05  5760   0.215E+06-0.745E+05
CGA:   9     0.527528770938E+04   -0.19644E+04   -0.20162E+05  5760   0.302E+05-0.142E+05
CGA:  10     0.973429640248E+04    0.44590E+04   -0.24728E+04  5760   0.581E+05-0.594E+04
CGA:  11     0.106260109660E+05    0.89171E+03   -0.34980E+04  5760   0.118E+06-0.203E+05
CGA:  12     0.106119048458E+05   -0.14106E+02   -0.76318E+04  5760   0.190E+06 0.613E+04
CGA:  13     0.709673008048E+04   -0.35152E+04   -0.17665E+05  5760   0.109E+06-0.813E+04
CGA:  14     0.513213217114E+04   -0.19646E+04   -0.90978E+04  5760   0.502E+05 0.294E+05
CGA:  15     0.376711590035E+04   -0.13650E+04   -0.45431E+04  5760   0.795E+04 0.136E+05
CGA:  16     0.341702887988E+04   -0.35009E+03   -0.39919E+03  5760   0.500E+04 0.164E+04
CGA:  17     0.271988855967E+04   -0.69714E+03   -0.73733E+03  5760   0.159E+05 0.731E+03
CGA:  18     0.174515694762E+04   -0.97473E+03   -0.16293E+04  5760   0.276E+04 0.374E+04
CGA:  19     0.141253288787E+04   -0.33262E+03   -0.35807E+03  5760   0.406E+04 0.128E+03
CGA:  20     0.800781720864E+03   -0.61175E+03   -0.60830E+03  5760   0.220E+04-0.135E+04
CGA:  21     0.738404926561E+03   -0.62377E+02   -0.92222E+02  5760   0.139E+04-0.226E+00
CGA:  22     0.566711053839E+03   -0.17169E+03   -0.17547E+03  5760   0.165E+04 0.163E+03
CGA:  23     0.440913684231E+03   -0.12580E+03   -0.15105E+03  5760   0.720E+03 0.526E+02
CGA:  24     0.275968353232E+03   -0.16495E+03   -0.15590E+03  5760   0.687E+03 0.102E+03
CGA:  25     0.195893732048E+03   -0.80075E+02   -0.81516E+02  5760   0.414E+03 0.373E+02
CGA:  26     0.969322105907E+02   -0.98962E+02   -0.94512E+02  5760   0.352E+03 0.439E+02
CGA:  27     0.537613497897E+02   -0.43171E+02   -0.41336E+02  5760   0.397E+03 0.760E+01
CGA:  28    -0.152652681125E+02   -0.69027E+02   -0.73408E+02  5760   0.933E+03-0.674E+02
CGA:  29    -0.344188899666E+02   -0.19154E+02   -0.98732E+01  5760   0.611E+03 0.700E+03
CGA:  30    -0.594762602692E+02   -0.25057E+02   -0.23471E+02  5760   0.222E+03 0.329E+02
CGA:  31    -0.966774176433E+02   -0.37201E+02   -0.37736E+02  5760   0.319E+03-0.107E+02
CGA:  32    -0.133033888021E+03   -0.36356E+02   -0.35813E+02  5760   0.696E+03-0.118E+02
CGA:  33    -0.165558926872E+03   -0.32525E+02   -0.24717E+02  5760   0.146E+03 0.143E+03
CGA:  34    -0.172998906768E+03   -0.74400E+01   -0.85904E+01  5760   0.170E+03-0.172E+02
CGA:  35    -0.187131661609E+03   -0.14133E+02   -0.13391E+02  5760   0.270E+03-0.497E+01
CGA:  36    -0.196650810141E+03   -0.95191E+01   -0.76196E+01  5760   0.982E+02 0.488E+02
CGA:  37    -0.200213567477E+03   -0.35628E+01   -0.35600E+01  5760   0.102E+03-0.942E+01
CGA:  38    -0.203830934359E+03   -0.36174E+01   -0.39616E+01  5760   0.154E+03-0.223E+01
CGA:  39    -0.206583199810E+03   -0.27523E+01   -0.42960E+01  5760   0.801E+02-0.321E+02
CGA:  40    -0.208206660171E+03   -0.16235E+01   -0.18980E+01  5760   0.554E+02-0.896E+01
CGA:  41    -0.209704499028E+03   -0.14978E+01   -0.15705E+01  5760   0.356E+02-0.419E+01
CGA:  42    -0.210711892834E+03   -0.10074E+01   -0.10456E+01  5760   0.211E+02-0.128E+01
CGA:  43    -0.211592695171E+03   -0.88080E+00   -0.87644E+00  5760   0.279E+02 0.756E-01
CGA:  44    -0.212934006491E+03   -0.13413E+01   -0.13560E+01  5760   0.274E+02 0.506E+00
CGA:  45    -0.213828047402E+03   -0.89404E+00   -0.94375E+00  5760   0.212E+02-0.806E+00
CGA:  46    -0.214819653895E+03   -0.99161E+00   -0.96847E+00  5760   0.271E+02-0.252E-01
CGA:  47    -0.215933477369E+03   -0.11138E+01   -0.10820E+01  5760   0.198E+02 0.389E+00
CGA:  48    -0.216508717689E+03   -0.57524E+00   -0.60491E+00  5760   0.111E+02-0.317E+00
CGA:  49    -0.217014491270E+03   -0.50577E+00   -0.52745E+00  5760   0.147E+02 0.277E+00
CGA:  50    -0.217764924429E+03   -0.75043E+00   -0.76099E+00  5760   0.127E+02 0.475E+00
CGA:  51    -0.218285269998E+03   -0.52035E+00   -0.51050E+00  5760   0.115E+02 0.765E+00
CGA:  52    -0.218831141712E+03   -0.54587E+00   -0.54930E+00  5760   0.111E+02 0.468E+00
CGA:  53    -0.219159236400E+03   -0.32809E+00   -0.35356E+00  5760   0.512E+01 0.451E-01
CGA:  54    -0.219379607301E+03   -0.22037E+00   -0.23126E+00  5760   0.633E+01 0.198E+00
CGA:  55    -0.219721276417E+03   -0.34167E+00   -0.34877E+00  5760   0.540E+01 0.343E+00
CGA:  56    -0.219942151970E+03   -0.22088E+00   -0.23411E+00  5760   0.367E+01 0.170E+00
CGA:  57    -0.220157456182E+03   -0.21530E+00   -0.21868E+00  5760   0.354E+01 0.248E+00
CGA:  58    -0.220388980579E+03   -0.23152E+00   -0.23436E+00  5760   0.330E+01 0.324E+00
CGA:  59    -0.220620316351E+03   -0.23134E+00   -0.23148E+00  5760   0.320E+01 0.948E-01
SDA:  60    -0.220849060646E+03   -0.22874E+00   -0.22844E+00  5760   0.287E+01 0.107E+00
CGA:  61    -0.221146921736E+03   -0.29786E+00   -0.29508E+00  5760   0.300E+01 0.665E-01
CGA:  62    -0.221430847428E+03   -0.28393E+00   -0.28155E+00  5760   0.263E+01 0.540E-01
CGA:  63    -0.221806171253E+03   -0.37532E+00   -0.36936E+00  5760   0.172E+01 0.664E-02
CGA:  64    -0.222058861993E+03   -0.25269E+00   -0.24744E+00  5760   0.138E+01 0.569E-01
CGA:  65    -0.222182019367E+03   -0.12316E+00   -0.12149E+00  5760   0.190E+01 0.116E+00
CGA:  66    -0.222400544538E+03   -0.21853E+00   -0.22467E+00  5760   0.160E+01-0.592E-01
CGA:  67    -0.222522642790E+03   -0.12210E+00   -0.12211E+00  5760   0.151E+01-0.280E+00
CGA:  68    -0.222648129210E+03   -0.12549E+00   -0.12597E+00  5760   0.920E+00-0.165E-01
CGA:  69    -0.222715962324E+03   -0.67833E-01   -0.68545E-01  5760   0.866E+00 0.555E-01
CGA:  70    -0.222789066022E+03   -0.73104E-01   -0.73013E-01  5760   0.892E+00-0.107E+00
CGA:  71    -0.222880243505E+03   -0.91177E-01   -0.88082E-01  5760   0.483E+00 0.246E+00
CGA:  72    -0.222935727600E+03   -0.55484E-01   -0.53914E-01  5760   0.581E+00 0.192E+00
CGA:  73    -0.222988896066E+03   -0.53168E-01   -0.53928E-01  5760   0.708E+00 0.110E+00
CGA:  74    -0.223057959223E+03   -0.69063E-01   -0.68881E-01  5760   0.532E+00 0.135E+00
CGA:  75    -0.223149304282E+03   -0.91345E-01   -0.87277E-01  5760   0.157E+01-0.941E-01
CGA:  76    -0.223220241361E+03   -0.70937E-01   -0.67575E-01  5760   0.774E+00 0.735E+00
CGA:  77    -0.223271546671E+03   -0.51305E-01   -0.68345E-01  5760   0.625E+00 0.453E+00
CGA:  78    -0.223375892482E+03   -0.10435E+00   -0.88972E-01  5760   0.595E+00 0.254E+00
CGA:  79    -0.223449131662E+03   -0.73239E-01   -0.73019E-01  5760   0.748E+00 0.965E-01
CGA:  80    -0.223483663202E+03   -0.34532E-01   -0.34049E-01  5760   0.876E+00 0.210E+00
CGA:  81    -0.223520357548E+03   -0.36694E-01   -0.49511E-01  5760   0.743E+00 0.100E+00
CGA:  82    -0.223563076712E+03   -0.42719E-01   -0.41892E-01  5760   0.436E+00-0.420E-01
CGA:  83    -0.223594861458E+03   -0.31785E-01   -0.31796E-01  5760   0.507E+00 0.270E-01
CGA:  84    -0.223637323586E+03   -0.42462E-01   -0.42480E-01  5760   0.236E+00-0.353E-01
CGA:  85    -0.223655057026E+03   -0.17733E-01   -0.17736E-01  5760   0.247E+00 0.221E-01
CGA:  86    -0.223684516852E+03   -0.29460E-01   -0.30890E-01  5760   0.183E+00-0.312E-01
CGA:  87    -0.223700996579E+03   -0.16480E-01   -0.16785E-01  5760   0.162E+00 0.764E-02
CGA:  88    -0.223718349736E+03   -0.17353E-01   -0.17575E-01  5760   0.670E-01-0.694E-02
CGA:  89    -0.223727665397E+03   -0.93157E-02   -0.95948E-02  5760   0.884E-01 0.149E-02
CGA:  90    -0.223738840020E+03   -0.11175E-01   -0.11494E-01  5760   0.645E-01-0.267E-02
CGA:  91    -0.223748369374E+03   -0.95294E-02   -0.93669E-02  5760   0.443E-01 0.123E-02
CGA:  92    -0.223754138746E+03   -0.57694E-02   -0.62053E-02  5760   0.499E-01-0.289E-02
CGA:  93    -0.223760629926E+03   -0.64912E-02   -0.66118E-02  5760   0.372E-01-0.172E-02
CGA:  94    -0.223765520313E+03   -0.48904E-02   -0.49552E-02  5760   0.317E-01-0.340E-03
CGA:  95    -0.223768847824E+03   -0.33275E-02   -0.33563E-02  5760   0.241E-01-0.113E-02
CGA:  96    -0.223772469830E+03   -0.36220E-02   -0.36619E-02  5760   0.201E-01-0.879E-03
CGA:  97    -0.223774351901E+03   -0.18821E-02   -0.18715E-02  5760   0.136E-01-0.195E-03
CGA:  98    -0.223776280346E+03   -0.19284E-02   -0.19261E-02  5760   0.905E-02-0.163E-03
CGA:  99    -0.223777348671E+03   -0.10683E-02   -0.10884E-02  5760   0.897E-02-0.463E-03
CGA: 100    -0.223778638770E+03   -0.12901E-02   -0.14207E-02  5760   0.961E-02-0.108E-02
CGA: 101    -0.223779905430E+03   -0.12667E-02   -0.12363E-02  5760   0.886E-02 0.765E-03
CGA: 102    -0.223781049911E+03   -0.11445E-02   -0.11533E-02  5760   0.741E-02-0.351E-03
CGA: 103    -0.223782572641E+03   -0.15227E-02   -0.16112E-02  5760   0.946E-02-0.725E-03
CGA: 104    -0.223783794388E+03   -0.12217E-02   -0.12413E-02  5760   0.860E-02-0.115E-03
CGA: 105    -0.223784968580E+03   -0.11742E-02   -0.11813E-02  5760   0.749E-02 0.737E-04
CGA: 106    -0.223786221346E+03   -0.12528E-02   -0.12367E-02  5760   0.649E-02 0.211E-03
CGA: 107    -0.223787389722E+03   -0.11684E-02   -0.11795E-02  5760   0.856E-02-0.109E-03
SDA: 108    -0.223788561776E+03   -0.11721E-02   -0.11769E-02  5760   0.787E-02-0.111E-03
CGA: 109    -0.223789639429E+03   -0.10777E-02   -0.10779E-02  5760   0.399E-02 0.175E-03
CGA: 110    -0.223790187709E+03   -0.54828E-03   -0.55279E-03  5760   0.365E-02-0.458E-04
CGA: 111    -0.223790890539E+03   -0.70283E-03   -0.74571E-03  5760   0.227E-02-0.342E-03
CGA: 112    -0.223791505656E+03   -0.61512E-03   -0.61202E-03  5760   0.257E-02-0.264E-04
CGA: 113    -0.223792003497E+03   -0.49784E-03   -0.50543E-03  5760   0.203E-02 0.283E-04
CGA: 114    -0.223792315313E+03   -0.31182E-03   -0.31450E-03  5760   0.242E-02-0.382E-04
CGA: 115    -0.223792961683E+03   -0.64637E-03   -0.71124E-03  5760   0.190E-02-0.243E-03
CGA: 116    -0.223793439196E+03   -0.47751E-03   -0.47064E-03  5760   0.194E-02 0.409E-04
CGA: 117    -0.223793917664E+03   -0.47847E-03   -0.49205E-03  5760   0.360E-02 0.581E-04
CGA: 118    -0.223794513313E+03   -0.59565E-03   -0.59582E-03  5760   0.287E-02-0.462E-04
CGA: 119    -0.223795387705E+03   -0.87439E-03   -0.87980E-03  5760   0.310E-02-0.604E-04
CGA: 120    -0.223796447704E+03   -0.10600E-02   -0.11551E-02  5760   0.590E-02-0.135E-03
CGA: 121    -0.223797258523E+03   -0.81082E-03   -0.79921E-03  5760   0.487E-02 0.267E-03
CGA: 122    -0.223798335614E+03   -0.10771E-02   -0.10793E-02  5760   0.359E-02-0.760E-04
CGA: 123    -0.223799715862E+03   -0.13802E-02   -0.14053E-02  5760   0.402E-02-0.102E-03
CGA: 124    -0.223800647152E+03   -0.93129E-03   -0.94512E-03  5760   0.533E-02 0.593E-04
CGA: 125    -0.223801364814E+03   -0.71766E-03   -0.68252E-03  5760   0.340E-02 0.971E-04
CGA: 126    -0.223802318890E+03   -0.95408E-03   -0.98158E-03  5760   0.342E-02-0.168E-03
CGA: 127    -0.223803088284E+03   -0.76939E-03   -0.77106E-03  5760   0.248E-02-0.301E-04
CGA: 128    -0.223803472212E+03   -0.38393E-03   -0.37351E-03  5760   0.246E-02 0.132E-03
CGA: 129    -0.223803988149E+03   -0.51594E-03   -0.51756E-03  5760   0.226E-02-0.542E-04
CGA: 130    -0.223804446554E+03   -0.45840E-03   -0.46108E-03  5760   0.164E-02-0.425E-04
CGA: 131    -0.223804771433E+03   -0.32488E-03   -0.32636E-03  5760   0.216E-02-0.416E-07
CGA: 132    -0.223805120433E+03   -0.34900E-03   -0.33913E-03  5760   0.140E-02-0.674E-04
CGA: 133    -0.223805451491E+03   -0.33106E-03   -0.33341E-03  5760   0.110E-02-0.947E-05
CGA: 134    -0.223805640816E+03   -0.18932E-03   -0.18451E-03  5760   0.107E-02 0.214E-04
CGA: 135    -0.223805805036E+03   -0.16422E-03   -0.16230E-03  5760   0.685E-03-0.732E-05
CGA: 136    -0.223805951120E+03   -0.14608E-03   -0.14668E-03  5760   0.477E-03-0.691E-05
CGA: 137    -0.223806059634E+03   -0.10851E-03   -0.10872E-03  5760   0.480E-03 0.263E-05
CGA: 138    -0.223806146817E+03   -0.87183E-04   -0.86612E-04  5760   0.617E-03 0.146E-04
SDA: 139    -0.223806276341E+03   -0.12952E-03   -0.13013E-03  5760   0.506E-03-0.182E-04
CGA: 140    -0.223806348971E+03   -0.72630E-04   -0.71614E-04  5760   0.507E-03 0.233E-04
CGA: 141    -0.223806435217E+03   -0.86246E-04   -0.84628E-04  5760   0.350E-03-0.689E-05
CGA: 142    -0.223806541349E+03   -0.10613E-03   -0.10734E-03  5760   0.385E-03-0.456E-05
CGA: 143    -0.223806636512E+03   -0.95163E-04   -0.96054E-04  5760   0.708E-03 0.533E-05
CGA: 144    -0.223806765262E+03   -0.12875E-03   -0.12740E-03  5760   0.652E-03 0.713E-05
CGA: 145    -0.223806948023E+03   -0.18276E-03   -0.19178E-03  5760   0.959E-03-0.236E-04
CGA: 146    -0.223807143578E+03   -0.19555E-03   -0.19680E-03  5760   0.116E-02-0.137E-04
CGA: 147    -0.223807322422E+03   -0.17884E-03   -0.17580E-03  5760   0.862E-03 0.546E-05
CGA: 148    -0.223807572752E+03   -0.25033E-03   -0.25533E-03  5760   0.707E-03-0.335E-05
CGA: 149    -0.223807701815E+03   -0.12906E-03   -0.12801E-03  5760   0.838E-03 0.321E-04
CGA: 150    -0.223807838734E+03   -0.13692E-03   -0.13258E-03  5760   0.434E-03-0.175E-05
CGA: 151    -0.223807948636E+03   -0.10990E-03   -0.11189E-03  5760   0.425E-03-0.378E-05
CGA: 152    -0.223808012716E+03   -0.64079E-04   -0.61136E-04  5760   0.374E-03 0.165E-04
CGA: 153    -0.223808088598E+03   -0.75883E-04   -0.75744E-04  5760   0.240E-03-0.245E-05
CGA: 154    -0.223808155930E+03   -0.67331E-04   -0.68802E-04  5760   0.298E-03 0.609E-05
CGA: 155    -0.223808194018E+03   -0.38088E-04   -0.35121E-04  5760   0.176E-03 0.134E-04
CGA: 156    -0.223808243849E+03   -0.49831E-04   -0.49933E-04  5760   0.129E-03 0.218E-06
CGA: 157    -0.223808276599E+03   -0.32751E-04   -0.33032E-04  5760   0.158E-03 0.721E-06
CGA: 158    -0.223808296501E+03   -0.19902E-04   -0.17819E-04  5760   0.746E-04 0.786E-05
CGA: 159    -0.223808316979E+03   -0.20477E-04   -0.20831E-04  5760   0.643E-04-0.186E-05
CGA: 160    -0.223808330516E+03   -0.13537E-04   -0.13560E-04  5760   0.831E-04 0.276E-05
CGA: 161    -0.223808343399E+03   -0.12884E-04   -0.12317E-04  5760   0.413E-04 0.170E-05
CGA: 162    -0.223808354516E+03   -0.11117E-04   -0.11504E-04  5760   0.595E-04-0.104E-05
CGA: 163    -0.223808362781E+03   -0.82647E-05   -0.77518E-05  5760   0.361E-04-0.418E-06
CGA: 164    -0.223808373198E+03   -0.10417E-04   -0.10612E-04  5760   0.398E-04-0.605E-06
CGA: 165    -0.223808380214E+03   -0.70163E-05   -0.68922E-05  5760   0.385E-04 0.775E-06
CGA: 166    -0.223808386525E+03   -0.63108E-05   -0.61132E-05  5760   0.261E-04-0.422E-07
CGA: 167    -0.223808394163E+03   -0.76387E-05   -0.79155E-05  5760   0.359E-04-0.533E-06
CGA: 168    -0.223808399297E+03   -0.51339E-05   -0.49057E-05  5760   0.248E-04 0.138E-05
CGA: 169    -0.223808404844E+03   -0.55470E-05   -0.55556E-05  5760   0.284E-04 0.311E-06
SDA: 170    -0.223808414451E+03   -0.96069E-05   -0.96975E-05  5760   0.435E-04 0.340E-06
CGA: 171    -0.223808418818E+03   -0.43664E-05   -0.38336E-05  5760   0.236E-04 0.340E-05
CGA: 172    -0.223808423974E+03   -0.51560E-05   -0.51528E-05  5760   0.142E-04-0.704E-06
CGA: 173    -0.223808429053E+03   -0.50796E-05   -0.50815E-05  5760   0.180E-04 0.443E-07
CGA: 174    -0.223808432801E+03   -0.37479E-05   -0.37450E-05  5760   0.231E-04 0.821E-06
CGA: 175    -0.223808436393E+03   -0.35918E-05   -0.34644E-05  5760   0.176E-04 0.413E-06
CGA: 176    -0.223808440695E+03   -0.43026E-05   -0.43914E-05  5760   0.150E-04-0.143E-05
CGA: 177    -0.223808445208E+03   -0.45126E-05   -0.44786E-05  5760   0.166E-04 0.433E-06
CGA: 178    -0.223808448848E+03   -0.36398E-05   -0.36313E-05  5760   0.259E-04 0.102E-05
CGA: 179    -0.223808453182E+03   -0.43345E-05   -0.42484E-05  5760   0.153E-04-0.227E-06
CGA: 180    -0.223808459252E+03   -0.60700E-05   -0.64447E-05  5760   0.255E-04-0.129E-05
CGA: 181    -0.223808464318E+03   -0.50662E-05   -0.50583E-05  5760   0.306E-04 0.859E-06
CGA: 182    -0.223808469102E+03   -0.47832E-05   -0.45680E-05  5760   0.212E-04 0.104E-05
CGA: 183    -0.223808475569E+03   -0.64676E-05   -0.65203E-05  5760   0.309E-04-0.522E-07
CGA: 184    -0.223808482871E+03   -0.73012E-05   -0.73298E-05  5760   0.397E-04-0.832E-07
CGA: 185    -0.223808489697E+03   -0.68261E-05   -0.66462E-05  5760   0.358E-04 0.701E-06
CGA: 186    -0.223808498790E+03   -0.90935E-05   -0.91748E-05  5760   0.412E-04-0.225E-06
CGA: 187    -0.223808508537E+03   -0.97467E-05   -0.97820E-05  5760   0.473E-04 0.499E-06
CGA: 188    -0.223808515479E+03   -0.69423E-05   -0.66706E-05  5760   0.325E-04 0.373E-06
CGA: 189    -0.223808525910E+03   -0.10431E-04   -0.10669E-04  5760   0.447E-04-0.126E-05
CGA: 190    -0.223808533966E+03   -0.80558E-05   -0.79287E-05  5760   0.432E-04 0.819E-06
CGA: 191    -0.223808541637E+03   -0.76718E-05   -0.75624E-05  5760   0.355E-04 0.704E-06
CGA: 192    -0.223808550412E+03   -0.87748E-05   -0.87954E-05  5760   0.407E-04-0.201E-06
CGA: 193    -0.223808559421E+03   -0.90093E-05   -0.90115E-05  5760   0.422E-04-0.639E-06
CGA: 194    -0.223808566771E+03   -0.73496E-05   -0.71509E-05  5760   0.408E-04-0.890E-07
CGA: 195    -0.223808575085E+03   -0.83136E-05   -0.82917E-05  5760   0.257E-04-0.193E-06
CGA: 196    -0.223808580125E+03   -0.50398E-05   -0.50378E-05  5760   0.241E-04 0.527E-06
CGA: 197    -0.223808584699E+03   -0.45749E-05   -0.44923E-05  5760   0.214E-04 0.440E-06
CGA: 198    -0.223808588704E+03   -0.40048E-05   -0.39333E-05  5760   0.166E-04-0.629E-06
CGA: 199    -0.223808592011E+03   -0.33072E-05   -0.32919E-05  5760   0.160E-04 0.291E-08
CGA: 200    -0.223808595843E+03   -0.38314E-05   -0.38521E-05  5760   0.242E-04 0.235E-06
SDA: 201    -0.223808601428E+03   -0.55851E-05   -0.56158E-05  5760   0.307E-04-0.666E-07
CGA: 202    -0.223808604768E+03   -0.33402E-05   -0.31356E-05  5760   0.184E-04 0.184E-05
CGA: 203    -0.223808608530E+03   -0.37615E-05   -0.37123E-05  5760   0.130E-04-0.727E-06
CGA: 204    -0.223808612454E+03   -0.39246E-05   -0.40045E-05  5760   0.170E-04-0.189E-06
CGA: 205    -0.223808615280E+03   -0.28259E-05   -0.27879E-05  5760   0.164E-04 0.102E-05
CGA: 206    -0.223808618816E+03   -0.35362E-05   -0.35193E-05  5760   0.148E-04-0.331E-06
CGA: 207    -0.223808622710E+03   -0.38938E-05   -0.40287E-05  5760   0.235E-04-0.972E-06
CGA: 208    -0.223808626913E+03   -0.42027E-05   -0.41619E-05  5760   0.244E-04 0.900E-07
CGA: 209    -0.223808632824E+03   -0.59107E-05   -0.59870E-05  5760   0.245E-04 0.677E-06
CGA: 210    -0.223808638009E+03   -0.51850E-05   -0.51742E-05  5760   0.261E-04 0.437E-06
CGA: 211    -0.223808642709E+03   -0.47008E-05   -0.45673E-05  5760   0.228E-04-0.745E-07
CGA: 212    -0.223808647709E+03   -0.49996E-05   -0.50067E-05  5760   0.174E-04-0.623E-06
CGA: 213    -0.223808651751E+03   -0.40419E-05   -0.40920E-05  5760   0.254E-04 0.109E-05
CGA: 214    -0.223808655781E+03   -0.40299E-05   -0.39762E-05  5760   0.138E-04 0.728E-06
CGA: 215    -0.223808659807E+03   -0.40258E-05   -0.40967E-05  5760   0.196E-04 0.615E-07
CGA: 216    -0.223808663270E+03   -0.34630E-05   -0.34229E-05  5760   0.163E-04-0.259E-06
CGA: 217    -0.223808666332E+03   -0.30620E-05   -0.30142E-05  5760   0.132E-04 0.464E-06
CGA: 218    -0.223808668939E+03   -0.26079E-05   -0.25988E-05  5760   0.101E-04 0.283E-06
CGA: 219    -0.223808671091E+03   -0.21513E-05   -0.21494E-05  5760   0.129E-04 0.390E-06
CGA: 220    -0.223808673575E+03   -0.24841E-05   -0.24732E-05  5760   0.835E-05-0.704E-07
CGA: 221    -0.223808675317E+03   -0.17418E-05   -0.17423E-05  5760   0.734E-05-0.715E-07
CGA: 222    -0.223808676631E+03   -0.13140E-05   -0.12915E-05  5760   0.858E-05 0.474E-07
CGA: 223    -0.223808678705E+03   -0.20741E-05   -0.20894E-05  5760   0.754E-05 0.177E-06
CGA: 224    -0.223808680196E+03   -0.14912E-05   -0.14906E-05  5760   0.632E-05 0.420E-07
CGA: 225    -0.223808681445E+03   -0.12491E-05   -0.12355E-05  5760   0.732E-05-0.400E-07
CGA: 226    -0.223808682994E+03   -0.15485E-05   -0.15537E-05  5760   0.880E-05-0.321E-06
CGA: 227    -0.223808684957E+03   -0.19630E-05   -0.19861E-05  5760   0.604E-05 0.125E-06
CGA: 228    -0.223808685883E+03   -0.92681E-06   -0.93028E-06  5760   0.574E-05 0.259E-06
CGA: 229    -0.223808687573E+03   -0.16896E-05   -0.17547E-05  5760   0.798E-05-0.407E-07
CGA: 230    -0.223808689044E+03   -0.14710E-05   -0.14433E-05  5760   0.746E-05-0.290E-06
CGA: 231    -0.223808690423E+03   -0.13793E-05   -0.13625E-05  5760   0.720E-05-0.197E-07
SDA: 232    -0.223808692381E+03   -0.19578E-05   -0.19477E-05  5760   0.107E-04 0.256E-06
CGA: 233    -0.223808693530E+03   -0.11489E-05   -0.10981E-05  5760   0.611E-05 0.788E-06
CGA: 234    -0.223808694706E+03   -0.11766E-05   -0.11600E-05  5760   0.500E-05-0.909E-07
CGA: 235    -0.223808696029E+03   -0.13225E-05   -0.13293E-05  5760   0.487E-05 0.175E-07
CGA: 236    -0.223808697440E+03   -0.14111E-05   -0.14839E-05  5760   0.555E-05-0.293E-06
CGA: 237    -0.223808698087E+03   -0.64708E-06   -0.60915E-06  5760   0.430E-05 0.135E-06
CGA: 238    -0.223808699359E+03   -0.12721E-05   -0.12835E-05  5760   0.439E-05-0.603E-07
CGA: 239    -0.223808700603E+03   -0.12433E-05   -0.12517E-05  5760   0.451E-05 0.357E-07
CGA: 240    -0.223808701183E+03   -0.58064E-06   -0.53909E-06  5760   0.419E-05 0.158E-06
CGA: 241    -0.223808702465E+03   -0.12820E-05   -0.13255E-05  5760   0.404E-05-0.354E-06
CGA: 242    -0.223808703527E+03   -0.10619E-05   -0.10466E-05  5760   0.412E-05 0.338E-06
CGA: 243    -0.223808704129E+03   -0.60231E-06   -0.57932E-06  5760   0.424E-05 0.329E-06
CGA: 244    -0.223808705421E+03   -0.12912E-05   -0.13210E-05  5760   0.467E-05-0.411E-06
CGA: 245    -0.223808706924E+03   -0.15034E-05   -0.15375E-05  5760   0.527E-05-0.234E-06
CGA: 246    -0.223808708481E+03   -0.15566E-05   -0.15421E-05  5760   0.460E-05 0.187E-06
CGA: 247    -0.223808710011E+03   -0.15299E-05   -0.15441E-05  5760   0.763E-05 0.207E-07
CGA: 248    -0.223808711230E+03   -0.12198E-05   -0.11608E-05  5760   0.844E-05 0.221E-06
CGA: 249    -0.223808713419E+03   -0.21890E-05   -0.22022E-05  5760   0.603E-05-0.338E-06
CGA: 250    -0.223808715107E+03   -0.16873E-05   -0.16751E-05  5760   0.500E-05 0.218E-06
CGA: 251    -0.223808717301E+03   -0.21944E-05   -0.22002E-05  5760   0.728E-05-0.196E-07
CGA: 252    -0.223808719097E+03   -0.17966E-05   -0.17979E-05  5760   0.101E-04 0.457E-07
CGA: 253    -0.223808720520E+03   -0.14221E-05   -0.12967E-05  5760   0.654E-05 0.215E-06
CGA: 254    -0.223808722433E+03   -0.19131E-05   -0.19116E-05  5760   0.640E-05 0.262E-07
CGA: 255    -0.223808724463E+03   -0.20302E-05   -0.20284E-05  5760   0.501E-05 0.694E-08
CGA: 256    -0.223808725920E+03   -0.14574E-05   -0.14623E-05  5760   0.591E-05-0.335E-09
CGA: 257    -0.223808726799E+03   -0.87862E-06   -0.84292E-06  5760   0.510E-05 0.911E-07
   1 F= -.23345065E+03 E0= -.23344804E+03  d E =-.521935E-02  mag=     6.0000
