       N       E                     dE             d eps       ncg     rms          ort
DAV:   1     0.344749343994E+04    0.34475E+04   -0.13888E+05  5760   0.215E+03
DAV:   2     0.414539473559E+03   -0.30330E+04   -0.27975E+04  5760   0.523E+02
DAV:   3    -0.217406311216E+03   -0.63195E+03   -0.58091E+03  5760   0.251E+02
DAV:   4    -0.268755210120E+03   -0.51349E+02   -0.50040E+02  5760   0.733E+01
DAV:   5    -0.270610224691E+03   -0.18550E+01   -0.18508E+01  5760   0.140E+01
SDA:   6     0.710249466097E+02    0.34164E+03   -0.18508E+01  5760   0.265E+04 0.000E+00
CGA:   7    -0.617288985846E+02   -0.13275E+03   -0.19275E+03  5760   0.601E+04 0.116E+03
CGA:   8    -0.113493017070E+03   -0.51764E+02   -0.18587E+03  5760   0.272E+04 0.124E+04
CGA:   9    -0.145051495200E+03   -0.31558E+02   -0.93394E+02  5760   0.102E+04-0.443E+03
CGA:  10    -0.156866978436E+03   -0.11815E+02   -0.24826E+02  5760   0.400E+03-0.220E+03
CGA:  11    -0.179077488829E+03   -0.22211E+02   -0.26011E+02  5760   0.854E+03-0.487E+02
CGA:  12    -0.198506237712E+03   -0.19429E+02   -0.37685E+02  5760   0.371E+03-0.184E+03
CGA:  13    -0.209171795888E+03   -0.10666E+02   -0.12729E+02  5760   0.120E+03-0.452E+02
CGA:  14    -0.212462521675E+03   -0.32907E+01   -0.48787E+01  5760   0.616E+02-0.321E+02
CGA:  15    -0.215112465443E+03   -0.26499E+01   -0.26250E+01  5760   0.530E+02 0.560E-01
CGA:  16    -0.218388084373E+03   -0.32756E+01   -0.36818E+01  5760   0.225E+02-0.282E+01
CGA:  17    -0.219266629969E+03   -0.87855E+00   -0.84757E+00  5760   0.104E+02 0.102E+01
CGA:  18    -0.220553765535E+03   -0.12871E+01   -0.12932E+01  5760   0.382E+01 0.127E+00
CGA:  19    -0.220747023790E+03   -0.19326E+00   -0.18578E+00  5760   0.309E+01 0.105E+00
CGA:  20    -0.220969606684E+03   -0.22258E+00   -0.23493E+00  5760   0.162E+01-0.501E-01
CGA:  21    -0.221170274768E+03   -0.20067E+00   -0.20072E+00  5760   0.257E+01 0.154E-01
CGA:  22    -0.221306903385E+03   -0.13663E+00   -0.15709E+00  5760   0.983E+00-0.163E+00
CGA:  23    -0.221462152264E+03   -0.15525E+00   -0.14938E+00  5760   0.142E+01 0.112E+00
CGA:  24    -0.221620028933E+03   -0.15788E+00   -0.16000E+00  5760   0.229E+01 0.149E-01
CGA:  25    -0.221870095541E+03   -0.25007E+00   -0.25251E+00  5760   0.127E+01 0.686E-01
CGA:  26    -0.222010674765E+03   -0.14058E+00   -0.14236E+00  5760   0.196E+01 0.432E-01
CGA:  27    -0.222221724011E+03   -0.21105E+00   -0.21203E+00  5760   0.995E+00 0.480E-02
CGA:  28    -0.222447434124E+03   -0.22571E+00   -0.23428E+00  5760   0.121E+01-0.690E-01
CGA:  29    -0.222612680350E+03   -0.16525E+00   -0.16503E+00  5760   0.100E+01 0.790E-02
CGA:  30    -0.222753334351E+03   -0.14065E+00   -0.13940E+00  5760   0.767E+00 0.739E-01
CGA:  31    -0.222865844106E+03   -0.11251E+00   -0.11203E+00  5760   0.937E+00 0.406E-01
CGA:  32    -0.223026303600E+03   -0.16046E+00   -0.16127E+00  5760   0.795E+00-0.199E-01
CGA:  33    -0.223144637516E+03   -0.11833E+00   -0.11930E+00  5760   0.673E+00-0.336E-01
CGA:  34    -0.223223019043E+03   -0.78382E-01   -0.79151E-01  5760   0.635E+00 0.363E-01
CGA:  35    -0.223322643248E+03   -0.99624E-01   -0.99136E-01  5760   0.463E+00 0.145E-01
CGA:  36    -0.223391573453E+03   -0.68930E-01   -0.75693E-01  5760   0.444E+00-0.525E-01
SDA:  37    -0.223403137397E+03   -0.11564E-01   -0.11107E-01  5760   0.473E+00 0.278E+00
CGA:  38    -0.223519374696E+03   -0.11624E+00   -0.11758E+00  5760   0.402E+00 0.343E-01
CGA:  39    -0.223649747915E+03   -0.13037E+00   -0.12051E+00  5760   0.380E+00 0.625E-01
CGA:  40    -0.223745525560E+03   -0.95778E-01   -0.99942E-01  5760   0.534E+00-0.417E-01
CGA:  41    -0.223826054970E+03   -0.80529E-01   -0.79847E-01  5760   0.561E+00 0.183E-01
CGA:  42    -0.223902370840E+03   -0.76316E-01   -0.77808E-01  5760   0.236E+00 0.469E-01
CGA:  43    -0.223953291413E+03   -0.50921E-01   -0.49961E-01  5760   0.178E+00 0.140E-01
CGA:  44    -0.223997353928E+03   -0.44063E-01   -0.44387E-01  5760   0.152E+00-0.339E-02
CGA:  45    -0.224034571527E+03   -0.37218E-01   -0.37981E-01  5760   0.121E+00-0.793E-02
CGA:  46    -0.224051432786E+03   -0.16861E-01   -0.16762E-01  5760   0.101E+00 0.238E-01
CGA:  47    -0.224074531163E+03   -0.23098E-01   -0.23934E-01  5760   0.124E+00-0.126E-01
CGA:  48    -0.224094443734E+03   -0.19913E-01   -0.19878E-01  5760   0.946E-01 0.433E-02
CGA:  49    -0.224104622791E+03   -0.10179E-01   -0.10082E-01  5760   0.436E-01-0.160E-03
CGA:  50    -0.224112676056E+03   -0.80533E-02   -0.80489E-02  5760   0.521E-01 0.314E-03
CGA:  51    -0.224120605148E+03   -0.79291E-02   -0.79202E-02  5760   0.395E-01-0.198E-03
CGA:  52    -0.224126686553E+03   -0.60814E-02   -0.60810E-02  5760   0.315E-01-0.280E-04
CGA:  53    -0.224131447205E+03   -0.47607E-02   -0.47536E-02  5760   0.282E-01-0.222E-04
CGA:  54    -0.224136838695E+03   -0.53915E-02   -0.54003E-02  5760   0.323E-01-0.215E-03
CGA:  55    -0.224141950405E+03   -0.51117E-02   -0.51116E-02  5760   0.283E-01 0.408E-03
CGA:  56    -0.224147010012E+03   -0.50596E-02   -0.50902E-02  5760   0.238E-01-0.143E-02
CGA:  57    -0.224150406037E+03   -0.33960E-02   -0.33699E-02  5760   0.201E-01 0.103E-02
CGA:  58    -0.224154588152E+03   -0.41821E-02   -0.42357E-02  5760   0.211E-01-0.111E-02
CGA:  59    -0.224158751944E+03   -0.41638E-02   -0.42793E-02  5760   0.285E-01 0.166E-03
CGA:  60    -0.224163796970E+03   -0.50450E-02   -0.50343E-02  5760   0.217E-01 0.812E-03
CGA:  61    -0.224168075308E+03   -0.42783E-02   -0.43137E-02  5760   0.282E-01-0.241E-03
CGA:  62    -0.224174019347E+03   -0.59440E-02   -0.59633E-02  5760   0.300E-01-0.340E-03
CGA:  63    -0.224178564776E+03   -0.45454E-02   -0.45301E-02  5760   0.243E-01-0.396E-04
CGA:  64    -0.224182633380E+03   -0.40686E-02   -0.40687E-02  5760   0.228E-01 0.174E-03
CGA:  65    -0.224186631178E+03   -0.39978E-02   -0.39979E-02  5760   0.220E-01-0.179E-04
CGA:  66    -0.224189907082E+03   -0.32759E-02   -0.32656E-02  5760   0.151E-01-0.251E-03
CGA:  67    -0.224192408436E+03   -0.25014E-02   -0.25014E-02  5760   0.164E-01 0.169E-03
SDA:  68    -0.224195668562E+03   -0.32601E-02   -0.32826E-02  5760   0.160E-01-0.575E-03
CGA:  69    -0.224198323069E+03   -0.26545E-02   -0.26539E-02  5760   0.610E-02 0.434E-04
CGA:  70    -0.224200550022E+03   -0.22270E-02   -0.23154E-02  5760   0.580E-02-0.103E-03
CGA:  71    -0.224201788482E+03   -0.12385E-02   -0.12872E-02  5760   0.398E-02-0.495E-03
CGA:  72    -0.224202709396E+03   -0.92091E-03   -0.91479E-03  5760   0.243E-02 0.707E-04
CGA:  73    -0.224203565982E+03   -0.85659E-03   -0.86057E-03  5760   0.165E-02-0.107E-04
CGA:  74    -0.224204007741E+03   -0.44176E-03   -0.44876E-03  5760   0.167E-02-0.252E-04
CGA:  75    -0.224204462182E+03   -0.45444E-03   -0.46049E-03  5760   0.144E-02-0.251E-04
CGA:  76    -0.224204882583E+03   -0.42040E-03   -0.43162E-03  5760   0.145E-02-0.617E-04
CGA:  77    -0.224205333526E+03   -0.45094E-03   -0.44905E-03  5760   0.121E-02 0.249E-04
CGA:  78    -0.224205838194E+03   -0.50467E-03   -0.51614E-03  5760   0.171E-02-0.248E-04
CGA:  79    -0.224206250724E+03   -0.41253E-03   -0.41348E-03  5760   0.129E-02-0.286E-05
CGA:  80    -0.224206594755E+03   -0.34403E-03   -0.34446E-03  5760   0.117E-02 0.774E-05
CGA:  81    -0.224207034705E+03   -0.43995E-03   -0.44877E-03  5760   0.114E-02-0.333E-04
CGA:  82    -0.224207371280E+03   -0.33658E-03   -0.33637E-03  5760   0.113E-02 0.297E-05
CGA:  83    -0.224207769135E+03   -0.39785E-03   -0.40746E-03  5760   0.165E-02 0.203E-04
CGA:  84    -0.224208254935E+03   -0.48580E-03   -0.49882E-03  5760   0.175E-02-0.997E-04
CGA:  85    -0.224208823874E+03   -0.56894E-03   -0.56960E-03  5760   0.118E-02-0.698E-05
CGA:  86    -0.224209284050E+03   -0.46018E-03   -0.46581E-03  5760   0.160E-02-0.881E-05
CGA:  87    -0.224209673135E+03   -0.38909E-03   -0.38916E-03  5760   0.113E-02-0.616E-05
CGA:  88    -0.224209940407E+03   -0.26727E-03   -0.26496E-03  5760   0.796E-03-0.464E-05
CGA:  89    -0.224210230641E+03   -0.29023E-03   -0.29136E-03  5760   0.590E-03-0.711E-05
CGA:  90    -0.224210416974E+03   -0.18633E-03   -0.18688E-03  5760   0.554E-03 0.979E-05
CGA:  91    -0.224210559410E+03   -0.14244E-03   -0.14204E-03  5760   0.480E-03-0.183E-05
CGA:  92    -0.224210700166E+03   -0.14076E-03   -0.14158E-03  5760   0.413E-03-0.135E-04
CGA:  93    -0.224210828019E+03   -0.12785E-03   -0.12758E-03  5760   0.349E-03 0.581E-05
CGA:  94    -0.224210937063E+03   -0.10904E-03   -0.10906E-03  5760   0.303E-03 0.105E-05
CGA:  95    -0.224211036711E+03   -0.99648E-04   -0.99707E-04  5760   0.298E-03-0.219E-05
CGA:  96    -0.224211106012E+03   -0.69301E-04   -0.68569E-04  5760   0.194E-03 0.396E-05
CGA:  97    -0.224211167538E+03   -0.61527E-04   -0.61769E-04  5760   0.196E-03-0.213E-05
CGA:  98    -0.224211239404E+03   -0.71866E-04   -0.72049E-04  5760   0.161E-03-0.175E-05
SDA:  99    -0.224211307312E+03   -0.67907E-04   -0.68227E-04  5760   0.246E-03-0.273E-05
CGA: 100    -0.224211344996E+03   -0.37685E-04   -0.37606E-04  5760   0.995E-04 0.396E-05
CGA: 101    -0.224211382378E+03   -0.37381E-04   -0.37865E-04  5760   0.133E-03 0.110E-05
CGA: 102    -0.224211420196E+03   -0.37818E-04   -0.37778E-04  5760   0.773E-04-0.452E-05
CGA: 103    -0.224211453783E+03   -0.33587E-04   -0.34133E-04  5760   0.118E-03-0.672E-06
CGA: 104    -0.224211501340E+03   -0.47557E-04   -0.48344E-04  5760   0.122E-03-0.193E-06
CGA: 105    -0.224211545184E+03   -0.43843E-04   -0.44558E-04  5760   0.184E-03-0.185E-05
CGA: 106    -0.224211604989E+03   -0.59805E-04   -0.60114E-04  5760   0.200E-03-0.354E-05
CGA: 107    -0.224211665338E+03   -0.60349E-04   -0.60348E-04  5760   0.148E-03 0.127E-05
CGA: 108    -0.224211731534E+03   -0.66196E-04   -0.66333E-04  5760   0.137E-03-0.109E-05
CGA: 109    -0.224211795981E+03   -0.64447E-04   -0.65088E-04  5760   0.157E-03-0.351E-05
CGA: 110    -0.224211856184E+03   -0.60203E-04   -0.60261E-04  5760   0.143E-03 0.149E-05
CGA: 111    -0.224211915165E+03   -0.58981E-04   -0.59081E-04  5760   0.226E-03-0.242E-06
CGA: 112    -0.224211979243E+03   -0.64078E-04   -0.63494E-04  5760   0.144E-03 0.169E-05
CGA: 113    -0.224212027849E+03   -0.48606E-04   -0.48726E-04  5760   0.181E-03 0.143E-05
CGA: 114    -0.224212081072E+03   -0.53222E-04   -0.53184E-04  5760   0.105E-03 0.102E-05
CGA: 115    -0.224212115458E+03   -0.34387E-04   -0.34390E-04  5760   0.791E-04-0.130E-05
CGA: 116    -0.224212146409E+03   -0.30951E-04   -0.30855E-04  5760   0.518E-04 0.205E-05
CGA: 117    -0.224212176656E+03   -0.30247E-04   -0.31173E-04  5760   0.800E-04-0.974E-06
CGA: 118    -0.224212202871E+03   -0.26215E-04   -0.26165E-04  5760   0.106E-03-0.173E-05
CGA: 119    -0.224212230824E+03   -0.27953E-04   -0.27758E-04  5760   0.824E-04-0.986E-06
CGA: 120    -0.224212265626E+03   -0.34802E-04   -0.34868E-04  5760   0.868E-04-0.535E-07
CGA: 121    -0.224212297801E+03   -0.32175E-04   -0.32229E-04  5760   0.876E-04-0.191E-05
CGA: 122    -0.224212323410E+03   -0.25609E-04   -0.25394E-04  5760   0.854E-04 0.320E-05
CGA: 123    -0.224212350036E+03   -0.26626E-04   -0.26433E-04  5760   0.935E-04-0.290E-06
CGA: 124    -0.224212382081E+03   -0.32046E-04   -0.32044E-04  5760   0.875E-04 0.240E-06
CGA: 125    -0.224212413154E+03   -0.31073E-04   -0.31086E-04  5760   0.106E-03-0.842E-06
CGA: 126    -0.224212451536E+03   -0.38382E-04   -0.38396E-04  5760   0.100E-03-0.382E-06
CGA: 127    -0.224212480894E+03   -0.29358E-04   -0.29316E-04  5760   0.115E-03 0.154E-05
CGA: 128    -0.224212516381E+03   -0.35487E-04   -0.34971E-04  5760   0.911E-04-0.193E-05
CGA: 129    -0.224212552919E+03   -0.36538E-04   -0.36713E-04  5760   0.947E-04-0.167E-05
SDA: 130    -0.224212586541E+03   -0.33622E-04   -0.33636E-04  5760   0.702E-04 0.442E-07
CGA: 131    -0.224212604093E+03   -0.17552E-04   -0.17506E-04  5760   0.459E-04-0.122E-06
CGA: 132    -0.224212620392E+03   -0.16299E-04   -0.16329E-04  5760   0.290E-04 0.615E-06
CGA: 133    -0.224212631596E+03   -0.11204E-04   -0.11274E-04  5760   0.307E-04 0.532E-06
CGA: 134    -0.224212641572E+03   -0.99760E-05   -0.99368E-05  5760   0.360E-04-0.583E-06
CGA: 135    -0.224212652784E+03   -0.11212E-04   -0.11201E-04  5760   0.370E-04-0.445E-06
CGA: 136    -0.224212664642E+03   -0.11858E-04   -0.11850E-04  5760   0.286E-04 0.460E-06
CGA: 137    -0.224212675784E+03   -0.11142E-04   -0.11168E-04  5760   0.310E-04-0.453E-06
CGA: 138    -0.224212685850E+03   -0.10066E-04   -0.10057E-04  5760   0.252E-04-0.415E-06
CGA: 139    -0.224212693715E+03   -0.78646E-05   -0.78516E-05  5760   0.241E-04 0.328E-06
CGA: 140    -0.224212700276E+03   -0.65613E-05   -0.65530E-05  5760   0.213E-04 0.453E-06
CGA: 141    -0.224212707012E+03   -0.67354E-05   -0.67280E-05  5760   0.165E-04 0.288E-06
CGA: 142    -0.224212714025E+03   -0.70138E-05   -0.70877E-05  5760   0.140E-04-0.908E-07
CGA: 143    -0.224212719841E+03   -0.58154E-05   -0.57578E-05  5760   0.151E-04 0.898E-06
CGA: 144    -0.224212724233E+03   -0.43921E-05   -0.42759E-05  5760   0.148E-04 0.400E-06
CGA: 145    -0.224212729057E+03   -0.48241E-05   -0.47967E-05  5760   0.142E-04-0.732E-06
CGA: 146    -0.224212734700E+03   -0.56434E-05   -0.56564E-05  5760   0.132E-04-0.662E-07
CGA: 147    -0.224212739820E+03   -0.51197E-05   -0.51429E-05  5760   0.130E-04-0.301E-06
CGA: 148    -0.224212744291E+03   -0.44707E-05   -0.44746E-05  5760   0.115E-04-0.521E-06
CGA: 149    -0.224212747523E+03   -0.32321E-05   -0.32173E-05  5760   0.104E-04 0.803E-06
CGA: 150    -0.224212750860E+03   -0.33375E-05   -0.32737E-05  5760   0.931E-05 0.102E-06
CGA: 151    -0.224212753536E+03   -0.26756E-05   -0.26567E-05  5760   0.629E-05-0.243E-06
CGA: 152    -0.224212756104E+03   -0.25684E-05   -0.25615E-05  5760   0.610E-05 0.808E-07
CGA: 153    -0.224212757754E+03   -0.16494E-05   -0.16764E-05  5760   0.334E-05 0.392E-06
CGA: 154    -0.224212759354E+03   -0.16003E-05   -0.16025E-05  5760   0.300E-05 0.271E-07
CGA: 155    -0.224212760455E+03   -0.11010E-05   -0.11070E-05  5760   0.257E-05-0.149E-06
CGA: 156    -0.224212761172E+03   -0.71682E-06   -0.71507E-06  5760   0.176E-05 0.698E-07
   1 F= -.23302234E+03 E0= -.23302180E+03  d E =-.107460E-02  mag=     6.0000
