       N       E                     dE             d eps       ncg     rms          ort
DAV:   1     0.349296310094E+04    0.34930E+04   -0.13964E+05  5760   0.221E+03
DAV:   2     0.399528690881E+03   -0.30934E+04   -0.28503E+04  5760   0.539E+02
DAV:   3    -0.221791275931E+03   -0.62132E+03   -0.56488E+03  5760   0.254E+02
DAV:   4    -0.271344898529E+03   -0.49554E+02   -0.48482E+02  5760   0.738E+01
DAV:   5    -0.273022317705E+03   -0.16774E+01   -0.16743E+01  5760   0.135E+01
SDA:   6     0.107033750842E+03    0.38006E+03   -0.16743E+01  5760   0.404E+04 0.000E+00
CGA:   7    -0.225946764684E+01   -0.10929E+03   -0.16066E+03  5760   0.287E+04 0.714E+03
CGA:   8    -0.121487054040E+03   -0.11923E+03   -0.11541E+03  5760   0.362E+04-0.764E+03
CGA:   9    -0.160615615557E+03   -0.39129E+02   -0.59717E+02  5760   0.119E+04 0.138E+04
CGA:  10    -0.178469671696E+03   -0.17854E+02   -0.54636E+02  5760   0.717E+03-0.514E+03
CGA:  11    -0.182666143974E+03   -0.41965E+01   -0.11874E+02  5760   0.317E+03-0.205E+03
CGA:  12    -0.189458193622E+03   -0.67920E+01   -0.10370E+02  5760   0.512E+03-0.734E+02
CGA:  13    -0.206788158491E+03   -0.17330E+02   -0.19694E+02  5760   0.281E+03-0.382E+01
CGA:  14    -0.213310402267E+03   -0.65222E+01   -0.77703E+01  5760   0.838E+02-0.532E+02
CGA:  15    -0.216277923826E+03   -0.29675E+01   -0.36710E+01  5760   0.440E+02-0.589E+01
CGA:  16    -0.217452838928E+03   -0.11749E+01   -0.15747E+01  5760   0.248E+02-0.801E+01
CGA:  17    -0.218323632278E+03   -0.87079E+00   -0.98075E+00  5760   0.174E+02-0.180E+01
CGA:  18    -0.219145778045E+03   -0.82215E+00   -0.92176E+00  5760   0.862E+01-0.786E+00
CGA:  19    -0.219472960920E+03   -0.32718E+00   -0.35374E+00  5760   0.628E+01-0.433E+00
CGA:  20    -0.219829510563E+03   -0.35655E+00   -0.35936E+00  5760   0.168E+01-0.106E-02
CGA:  21    -0.219937219946E+03   -0.10771E+00   -0.10983E+00  5760   0.170E+01-0.109E-01
CGA:  22    -0.220020453910E+03   -0.83234E-01   -0.89511E-01  5760   0.903E+00-0.618E-01
CGA:  23    -0.220103483796E+03   -0.83030E-01   -0.83552E-01  5760   0.758E+00 0.953E-02
CGA:  24    -0.220195834833E+03   -0.92351E-01   -0.92435E-01  5760   0.587E+00-0.640E-02
CGA:  25    -0.220240275570E+03   -0.44441E-01   -0.45396E-01  5760   0.798E+00 0.164E-02
CGA:  26    -0.220304391863E+03   -0.64116E-01   -0.64292E-01  5760   0.442E+00-0.736E-03
CGA:  27    -0.220391174583E+03   -0.86783E-01   -0.84273E-01  5760   0.453E+00 0.271E-01
CGA:  28    -0.220491852394E+03   -0.10068E+00   -0.98594E-01  5760   0.625E+00 0.160E-01
CGA:  29    -0.220581983670E+03   -0.90131E-01   -0.94803E-01  5760   0.154E+01-0.111E+00
CGA:  30    -0.220675418472E+03   -0.93435E-01   -0.90022E-01  5760   0.234E+01 0.175E-01
CGA:  31    -0.220807100067E+03   -0.13168E+00   -0.12397E+00  5760   0.208E+01 0.115E+00
CGA:  32    -0.220927788101E+03   -0.12069E+00   -0.11721E+00  5760   0.206E+01 0.695E-01
CGA:  33    -0.221034247625E+03   -0.10646E+00   -0.11889E+00  5760   0.185E+01-0.739E-01
CGA:  34    -0.221141340787E+03   -0.10709E+00   -0.10890E+00  5760   0.125E+01 0.198E-01
CGA:  35    -0.221235276071E+03   -0.93935E-01   -0.95542E-01  5760   0.114E+01 0.111E-01
CGA:  36    -0.221314821816E+03   -0.79546E-01   -0.79669E-01  5760   0.809E+00 0.441E-02
SDA:  37    -0.221401005698E+03   -0.86184E-01   -0.86310E-01  5760   0.130E+01-0.188E-01
CGA:  38    -0.221486785812E+03   -0.85780E-01   -0.87545E-01  5760   0.745E+00-0.222E-02
CGA:  39    -0.221599456371E+03   -0.11267E+00   -0.11343E+00  5760   0.552E+00-0.125E-01
CGA:  40    -0.221775156738E+03   -0.17570E+00   -0.17456E+00  5760   0.575E+00 0.336E-02
CGA:  41    -0.221861369098E+03   -0.86212E-01   -0.89026E-01  5760   0.795E+00-0.574E-01
CGA:  42    -0.221940445080E+03   -0.79076E-01   -0.79636E-01  5760   0.474E+00 0.485E-01
CGA:  43    -0.222005554454E+03   -0.65109E-01   -0.64891E-01  5760   0.328E+00 0.936E-02
CGA:  44    -0.222040004556E+03   -0.34450E-01   -0.33995E-01  5760   0.343E+00-0.982E-02
CGA:  45    -0.222079775690E+03   -0.39771E-01   -0.39955E-01  5760   0.383E+00-0.388E-01
CGA:  46    -0.222104871852E+03   -0.25096E-01   -0.25749E-01  5760   0.339E+00-0.557E-01
CGA:  47    -0.222144717395E+03   -0.39846E-01   -0.39679E-01  5760   0.252E+00 0.736E-02
CGA:  48    -0.222182484139E+03   -0.37767E-01   -0.38471E-01  5760   0.402E+00-0.831E-01
CGA:  49    -0.222206869713E+03   -0.24386E-01   -0.21617E-01  5760   0.308E+00-0.125E+00
CGA:  50    -0.222224017756E+03   -0.17148E-01   -0.18329E-01  5760   0.383E+00 0.251E-01
CGA:  51    -0.222254556012E+03   -0.30538E-01   -0.32593E-01  5760   0.240E+00 0.105E+00
CGA:  52    -0.222277899016E+03   -0.23343E-01   -0.27369E-01  5760   0.167E+00 0.114E+00
CGA:  53    -0.222294178768E+03   -0.16280E-01   -0.18716E-01  5760   0.150E+00 0.869E-02
CGA:  54    -0.222314476032E+03   -0.20297E-01   -0.21388E-01  5760   0.177E+00-0.165E-01
CGA:  55    -0.222329594827E+03   -0.15119E-01   -0.15594E-01  5760   0.117E+00 0.196E-01
CGA:  56    -0.222350514160E+03   -0.20919E-01   -0.20620E-01  5760   0.727E-01 0.414E-02
CGA:  57    -0.222369744190E+03   -0.19230E-01   -0.19472E-01  5760   0.157E+00-0.873E-03
CGA:  58    -0.222380972071E+03   -0.11228E-01   -0.11102E-01  5760   0.132E+00 0.166E-02
CGA:  59    -0.222397068767E+03   -0.16097E-01   -0.16487E-01  5760   0.162E+00-0.367E-01
CGA:  60    -0.222398974827E+03   -0.19061E-02   -0.10987E-02  5760   0.159E+00 0.856E-01
CGA:  61    -0.222415769898E+03   -0.16795E-01   -0.16927E-01  5760   0.904E-01 0.106E-01
CGA:  62    -0.222430797997E+03   -0.15028E-01   -0.15106E-01  5760   0.106E+00-0.164E-02
CGA:  63    -0.222445981494E+03   -0.15183E-01   -0.14845E-01  5760   0.586E-01 0.768E-02
CGA:  64    -0.222467020662E+03   -0.21039E-01   -0.21639E-01  5760   0.116E+00-0.438E-02
CGA:  65    -0.222478234145E+03   -0.11213E-01   -0.10830E-01  5760   0.136E+00-0.276E-02
CGA:  66    -0.222500863626E+03   -0.22629E-01   -0.23669E-01  5760   0.189E+00-0.367E-01
CGA:  67    -0.222515036829E+03   -0.14173E-01   -0.11723E-01  5760   0.226E+00 0.242E-01
CGA:  68    -0.222528368715E+03   -0.13332E-01   -0.10040E-01  5760   0.235E+00 0.129E+00
CGA:  69    -0.222540148214E+03   -0.11779E-01   -0.13048E-01  5760   0.207E+00-0.298E-02
CGA:  70    -0.222564547241E+03   -0.24399E-01   -0.24386E-01  5760   0.101E+00 0.663E-02
CGA:  71    -0.222603591576E+03   -0.39044E-01   -0.36316E-01  5760   0.138E+00 0.153E-01
CGA:  72    -0.222616919349E+03   -0.13328E-01   -0.13135E-01  5760   0.232E+00 0.248E-01
CGA:  73    -0.222644373651E+03   -0.27454E-01   -0.24737E-01  5760   0.462E+00 0.996E-01
CGA:  74    -0.222652699277E+03   -0.83256E-02   -0.66582E-02  5760   0.424E+00 0.442E+00
CGA:  75    -0.222673977659E+03   -0.21278E-01   -0.29331E-01  5760   0.112E+00-0.684E-02
CGA:  76    -0.222695780931E+03   -0.21803E-01   -0.30408E-01  5760   0.273E+00-0.418E-01
CGA:  77    -0.222705197023E+03   -0.94161E-02   -0.12104E-01  5760   0.298E+00 0.398E-01
CGA:  78    -0.222727276733E+03   -0.22080E-01   -0.22175E-01  5760   0.752E-01-0.718E-02
CGA:  79    -0.222737557294E+03   -0.10281E-01   -0.10201E-01  5760   0.573E-01 0.248E-02
CGA:  80    -0.222744750355E+03   -0.71931E-02   -0.71999E-02  5760   0.627E-01 0.189E-02
CGA:  81    -0.222755505025E+03   -0.10755E-01   -0.11418E-01  5760   0.371E-01-0.806E-02
CGA:  82    -0.222760441556E+03   -0.49365E-02   -0.49125E-02  5760   0.334E-01 0.308E-02
CGA:  83    -0.222765787717E+03   -0.53462E-02   -0.58318E-02  5760   0.312E-01-0.481E-02
CGA:  84    -0.222769241338E+03   -0.34536E-02   -0.34571E-02  5760   0.133E-01-0.640E-03
CGA:  85    -0.222771594099E+03   -0.23528E-02   -0.23556E-02  5760   0.132E-01 0.934E-04
CGA:  86    -0.222773275024E+03   -0.16809E-02   -0.16754E-02  5760   0.126E-01-0.412E-03
CGA:  87    -0.222775511236E+03   -0.22362E-02   -0.22309E-02  5760   0.848E-02 0.147E-03
CGA:  88    -0.222776722407E+03   -0.12112E-02   -0.12126E-02  5760   0.875E-02 0.163E-03
CGA:  89    -0.222778228491E+03   -0.15061E-02   -0.15769E-02  5760   0.104E-01-0.377E-03
CGA:  90    -0.222779990293E+03   -0.17618E-02   -0.18061E-02  5760   0.700E-02-0.644E-03
CGA:  91    -0.222781292018E+03   -0.13017E-02   -0.13113E-02  5760   0.653E-02 0.378E-03
CGA:  92    -0.222782145859E+03   -0.85384E-03   -0.83646E-03  5760   0.473E-02-0.549E-04
CGA:  93    -0.222783323408E+03   -0.11775E-02   -0.12324E-02  5760   0.579E-02-0.280E-03
CGA:  94    -0.222784341219E+03   -0.10178E-02   -0.10142E-02  5760   0.475E-02 0.167E-03
CGA:  95    -0.222785269010E+03   -0.92779E-03   -0.94469E-03  5760   0.598E-02 0.127E-03
CGA:  96    -0.222786672984E+03   -0.14040E-02   -0.15765E-02  5760   0.131E-01-0.694E-03
CGA:  97    -0.222789121054E+03   -0.24481E-02   -0.24375E-02  5760   0.126E-01 0.176E-03
CGA:  98    -0.222791142485E+03   -0.20214E-02   -0.20214E-02  5760   0.142E-01 0.248E-03
CGA:  99    -0.222793937242E+03   -0.27948E-02   -0.28363E-02  5760   0.181E-01 0.192E-03
CGA: 100    -0.222796740218E+03   -0.28030E-02   -0.28004E-02  5760   0.135E-01-0.189E-03
CGA: 101    -0.222798884317E+03   -0.21441E-02   -0.21444E-02  5760   0.108E-01 0.139E-04
CGA: 102    -0.222800246887E+03   -0.13626E-02   -0.13239E-02  5760   0.785E-02 0.177E-03
CGA: 103    -0.222802052597E+03   -0.18057E-02   -0.18289E-02  5760   0.812E-02-0.329E-03
CGA: 104    -0.222803248215E+03   -0.11956E-02   -0.11899E-02  5760   0.727E-02 0.254E-03
SDA: 105    -0.222804532381E+03   -0.12842E-02   -0.12887E-02  5760   0.697E-02-0.127E-03
CGA: 106    -0.222805436570E+03   -0.90419E-03   -0.89636E-03  5760   0.352E-02 0.140E-03
CGA: 107    -0.222806183226E+03   -0.74666E-03   -0.77883E-03  5760   0.336E-02 0.774E-04
CGA: 108    -0.222806727854E+03   -0.54463E-03   -0.53209E-03  5760   0.255E-02-0.387E-03
CGA: 109    -0.222807290006E+03   -0.56215E-03   -0.55475E-03  5760   0.182E-02 0.571E-04
CGA: 110    -0.222807826900E+03   -0.53689E-03   -0.55241E-03  5760   0.226E-02-0.340E-04
CGA: 111    -0.222808230427E+03   -0.40353E-03   -0.40333E-03  5760   0.116E-02 0.122E-05
CGA: 112    -0.222808488626E+03   -0.25820E-03   -0.27322E-03  5760   0.155E-02 0.914E-05
CGA: 113    -0.222808756625E+03   -0.26800E-03   -0.26719E-03  5760   0.151E-02-0.128E-04
CGA: 114    -0.222809063863E+03   -0.30724E-03   -0.31327E-03  5760   0.986E-03-0.858E-04
CGA: 115    -0.222809309674E+03   -0.24581E-03   -0.24430E-03  5760   0.126E-02 0.161E-04
CGA: 116    -0.222809601495E+03   -0.29182E-03   -0.29243E-03  5760   0.957E-03-0.647E-05
CGA: 117    -0.222809842509E+03   -0.24101E-03   -0.25442E-03  5760   0.173E-02 0.402E-04
CGA: 118    -0.222810089429E+03   -0.24692E-03   -0.23444E-03  5760   0.718E-03-0.105E-04
CGA: 119    -0.222810281759E+03   -0.19233E-03   -0.19663E-03  5760   0.903E-03-0.195E-04
CGA: 120    -0.222810486917E+03   -0.20516E-03   -0.20601E-03  5760   0.716E-03-0.156E-04
CGA: 121    -0.222810652674E+03   -0.16576E-03   -0.16693E-03  5760   0.658E-03 0.152E-04
CGA: 122    -0.222810810481E+03   -0.15781E-03   -0.16049E-03  5760   0.114E-02 0.285E-04
CGA: 123    -0.222811046572E+03   -0.23609E-03   -0.23689E-03  5760   0.115E-02-0.765E-04
CGA: 124    -0.222811296709E+03   -0.25014E-03   -0.24988E-03  5760   0.119E-02-0.692E-05
CGA: 125    -0.222811552890E+03   -0.25618E-03   -0.25905E-03  5760   0.924E-03-0.706E-05
CGA: 126    -0.222811829282E+03   -0.27639E-03   -0.28032E-03  5760   0.789E-03-0.920E-05
CGA: 127    -0.222811940563E+03   -0.11128E-03   -0.10255E-03  5760   0.533E-03 0.709E-04
CGA: 128    -0.222812062070E+03   -0.12151E-03   -0.12273E-03  5760   0.442E-03-0.362E-04
CGA: 129    -0.222812151224E+03   -0.89154E-04   -0.89410E-04  5760   0.358E-03 0.206E-05
CGA: 130    -0.222812220027E+03   -0.68803E-04   -0.68172E-04  5760   0.316E-03 0.187E-04
CGA: 131    -0.222812294401E+03   -0.74373E-04   -0.76546E-04  5760   0.378E-03-0.369E-05
CGA: 132    -0.222812357195E+03   -0.62794E-04   -0.60386E-04  5760   0.280E-03-0.401E-05
CGA: 133    -0.222812436685E+03   -0.79491E-04   -0.80711E-04  5760   0.175E-03-0.371E-05
CGA: 134    -0.222812472653E+03   -0.35968E-04   -0.36035E-04  5760   0.199E-03 0.629E-05
CGA: 135    -0.222812512485E+03   -0.39832E-04   -0.39525E-04  5760   0.195E-03 0.818E-06
SDA: 136    -0.222812551058E+03   -0.38573E-04   -0.38214E-04  5760   0.142E-03-0.745E-05
CGA: 137    -0.222812568523E+03   -0.17465E-04   -0.16353E-04  5760   0.794E-04 0.111E-04
CGA: 138    -0.222812586604E+03   -0.18081E-04   -0.18361E-04  5760   0.981E-04-0.174E-05
CGA: 139    -0.222812602494E+03   -0.15890E-04   -0.15475E-04  5760   0.548E-04-0.300E-05
CGA: 140    -0.222812624439E+03   -0.21945E-04   -0.22267E-04  5760   0.830E-04-0.120E-05
CGA: 141    -0.222812648893E+03   -0.24455E-04   -0.24514E-04  5760   0.626E-04-0.644E-07
CGA: 142    -0.222812663938E+03   -0.15045E-04   -0.15189E-04  5760   0.796E-04 0.984E-06
CGA: 143    -0.222812677475E+03   -0.13537E-04   -0.12818E-04  5760   0.713E-04 0.221E-05
CGA: 144    -0.222812692803E+03   -0.15328E-04   -0.15314E-04  5760   0.591E-04-0.258E-06
CGA: 145    -0.222812706615E+03   -0.13812E-04   -0.13861E-04  5760   0.533E-04-0.614E-06
CGA: 146    -0.222812726026E+03   -0.19411E-04   -0.19267E-04  5760   0.541E-04 0.235E-05
CGA: 147    -0.222812735531E+03   -0.95053E-05   -0.93606E-05  5760   0.554E-04 0.390E-05
CGA: 148    -0.222812748509E+03   -0.12978E-04   -0.12962E-04  5760   0.547E-04-0.255E-05
CGA: 149    -0.222812757834E+03   -0.93253E-05   -0.92722E-05  5760   0.385E-04-0.707E-06
CGA: 150    -0.222812766614E+03   -0.87799E-05   -0.88886E-05  5760   0.309E-04-0.168E-05
CGA: 151    -0.222812772822E+03   -0.62073E-05   -0.61943E-05  5760   0.265E-04-0.519E-06
CGA: 152    -0.222812777709E+03   -0.48872E-05   -0.46676E-05  5760   0.275E-04 0.189E-05
CGA: 153    -0.222812784621E+03   -0.69121E-05   -0.69825E-05  5760   0.226E-04-0.112E-05
CGA: 154    -0.222812788868E+03   -0.42474E-05   -0.41829E-05  5760   0.193E-04 0.220E-06
CGA: 155    -0.222812793057E+03   -0.41885E-05   -0.41862E-05  5760   0.213E-04-0.297E-06
CGA: 156    -0.222812797070E+03   -0.40127E-05   -0.39427E-05  5760   0.161E-04 0.166E-06
CGA: 157    -0.222812800770E+03   -0.37004E-05   -0.37281E-05  5760   0.155E-04 0.391E-06
CGA: 158    -0.222812804253E+03   -0.34834E-05   -0.34912E-05  5760   0.176E-04 0.750E-06
CGA: 159    -0.222812808007E+03   -0.37541E-05   -0.37149E-05  5760   0.151E-04 0.145E-06
CGA: 160    -0.222812811071E+03   -0.30640E-05   -0.30404E-05  5760   0.127E-04 0.288E-06
CGA: 161    -0.222812813992E+03   -0.29209E-05   -0.29555E-05  5760   0.125E-04-0.938E-08
CGA: 162    -0.222812816167E+03   -0.21743E-05   -0.21258E-05  5760   0.100E-04 0.318E-06
CGA: 163    -0.222812818806E+03   -0.26393E-05   -0.27686E-05  5760   0.960E-05-0.603E-06
CGA: 164    -0.222812820495E+03   -0.16889E-05   -0.16327E-05  5760   0.914E-05-0.134E-06
CGA: 165    -0.222812822273E+03   -0.17780E-05   -0.17482E-05  5760   0.725E-05-0.534E-06
CGA: 166    -0.222812824311E+03   -0.20380E-05   -0.21679E-05  5760   0.972E-05-0.448E-06
SDA: 167    -0.222812826013E+03   -0.17024E-05   -0.16525E-05  5760   0.880E-05 0.135E-06
CGA: 168    -0.222812826986E+03   -0.97249E-06   -0.82583E-06  5760   0.465E-05 0.135E-05
CGA: 169    -0.222812828240E+03   -0.12545E-05   -0.12623E-05  5760   0.374E-05-0.338E-07
CGA: 170    -0.222812829287E+03   -0.10472E-05   -0.10339E-05  5760   0.205E-05 0.185E-06
CGA: 171    -0.222812829847E+03   -0.55991E-06   -0.56613E-06  5760   0.287E-05 0.327E-06
   1 F= -.23277908E+03 E0= -.23277632E+03  d E =-.551602E-02  mag=     6.0000
