       N       E                     dE             d eps       ncg     rms          ort
DAV:   1     0.344631285006E+04    0.34463E+04   -0.13890E+05  5760   0.213E+03
DAV:   2     0.410238780073E+03   -0.30361E+04   -0.27953E+04  5760   0.518E+02
DAV:   3    -0.220361896260E+03   -0.63060E+03   -0.58231E+03  5760   0.250E+02
DAV:   4    -0.270596368177E+03   -0.50234E+02   -0.49025E+02  5760   0.728E+01
DAV:   5    -0.272466199697E+03   -0.18698E+01   -0.18660E+01  5760   0.141E+01
SDA:   6     0.192505321734E+03    0.46497E+03   -0.18660E+01  5760   0.625E+04 0.000E+00
CGA:   7     0.439762768297E+03    0.24726E+03   -0.26388E+03  5760   0.655E+05-0.247E+05
CGA:   8     0.426506616940E+04    0.38253E+04   -0.41720E+04  5760   0.279E+05-0.645E+04
CGA:   9     0.473213381406E+04    0.46707E+03   -0.12409E+04  5760   0.390E+05-0.166E+05
CGA:  10     0.311108752762E+04   -0.16210E+04   -0.20193E+04  5760   0.540E+05-0.499E+05
CGA:  11     0.344327568416E+04    0.33219E+03   -0.29312E+04  5760   0.746E+05-0.850E+05
CGA:  12     0.592736887916E+04    0.24841E+04   -0.43311E+04  5760   0.300E+06-0.169E+06
CGA:  13     0.499619640582E+04   -0.93117E+03   -0.23690E+05  5760   0.970E+05 0.605E+04
CGA:  14     0.682462334180E+04    0.18284E+04   -0.73363E+04  5760   0.208E+06-0.755E+03
CGA:  15     0.847929249644E+04    0.16547E+04   -0.14324E+05  5760   0.145E+06-0.133E+05
CGA:  16     0.391676564709E+04   -0.45625E+04   -0.11673E+05  5760   0.598E+05 0.305E+05
CGA:  17     0.205343432300E+04   -0.18633E+04   -0.43648E+04  5760   0.122E+05 0.186E+05
CGA:  18     0.162268123091E+04   -0.43075E+03   -0.52367E+03  5760   0.329E+04 0.622E+04
CGA:  19     0.120466233043E+04   -0.41802E+03   -0.41821E+03  5760   0.406E+04 0.664E+02
CGA:  20     0.779649796509E+03   -0.42501E+03   -0.45905E+03  5760   0.120E+04 0.440E+03
CGA:  21     0.573218006607E+03   -0.20643E+03   -0.28096E+03  5760   0.587E+04-0.769E+03
CGA:  22     0.362788785327E+03   -0.21043E+03   -0.24632E+03  5760   0.508E+03-0.554E+03
CGA:  23     0.269297613097E+03   -0.93491E+02   -0.10868E+03  5760   0.227E+04-0.128E+03
CGA:  24     0.763098687101E+02   -0.19299E+03   -0.15140E+03  5760   0.156E+04 0.156E+03
CGA:  25     0.989543984377E+01   -0.66414E+02   -0.51402E+02  5760   0.742E+03 0.472E+03
CGA:  26    -0.294324527758E+02   -0.39328E+02   -0.38397E+02  5760   0.778E+03 0.134E+02
CGA:  27    -0.710397083865E+02   -0.41607E+02   -0.41989E+02  5760   0.117E+04-0.261E+02
CGA:  28    -0.984989073102E+02   -0.27459E+02   -0.35787E+02  5760   0.457E+03-0.286E+03
CGA:  29    -0.110962472883E+03   -0.12464E+02   -0.13431E+02  5760   0.420E+03-0.243E+02
CGA:  30    -0.122234988963E+03   -0.11273E+02   -0.12260E+02  5760   0.159E+03-0.370E+02
CGA:  31    -0.129275441794E+03   -0.70405E+01   -0.75039E+01  5760   0.286E+03-0.377E+01
CGA:  32    -0.147092421844E+03   -0.17817E+02   -0.16693E+02  5760   0.282E+03 0.823E+01
CGA:  33    -0.156301231438E+03   -0.92088E+01   -0.10051E+02  5760   0.136E+03-0.155E+02
CGA:  34    -0.161991859589E+03   -0.56906E+01   -0.55471E+01  5760   0.121E+03 0.812E+00
CGA:  35    -0.169217665032E+03   -0.72258E+01   -0.71465E+01  5760   0.152E+03-0.101E+01
CGA:  36    -0.176430174076E+03   -0.72125E+01   -0.69956E+01  5760   0.141E+03 0.226E+01
CGA:  37    -0.182797758880E+03   -0.63676E+01   -0.63495E+01  5760   0.115E+03-0.443E+00
CGA:  38    -0.187636532970E+03   -0.48388E+01   -0.47543E+01  5760   0.890E+02-0.750E+00
CGA:  39    -0.191473774994E+03   -0.38372E+01   -0.35602E+01  5760   0.795E+02 0.362E+01
CGA:  40    -0.195628135933E+03   -0.41544E+01   -0.40034E+01  5760   0.962E+02 0.197E+01
CGA:  41    -0.199484406829E+03   -0.38563E+01   -0.31972E+01  5760   0.925E+02 0.124E+02
CGA:  42    -0.202095485515E+03   -0.26111E+01   -0.23129E+01  5760   0.609E+02 0.148E+02
CGA:  43    -0.203583469697E+03   -0.14880E+01   -0.14810E+01  5760   0.451E+02 0.569E+01
CGA:  44    -0.204675876023E+03   -0.10924E+01   -0.11246E+01  5760   0.621E+02 0.301E+01
CGA:  45    -0.206039892738E+03   -0.13640E+01   -0.15313E+01  5760   0.839E+02 0.432E+01
CGA:  46    -0.207079633570E+03   -0.10397E+01   -0.16373E+01  5760   0.713E+02-0.949E+00
CGA:  47    -0.207869677908E+03   -0.79004E+00   -0.12671E+01  5760   0.647E+02-0.465E+01
CGA:  48    -0.208813753171E+03   -0.94408E+00   -0.10413E+01  5760   0.510E+02 0.327E+01
CGA:  49    -0.209565643666E+03   -0.75189E+00   -0.88776E+00  5760   0.292E+02-0.351E-01
CGA:  50    -0.209993420903E+03   -0.42778E+00   -0.52476E+00  5760   0.240E+02-0.446E+00
CGA:  51    -0.210532103446E+03   -0.53868E+00   -0.60785E+00  5760   0.345E+02 0.949E+00
SDA:  52    -0.211369497797E+03   -0.83739E+00   -0.90643E+00  5760   0.335E+02 0.209E+01
CGA:  53    -0.212785872684E+03   -0.14164E+01   -0.14021E+01  5760   0.200E+02-0.433E+00
CGA:  54    -0.214301149244E+03   -0.15153E+01   -0.14935E+01  5760   0.140E+02 0.717E+00
CGA:  55    -0.216788821781E+03   -0.24877E+01   -0.25228E+01  5760   0.339E+02-0.134E+00
CGA:  56    -0.218403764868E+03   -0.16149E+01   -0.16545E+01  5760   0.125E+02 0.870E+00
CGA:  57    -0.219184194885E+03   -0.78043E+00   -0.78067E+00  5760   0.658E+01 0.887E+00
CGA:  58    -0.220091183085E+03   -0.90699E+00   -0.89257E+00  5760   0.627E+01 0.196E+00
CGA:  59    -0.220819277368E+03   -0.72809E+00   -0.68554E+00  5760   0.294E+01 0.865E+00
CGA:  60    -0.221123308752E+03   -0.30403E+00   -0.29224E+00  5760   0.108E+01 0.356E+00
CGA:  61    -0.221393184348E+03   -0.26988E+00   -0.25407E+00  5760   0.147E+01 0.121E+00
CGA:  62    -0.221697398031E+03   -0.30421E+00   -0.32102E+00  5760   0.161E+01-0.155E+00
CGA:  63    -0.221834801292E+03   -0.13740E+00   -0.13877E+00  5760   0.144E+01-0.599E-01
CGA:  64    -0.222050357332E+03   -0.21556E+00   -0.20495E+00  5760   0.121E+01 0.137E+00
CGA:  65    -0.222189097186E+03   -0.13874E+00   -0.13869E+00  5760   0.151E+01 0.910E-02
CGA:  66    -0.222329512247E+03   -0.14042E+00   -0.14024E+00  5760   0.656E+00 0.462E-01
CGA:  67    -0.222468808786E+03   -0.13930E+00   -0.12858E+00  5760   0.820E+00-0.238E-01
CGA:  68    -0.222535296844E+03   -0.66488E-01   -0.63653E-01  5760   0.807E+00-0.116E+00
CGA:  69    -0.222607336162E+03   -0.72039E-01   -0.72714E-01  5760   0.584E+00-0.202E+00
CGA:  70    -0.222642511494E+03   -0.35175E-01   -0.33523E-01  5760   0.987E+00-0.164E+00
CGA:  71    -0.222693705341E+03   -0.51194E-01   -0.51480E-01  5760   0.950E+00 0.255E-01
CGA:  72    -0.222723264578E+03   -0.29559E-01   -0.33218E-01  5760   0.429E+00 0.110E+00
CGA:  73    -0.222759882509E+03   -0.36618E-01   -0.37517E-01  5760   0.719E+00-0.328E-01
CGA:  74    -0.222801045130E+03   -0.41163E-01   -0.38875E-01  5760   0.346E+00-0.127E+00
CGA:  75    -0.222826759777E+03   -0.25715E-01   -0.25608E-01  5760   0.467E+00 0.187E-01
CGA:  76    -0.222859997912E+03   -0.33238E-01   -0.33262E-01  5760   0.242E+00 0.140E-01
CGA:  77    -0.222888114101E+03   -0.28116E-01   -0.27121E-01  5760   0.152E+00 0.281E-01
CGA:  78    -0.222911499142E+03   -0.23385E-01   -0.23045E-01  5760   0.276E+00 0.248E-02
CGA:  79    -0.222930089315E+03   -0.18590E-01   -0.18669E-01  5760   0.171E+00-0.897E-03
CGA:  80    -0.222948514645E+03   -0.18425E-01   -0.17738E-01  5760   0.136E+00 0.249E-01
CGA:  81    -0.222961709488E+03   -0.13195E-01   -0.13203E-01  5760   0.197E+00-0.557E-02
CGA:  82    -0.222976642110E+03   -0.14933E-01   -0.14973E-01  5760   0.127E+00 0.332E-02
SDA:  83    -0.222986834797E+03   -0.10193E-01   -0.10296E-01  5760   0.180E+00 0.384E-02
CGA:  84    -0.222996002348E+03   -0.91676E-02   -0.94059E-02  5760   0.126E+00-0.777E-03
CGA:  85    -0.223016919331E+03   -0.20917E-01   -0.20774E-01  5760   0.829E-01 0.156E-02
CGA:  86    -0.223041675090E+03   -0.24756E-01   -0.21865E-01  5760   0.733E-01 0.191E-01
CGA:  87    -0.223050166621E+03   -0.84915E-02   -0.85914E-02  5760   0.103E+00 0.326E-01
CGA:  88    -0.223067674418E+03   -0.17508E-01   -0.16633E-01  5760   0.767E-01 0.606E-01
CGA:  89    -0.223071608921E+03   -0.39345E-02   -0.42192E-02  5760   0.600E-01 0.562E-02
CGA:  90    -0.223081705413E+03   -0.10096E-01   -0.92236E-02  5760   0.384E-01 0.166E-01
CGA:  91    -0.223103032830E+03   -0.21327E-01   -0.15675E-01  5760   0.515E-01 0.372E-01
CGA:  92    -0.223108363987E+03   -0.53312E-02   -0.54683E-02  5760   0.290E-01 0.304E-01
CGA:  93    -0.223112749066E+03   -0.43851E-02   -0.38940E-02  5760   0.485E-01 0.200E-01
CGA:  94    -0.223114850365E+03   -0.21013E-02   -0.25550E-02  5760   0.388E-01 0.825E-02
CGA:  95    -0.223125295163E+03   -0.10445E-01   -0.77056E-02  5760   0.369E-01 0.390E-01
CGA:  96    -0.223127445608E+03   -0.21504E-02   -0.24575E-02  5760   0.411E-01 0.476E-02
CGA:  97    -0.223147024005E+03   -0.19578E-01   -0.12436E-01  5760   0.294E-01 0.379E-01
CGA:  98    -0.223151038834E+03   -0.40148E-02   -0.39602E-02  5760   0.619E-01 0.216E-02
CGA:  99    -0.223169273203E+03   -0.18234E-01   -0.15506E-01  5760   0.131E+00 0.241E-01
CGA: 100    -0.223187535968E+03   -0.18263E-01   -0.91847E-02  5760   0.116E+00 0.307E+00
CGA: 101    -0.223200043790E+03   -0.12508E-01   -0.12715E-01  5760   0.665E-01 0.284E-01
CGA: 102    -0.223206747153E+03   -0.67034E-02   -0.80891E-02  5760   0.801E-01 0.593E-01
CGA: 103    -0.223216227833E+03   -0.94807E-02   -0.94737E-02  5760   0.389E-01 0.320E-01
CGA: 104    -0.223226001976E+03   -0.97741E-02   -0.90727E-02  5760   0.559E-01 0.216E-01
CGA: 105    -0.223231069489E+03   -0.50675E-02   -0.49629E-02  5760   0.204E-01 0.688E-02
CGA: 106    -0.223236823734E+03   -0.57542E-02    0.24076E-01  5760   0.162E-01 0.178E-01
CGA: 107    -0.223248855042E+03   -0.12031E-01   -0.59712E-03  5760   0.861E-01-0.366E-03
CGA: 108    -0.223274072606E+03   -0.25218E-01   -0.34684E-01  5760   0.128E+00 0.190E-01
CGA: 109    -0.223286523542E+03   -0.12451E-01   -0.58086E-02  5760   0.260E-01 0.196E-01
CGA: 110    -0.223288403058E+03   -0.18795E-02   -0.14188E-02  5760   0.265E-01 0.123E-01
CGA: 111    -0.223291392271E+03   -0.29892E-02   -0.34404E-02  5760   0.297E-01 0.504E-02
CGA: 112    -0.223293767173E+03   -0.23749E-02   -0.14637E-02  5760   0.236E-01 0.808E-02
CGA: 113    -0.223295169603E+03   -0.14024E-02   -0.13232E-02  5760   0.267E-01 0.110E-01
CGA: 114    -0.223299428159E+03   -0.42586E-02   -0.38775E-02  5760   0.202E-01-0.411E-02
CGA: 115    -0.223300927072E+03   -0.14989E-02   -0.57794E-03  5760   0.123E-01 0.665E-02
CGA: 116    -0.223301673969E+03   -0.74690E-03   -0.74309E-03  5760   0.119E-01 0.810E-02
CGA: 117    -0.223302810553E+03   -0.11366E-02   -0.52946E-03  5760   0.504E-02 0.508E-02
CGA: 118    -0.223303422660E+03   -0.61211E-03   -0.60369E-03  5760   0.691E-02 0.271E-02
CGA: 119    -0.223303983456E+03   -0.56080E-03   -0.31360E-03  5760   0.228E-02 0.247E-02
CGA: 120    -0.223304685738E+03   -0.70228E-03   -0.68959E-03  5760   0.600E-02 0.428E-03
CGA: 121    -0.223305899642E+03   -0.12139E-02   -0.80041E-03  5760   0.448E-02 0.238E-02
CGA: 122    -0.223306941646E+03   -0.10420E-02   -0.10717E-02  5760   0.438E-02-0.545E-03
CGA: 123    -0.223307628011E+03   -0.68636E-03   -0.79510E-03  5760   0.694E-02 0.249E-03
CGA: 124    -0.223308766928E+03   -0.11389E-02   -0.11087E-02  5760   0.660E-02 0.848E-04
CGA: 125    -0.223309535007E+03   -0.76808E-03   -0.60456E-03  5760   0.284E-02 0.505E-03
CGA: 126    -0.223310429278E+03   -0.89427E-03   -0.16552E-02  5760   0.427E-02-0.126E-02
CGA: 127    -0.223310690684E+03   -0.26141E-03   -0.20021E-03  5760   0.456E-02 0.286E-03
CGA: 128    -0.223311719549E+03   -0.10289E-02   -0.10207E-02  5760   0.764E-02 0.353E-03
CGA: 129    -0.223312664949E+03   -0.94540E-03   -0.88739E-03  5760   0.757E-02 0.126E-02
CGA: 130    -0.223314190546E+03   -0.15256E-02   -0.16050E-02  5760   0.646E-02-0.130E-02
CGA: 131    -0.223314792287E+03   -0.60174E-03   -0.57298E-03  5760   0.588E-02 0.152E-03
CGA: 132    -0.223315896780E+03   -0.11045E-02   -0.11424E-02  5760   0.314E-02-0.689E-03
CGA: 133    -0.223316557369E+03   -0.66059E-03   -0.65525E-03  5760   0.231E-02 0.885E-04
CGA: 134    -0.223316995656E+03   -0.43829E-03   -0.44587E-03  5760   0.326E-02 0.412E-03
CGA: 135    -0.223317459880E+03   -0.46422E-03   -0.36072E-03  5760   0.266E-02 0.690E-03
CGA: 136    -0.223318388512E+03   -0.92863E-03   -0.11866E-02  5760   0.520E-02-0.753E-03
CGA: 137    -0.223318818272E+03   -0.42976E-03   -0.42540E-03  5760   0.451E-02 0.373E-04
CGA: 138    -0.223319502895E+03   -0.68462E-03   -0.67253E-03  5760   0.411E-02-0.658E-04
CGA: 139    -0.223320257019E+03   -0.75412E-03   -0.75291E-03  5760   0.343E-02 0.930E-04
CGA: 140    -0.223320642163E+03   -0.38514E-03   -0.38468E-03  5760   0.145E-02 0.583E-05
CGA: 141    -0.223320834264E+03   -0.19210E-03   -0.18751E-03  5760   0.121E-02 0.986E-04
CGA: 142    -0.223320994342E+03   -0.16008E-03   -0.15055E-03  5760   0.838E-03 0.579E-04
CGA: 143    -0.223321099297E+03   -0.10496E-03   -0.97449E-04  5760   0.542E-03 0.189E-04
CGA: 144    -0.223321189152E+03   -0.89855E-04   -0.89814E-04  5760   0.506E-03-0.739E-05
CGA: 145    -0.223321261241E+03   -0.72089E-04   -0.71373E-04  5760   0.367E-03-0.583E-05
CGA: 146    -0.223321314620E+03   -0.53379E-04   -0.53297E-04  5760   0.368E-03 0.313E-06
CGA: 147    -0.223321378859E+03   -0.64240E-04   -0.64691E-04  5760   0.365E-03 0.880E-05
CGA: 148    -0.223321428540E+03   -0.49681E-04   -0.47616E-04  5760   0.277E-03 0.114E-04
SDA: 149    -0.223321465340E+03   -0.36799E-04   -0.35567E-04  5760   0.304E-03 0.102E-04
CGA: 150    -0.223321505239E+03   -0.39899E-04   -0.37568E-04  5760   0.298E-03 0.732E-04
CGA: 151    -0.223321557159E+03   -0.51920E-04   -0.45291E-04  5760   0.243E-03 0.489E-04
CGA: 152    -0.223321595523E+03   -0.38364E-04   -0.72384E-04  5760   0.573E-03-0.430E-04
CGA: 153    -0.223321641258E+03   -0.45735E-04   -0.26815E-04  5760   0.230E-03 0.208E-05
CGA: 154    -0.223321655249E+03   -0.13992E-04   -0.91289E-05  5760   0.207E-03 0.101E-03
CGA: 155    -0.223321683709E+03   -0.28460E-04   -0.30175E-04  5760   0.342E-03 0.102E-03
CGA: 156    -0.223321740387E+03   -0.56678E-04   -0.39875E-04  5760   0.196E-03 0.240E-04
CGA: 157    -0.223321769094E+03   -0.28707E-04   -0.28833E-04  5760   0.267E-03 0.579E-04
CGA: 158    -0.223321802863E+03   -0.33769E-04   -0.24936E-04  5760   0.160E-03 0.465E-04
CGA: 159    -0.223321848788E+03   -0.45924E-04   -0.45669E-04  5760   0.283E-03 0.303E-05
CGA: 160    -0.223321879723E+03   -0.30935E-04   -0.25111E-04  5760   0.296E-03 0.689E-04
CGA: 161    -0.223321940967E+03   -0.61245E-04   -0.61172E-04  5760   0.324E-03 0.257E-05
CGA: 162    -0.223321976970E+03   -0.36003E-04   -0.35217E-04  5760   0.369E-03 0.440E-04
CGA: 163    -0.223322034532E+03   -0.57561E-04   -0.55961E-04  5760   0.211E-03-0.315E-04
CGA: 164    -0.223322065035E+03   -0.30503E-04   -0.32129E-04  5760   0.301E-03-0.660E-05
CGA: 165    -0.223322106217E+03   -0.41183E-04   -0.41047E-04  5760   0.210E-03-0.125E-04
CGA: 166    -0.223322132652E+03   -0.26435E-04   -0.25832E-04  5760   0.147E-03 0.166E-05
CGA: 167    -0.223322158084E+03   -0.25432E-04   -0.28291E-04  5760   0.218E-03 0.871E-06
CGA: 168    -0.223322188452E+03   -0.30368E-04   -0.29363E-04  5760   0.233E-03-0.550E-05
CGA: 169    -0.223322217550E+03   -0.29098E-04   -0.28659E-04  5760   0.141E-03-0.282E-05
CGA: 170    -0.223322249618E+03   -0.32068E-04   -0.33996E-04  5760   0.145E-03-0.170E-04
CGA: 171    -0.223322269130E+03   -0.19512E-04   -0.19623E-04  5760   0.140E-03 0.241E-04
CGA: 172    -0.223322292087E+03   -0.22957E-04   -0.22261E-04  5760   0.194E-03 0.102E-04
CGA: 173    -0.223322324601E+03   -0.32514E-04   -0.33928E-04  5760   0.118E-03-0.310E-04
CGA: 174    -0.223322337492E+03   -0.12891E-04   -0.12555E-04  5760   0.890E-04-0.404E-06
CGA: 175    -0.223322354890E+03   -0.17398E-04   -0.18397E-04  5760   0.110E-03-0.647E-06
CGA: 176    -0.223322368693E+03   -0.13803E-04   -0.12780E-04  5760   0.611E-04 0.579E-05
CGA: 177    -0.223322375598E+03   -0.69055E-05   -0.59778E-05  5760   0.351E-04 0.300E-05
CGA: 178    -0.223322382922E+03   -0.73238E-05   -0.75057E-05  5760   0.445E-04-0.120E-05
CGA: 179    -0.223322390421E+03   -0.74990E-05   -0.76483E-05  5760   0.324E-04-0.262E-05
SDA: 180    -0.223322395413E+03   -0.49918E-05   -0.50192E-05  5760   0.321E-04-0.109E-05
CGA: 181    -0.223322400808E+03   -0.53953E-05   -0.54350E-05  5760   0.295E-04 0.450E-05
CGA: 182    -0.223322405124E+03   -0.43161E-05   -0.29018E-05  5760   0.204E-04 0.102E-04
CGA: 183    -0.223322412143E+03   -0.70185E-05   -0.78409E-05  5760   0.220E-04-0.310E-05
CGA: 184    -0.223322415240E+03   -0.30973E-05   -0.47768E-05  5760   0.542E-04 0.380E-05
CGA: 185    -0.223322423136E+03   -0.78957E-05   -0.63578E-05  5760   0.400E-04 0.165E-05
CGA: 186    -0.223322444061E+03   -0.20925E-04   -0.23342E-04  5760   0.810E-04-0.621E-05
CGA: 187    -0.223322453117E+03   -0.90561E-05   -0.77238E-05  5760   0.810E-04 0.265E-04
CGA: 188    -0.223322468521E+03   -0.15404E-04   -0.14401E-04  5760   0.650E-04 0.189E-05
CGA: 189    -0.223322481270E+03   -0.12749E-04   -0.13713E-04  5760   0.799E-04 0.280E-05
CGA: 190    -0.223322491795E+03   -0.10526E-04   -0.75064E-05  5760   0.451E-04 0.134E-04
CGA: 191    -0.223322501585E+03   -0.97895E-05   -0.98846E-05  5760   0.438E-04-0.215E-05
CGA: 192    -0.223322510035E+03   -0.84507E-05   -0.84787E-05  5760   0.308E-04-0.570E-06
CGA: 193    -0.223322515482E+03   -0.54469E-05   -0.54491E-05  5760   0.275E-04 0.204E-06
CGA: 194    -0.223322521728E+03   -0.62455E-05   -0.63298E-05  5760   0.287E-04 0.513E-06
CGA: 195    -0.223322525353E+03   -0.36251E-05   -0.33061E-05  5760   0.261E-04 0.365E-05
CGA: 196    -0.223322530341E+03   -0.49880E-05   -0.49468E-05  5760   0.371E-04 0.672E-06
CGA: 197    -0.223322537541E+03   -0.71996E-05   -0.74091E-05  5760   0.427E-04-0.112E-05
CGA: 198    -0.223322542876E+03   -0.53355E-05   -0.47971E-05  5760   0.283E-04 0.165E-05
CGA: 199    -0.223322547179E+03   -0.43026E-05   -0.42665E-05  5760   0.301E-04 0.476E-06
CGA: 200    -0.223322553482E+03   -0.63028E-05   -0.65982E-05  5760   0.303E-04-0.803E-06
CGA: 201    -0.223322557112E+03   -0.36308E-05   -0.34268E-05  5760   0.241E-04 0.836E-06
CGA: 202    -0.223322560671E+03   -0.35582E-05   -0.34369E-05  5760   0.267E-04 0.438E-06
CGA: 203    -0.223322565603E+03   -0.49326E-05   -0.49720E-05  5760   0.263E-04-0.595E-06
CGA: 204    -0.223322569392E+03   -0.37889E-05   -0.37299E-05  5760   0.220E-04-0.342E-07
CGA: 205    -0.223322573339E+03   -0.39473E-05   -0.39551E-05  5760   0.321E-04 0.226E-06
CGA: 206    -0.223322579027E+03   -0.56882E-05   -0.57289E-05  5760   0.339E-04 0.134E-05
CGA: 207    -0.223322584420E+03   -0.53925E-05   -0.51972E-05  5760   0.396E-04 0.113E-05
CGA: 208    -0.223322590527E+03   -0.61066E-05   -0.59386E-05  5760   0.509E-04-0.233E-06
CGA: 209    -0.223322600961E+03   -0.10434E-04   -0.10880E-04  5760   0.676E-04-0.422E-05
CGA: 210    -0.223322612267E+03   -0.11306E-04   -0.11323E-04  5760   0.824E-04-0.913E-06
SDA: 211    -0.223322628847E+03   -0.16580E-04   -0.16577E-04  5760   0.107E-03 0.121E-05
CGA: 212    -0.223322647651E+03   -0.18804E-04   -0.18830E-04  5760   0.516E-04 0.445E-05
CGA: 213    -0.223322653576E+03   -0.59250E-05   -0.42822E-05  5760   0.379E-04 0.180E-04
CGA: 214    -0.223322664226E+03   -0.10650E-04   -0.11169E-04  5760   0.239E-04-0.434E-05
CGA: 215    -0.223322668751E+03   -0.45241E-05   -0.46904E-05  5760   0.159E-04 0.544E-06
CGA: 216    -0.223322670614E+03   -0.18634E-05   -0.13378E-05  5760   0.122E-04 0.467E-05
CGA: 217    -0.223322674213E+03   -0.35991E-05   -0.38171E-05  5760   0.159E-04-0.179E-05
CGA: 218    -0.223322677102E+03   -0.28887E-05   -0.28854E-05  5760   0.133E-04 0.191E-06
CGA: 219    -0.223322679241E+03   -0.21388E-05   -0.21467E-05  5760   0.106E-04 0.591E-06
CGA: 220    -0.223322682271E+03   -0.30304E-05   -0.29884E-05  5760   0.133E-04 0.356E-06
CGA: 221    -0.223322684877E+03   -0.26060E-05   -0.26183E-05  5760   0.105E-04-0.446E-07
CGA: 222    -0.223322686673E+03   -0.17963E-05   -0.17829E-05  5760   0.146E-04 0.622E-06
CGA: 223    -0.223322688805E+03   -0.21312E-05   -0.18227E-05  5760   0.123E-04 0.158E-05
CGA: 224    -0.223322691437E+03   -0.26321E-05   -0.27135E-05  5760   0.128E-04-0.419E-06
CGA: 225    -0.223322693486E+03   -0.20494E-05   -0.19962E-05  5760   0.158E-04 0.121E-05
CGA: 226    -0.223322696050E+03   -0.25638E-05   -0.23976E-05  5760   0.141E-04 0.825E-06
CGA: 227    -0.223322698397E+03   -0.23471E-05   -0.22717E-05  5760   0.110E-04 0.456E-06
CGA: 228    -0.223322700236E+03   -0.18389E-05   -0.17910E-05  5760   0.143E-04 0.127E-05
CGA: 229    -0.223322703159E+03   -0.29229E-05   -0.30447E-05  5760   0.201E-04 0.193E-06
CGA: 230    -0.223322705967E+03   -0.28087E-05   -0.24910E-05  5760   0.140E-04 0.689E-06
CGA: 231    -0.223322708761E+03   -0.27936E-05   -0.29162E-05  5760   0.173E-04-0.737E-06
CGA: 232    -0.223322711701E+03   -0.29401E-05   -0.30141E-05  5760   0.241E-04 0.534E-06
CGA: 233    -0.223322714823E+03   -0.31217E-05   -0.27472E-05  5760   0.166E-04 0.150E-05
CGA: 234    -0.223322718147E+03   -0.33239E-05   -0.33744E-05  5760   0.157E-04-0.579E-09
CGA: 235    -0.223322721088E+03   -0.29415E-05   -0.29665E-05  5760   0.160E-04 0.608E-06
CGA: 236    -0.223322723461E+03   -0.23725E-05   -0.22179E-05  5760   0.153E-04 0.153E-05
CGA: 237    -0.223322725755E+03   -0.22944E-05   -0.20944E-05  5760   0.116E-04 0.299E-06
CGA: 238    -0.223322727926E+03   -0.21709E-05   -0.23235E-05  5760   0.126E-04-0.109E-05
CGA: 239    -0.223322729182E+03   -0.12562E-05   -0.10247E-05  5760   0.738E-05 0.753E-06
CGA: 240    -0.223322730364E+03   -0.11819E-05   -0.11721E-05  5760   0.618E-05-0.353E-06
CGA: 241    -0.223322731476E+03   -0.11121E-05   -0.11142E-05  5760   0.756E-05 0.848E-06
SDA: 242    -0.223322732405E+03   -0.92871E-06   -0.81960E-06  5760   0.522E-05 0.912E-06
   1 F= -.23214173E+03 E0= -.23213772E+03  d E =-.803509E-02  mag=     6.0000
