 vasp.5.4.4.18Apr17-6-g9f103f2a35 (build Nov 22 2021 14:44:17) complex          
  
 executed on             LinuxIFC date 2022.08.08  10:57:16
 running on   64 total cores
 distrk:  each k-point on   64 cores,    1 groups
 distr:  one band on NCORES_PER_BAND=   4 cores,   16 groups


--------------------------------------------------------------------------------------------------------


 INCAR:
 POTCAR:    PAW_PBE Li 17Jan2003                  
 POTCAR:    PAW_PBE Co 02Aug2007                  
 POTCAR:    PAW_PBE O 08Apr2002                   
 POTCAR:    PAW_PBE Li 17Jan2003                  
   VRHFIN =Li: s1p0                                                             
   LEXCH  = PE                                                                  
   EATOM  =     5.3001 eV,    0.3895 Ry                                         
                                                                                
   TITEL  = PAW_PBE Li 17Jan2003                                                
   LULTRA =        F    use ultrasoft PP ?                                      
   IUNSCR =        1    unscreen: 0-lin 1-nonlin 2-no                           
   RPACOR =    1.500    partial core radius                                     
   POMASS =    7.010; ZVAL   =    1.000    mass and valenz                      
   RCORE  =    2.050    outmost cutoff radius                                   
   RWIGS  =    2.600; RWIGS  =    1.376    wigner-seitz radius (au A)           
   ENMAX  =  140.000; ENMIN  =  100.000 eV                                      
   ICORE  =        2    local potential                                         
   LCOR   =        T    correct aug charges                                     
   LPAW   =        T    paw PP                                                  
   EAUG   =  331.638                                                            
   DEXC   =    0.000                                                            
   RMAX   =    2.098    core radius for proj-oper                               
   RAUG   =    1.300    factor for augmentation sphere                          
   RDEP   =    2.094    radius for radial grids                                 
   RDEPT  =    1.810    core radius for aug-charge                              
                                                                                
   Atomic configuration                                                         
    4 entries                                                                   
     n  l   j            E        occ.                                          
     1  0  0.50       -51.8549   2.0000                                         
     2  0  0.50        -2.8742   1.0000                                         
     2  1  0.50        -1.3606   0.0000                                         
     3  2  1.50        -1.3606   0.0000                                         
   Description                                                                  
     l       E           TYP  RCUT    TYP  RCUT                                 
     0     -2.8742052     23  2.050                                             
     0     27.2116520     23  2.050                                             
     1     -1.3605826     23  2.050                                             
     2     -1.3605826     23  2.050                                             
  local pseudopotential read in
  partial core-charges read in
  partial kinetic energy density read in
  atomic valenz-charges read in
  non local Contribution for L=           0  read in
    real space projection operators read in
  non local Contribution for L=           0  read in
    real space projection operators read in
  non local Contribution for L=           1  read in
    real space projection operators read in
    PAW grid and wavefunctions read in
 
   number of l-projection  operators is LMAX  =           3
   number of lm-projection operators is LMMAX =           5
 
 POTCAR:    PAW_PBE Co 02Aug2007                  
   VRHFIN =Co: d8 s1                                                            
   LEXCH  = PE                                                                  
   EATOM  =   813.3670 eV,   59.7808 Ry                                         
                                                                                
   TITEL  = PAW_PBE Co 02Aug2007                                                
   LULTRA =        F    use ultrasoft PP ?                                      
   IUNSCR =        1    unscreen: 0-lin 1-nonlin 2-no                           
   RPACOR =    2.000    partial core radius                                     
   POMASS =   58.933; ZVAL   =    9.000    mass and valenz                      
   RCORE  =    2.300    outmost cutoff radius                                   
   RWIGS  =    2.460; RWIGS  =    1.302    wigner-seitz radius (au A)           
   ENMAX  =  267.968; ENMIN  =  200.976 eV                                      
   RCLOC  =    1.203    cutoff for local pot                                    
   LCOR   =        T    correct aug charges                                     
   LPAW   =        T    paw PP                                                  
   EAUG   =  477.818                                                            
   DEXC   =    0.000                                                            
   RMAX   =    2.360    core radius for proj-oper                               
   RAUG   =    1.300    factor for augmentation sphere                          
   RDEP   =    2.393    radius for radial grids                                 
   RDEPT  =    1.864    core radius for aug-charge                              
                                                                                
   Atomic configuration                                                         
    9 entries                                                                   
     n  l   j            E        occ.                                          
     1  0  0.50     -7587.6674   2.0000                                         
     2  0  0.50      -893.6084   2.0000                                         
     2  1  1.50      -764.5805   6.0000                                         
     3  0  0.50       -97.5973   2.0000                                         
     3  1  1.50       -60.9648   6.0000                                         
     3  2  2.50        -4.2382   8.0000                                         
     4  0  0.50        -4.3746   1.0000                                         
     4  1  1.50        -4.0817   0.0000                                         
     4  3  2.50        -1.3606   0.0000                                         
   Description                                                                  
     l       E           TYP  RCUT    TYP  RCUT                                 
     2     -4.2382362     23  2.300                                             
     2     -5.5988188     23  2.300                                             
     0     -4.3745797     23  2.300                                             
     0      5.7660125     23  2.300                                             
     1     -2.7211652     23  2.300                                             
     1     16.9860234     23  2.300                                             
  local pseudopotential read in
  partial core-charges read in
  partial kinetic energy density read in
  atomic valenz-charges read in
  non local Contribution for L=           2  read in
    real space projection operators read in
  non local Contribution for L=           2  read in
    real space projection operators read in
  non local Contribution for L=           0  read in
    real space projection operators read in
  non local Contribution for L=           0  read in
    real space projection operators read in
  non local Contribution for L=           1  read in
    real space projection operators read in
  non local Contribution for L=           1  read in
    real space projection operators read in
    PAW grid and wavefunctions read in
 
   number of l-projection  operators is LMAX  =           6
   number of lm-projection operators is LMMAX =          18
 
 POTCAR:    PAW_PBE O 08Apr2002                   
   VRHFIN =O: s2p4                                                              
   LEXCH  = PE                                                                  
   EATOM  =   432.3788 eV,   31.7789 Ry                                         
                                                                                
   TITEL  = PAW_PBE O 08Apr2002                                                 
   LULTRA =        F    use ultrasoft PP ?                                      
   IUNSCR =        1    unscreen: 0-lin 1-nonlin 2-no                           
   RPACOR =    1.200    partial core radius                                     
   POMASS =   16.000; ZVAL   =    6.000    mass and valenz                      
   RCORE  =    1.520    outmost cutoff radius                                   
   RWIGS  =    1.550; RWIGS  =    0.820    wigner-seitz radius (au A)           
   ENMAX  =  400.000; ENMIN  =  300.000 eV                                      
   ICORE  =        2    local potential                                         
   LCOR   =        T    correct aug charges                                     
   LPAW   =        T    paw PP                                                  
   EAUG   =  605.392                                                            
   DEXC   =    0.000                                                            
   RMAX   =    1.553    core radius for proj-oper                               
   RAUG   =    1.300    factor for augmentation sphere                          
   RDEP   =    1.550    radius for radial grids                                 
   RDEPT  =    1.329    core radius for aug-charge                              
                                                                                
   Atomic configuration                                                         
    4 entries                                                                   
     n  l   j            E        occ.                                          
     1  0  0.50      -514.6923   2.0000                                         
     2  0  0.50       -23.9615   2.0000                                         
     2  1  0.50        -9.0305   4.0000                                         
     3  2  1.50        -9.5241   0.0000                                         
   Description                                                                  
     l       E           TYP  RCUT    TYP  RCUT                                 
     0    -23.9615318     23  1.200                                             
     0     -9.5240782     23  1.200                                             
     1     -9.0304911     23  1.520                                             
     1      8.1634956     23  1.520                                             
     2     -9.5240782      7  1.500                                             
  local pseudopotential read in
  partial core-charges read in
  partial kinetic energy density read in
  kinetic energy density of atom read in
  atomic valenz-charges read in
  non local Contribution for L=           0  read in
    real space projection operators read in
  non local Contribution for L=           0  read in
    real space projection operators read in
  non local Contribution for L=           1  read in
    real space projection operators read in
  non local Contribution for L=           1  read in
    real space projection operators read in
    PAW grid and wavefunctions read in
 
   number of l-projection  operators is LMAX  =           4
   number of lm-projection operators is LMMAX =           8
 
 Optimization of the real space projectors (new method)

 maximal supplied QI-value         = 18.33
 optimisation between [QCUT,QGAM] = [ 12.46, 24.93] = [ 43.51,174.03] Ry 
 Optimized for a Real-space Cutoff    1.13 Angstroem

   l    n(q)    QCUT    max X(q) W(low)/X(q) W(high)/X(q)  e(spline) 
   0      8    12.465    33.825    0.12E-03    0.29E-03    0.99E-07
   0      8    12.465     8.944    0.86E-04    0.22E-03    0.72E-07
   1      8    12.465     4.214    0.27E-03    0.11E-03    0.82E-07
 Optimization of the real space projectors (new method)

 maximal supplied QI-value         = 16.25
 optimisation between [QCUT,QGAM] = [ 12.51, 25.03] = [ 43.85,175.40] Ry 
 Optimized for a Real-space Cutoff    1.31 Angstroem

   l    n(q)    QCUT    max X(q) W(low)/X(q) W(high)/X(q)  e(spline) 
   2      9    12.514    65.824    0.30E-03    0.46E-03    0.43E-06
   2      9    12.514    61.429    0.31E-03    0.46E-03    0.44E-06
   0     10    12.514    56.174    0.90E-04    0.33E-03    0.30E-06
   0     10    12.514    31.263    0.81E-04    0.30E-03    0.28E-06
   1      9    12.514    19.828    0.38E-03    0.65E-04    0.24E-06
   1      9    12.514    15.139    0.32E-03    0.60E-04    0.20E-06
 Optimization of the real space projectors (new method)

 maximal supplied QI-value         = 24.76
 optimisation between [QCUT,QGAM] = [ 12.38, 25.00] = [ 42.90,175.06] Ry 
 Optimized for a Real-space Cutoff    1.13 Angstroem

   l    n(q)    QCUT    max X(q) W(low)/X(q) W(high)/X(q)  e(spline) 
   0      8    12.378    20.381    0.16E-03    0.54E-05    0.27E-06
   0      8    12.378    15.268    0.17E-03    0.61E-05    0.29E-06
   1      8    12.378     5.964    0.38E-03    0.23E-03    0.28E-06
   1      8    12.378     5.382    0.33E-03    0.20E-03    0.25E-06
  PAW_PBE Li 17Jan2003                  :
 energy of atom  1       EATOM=   -5.3001
 kinetic energy error for atom=    0.0000 (will be added to EATOM!!)
  PAW_PBE Co 02Aug2007                  :
 energy of atom  2       EATOM= -813.3670
 kinetic energy error for atom=    0.0018 (will be added to EATOM!!)
  PAW_PBE O 08Apr2002                   :
 energy of atom  3       EATOM= -432.3788
 kinetic energy error for atom=    0.0168 (will be added to EATOM!!)
 
 
 POSCAR: Li6 Co12 O24                            
  positions in cartesian coordinates
  No initial velocities read in
 exchange correlation table for  LEXCH =        8
   RHO(1)=    0.500       N(1)  =     2000
   RHO(2)=  100.500       N(2)  =     4000
 


--------------------------------------------------------------------------------------------------------


 ion  position               nearest neighbor table
   1  0.473  0.988  0.010-  24 1.83  36 1.84  23 1.89  38 1.91  37 1.97  25 2.07   8 2.52  15 2.52
                            16 2.57  10 2.57   9 2.67  17 2.71
   2  0.820  0.667  0.335-  34 1.73  22 1.83  33 1.90  32 1.96  19 2.03  20 2.03  14 2.41  12 2.49
                            11 2.59   9 2.61  10 2.66   8 2.73
   3  0.167  0.315  0.669-  42 1.91  27 1.97  29 2.03  39 2.06  40 2.09  28 2.20   6 2.64  11 2.67
                             4 2.73  15 2.77   5 2.79  17 2.82   5 2.83  16 2.84   4 2.88  12 2.93
   4  0.168  0.802  0.650-  28 1.78  30 1.93  40 2.02  41 2.11  27 2.17  39 2.37  12 2.56   5 2.58
                            11 2.64   3 2.73   6 2.73  13 2.76   3 2.88   6 2.89  16 2.93   5 3.04
   5  0.692  0.361  0.653-  30 1.83  29 1.88  27 1.92  40 1.95  42 2.12  41 2.22   4 2.58  12 2.66
                             6 2.78  14 2.79   3 2.79   6 2.82   3 2.83  13 2.84  18 2.92  17 2.94
   6  0.683  0.859  0.664-  29 1.97  41 2.01  39 2.02  28 2.02  30 2.10  42 2.27   3 2.64  11 2.67
                            17 2.73   4 2.73   5 2.78  13 2.79   5 2.82   4 2.89  18 2.93  14 2.95
   7  0.171  0.329  0.166-  23 1.82  25 1.83  19 1.85  24 1.95  20 1.96  22 1.96   8 2.71  10 2.77
                             9 2.79   9 2.81  10 2.83   8 2.88
   8  0.178  0.848  0.171-  24 1.87  23 1.88  21 1.88  19 1.88  20 1.91  26 1.93   1 2.52   7 2.71
                             2 2.73  10 2.74   9 2.76   9 2.84  10 2.85   7 2.88
   9  0.686  0.354  0.167-  25 1.80  20 1.83  26 1.84  23 1.87  22 1.91  21 1.94   2 2.61   1 2.67
                            10 2.73   8 2.76   7 2.79   7 2.81   8 2.84  10 2.86
  10  0.659  0.830  0.165-  24 1.84  22 1.84  21 1.92  26 1.94  19 1.94  25 1.96   1 2.57   2 2.66
                             9 2.73   8 2.74   7 2.77   7 2.83   8 2.85   9 2.86
  11  0.003  0.002  0.495-  31 1.89  30 1.89  32 1.91  29 1.95  27 1.96  34 1.99   2 2.59   4 2.64
                             3 2.67   6 2.67  13 2.75  12 2.77  14 2.78  12 2.83  14 2.85  13 2.86
  12  0.000  0.506  0.482-  33 1.85  32 1.89  30 1.90  31 1.92  29 1.94  28 1.99   2 2.49   4 2.56
                             5 2.66  14 2.76  11 2.77  13 2.80  13 2.81  11 2.83  14 2.83   3 2.93
  13  0.509  0.995  0.478-  32 1.82  33 1.84  34 1.86  28 1.91  29 1.97  27 2.08  14 2.71  11 2.75
                             4 2.76   6 2.79  12 2.80  12 2.81   5 2.84  11 2.86  14 2.88
  14  0.491  0.500  0.475-  31 1.75  34 1.80  33 1.84  27 1.91  28 1.99  30 2.01   2 2.41  13 2.71
                            12 2.76  11 2.78   5 2.79  12 2.83  11 2.85  13 2.88   3 2.94   6 2.95
  15  0.332  0.157  0.850-  37 1.78  36 1.84  35 1.84  42 1.89  39 1.91  41 1.93   1 2.52  18 2.76
                            17 2.76   3 2.77  16 2.77  16 2.82  17 2.83  18 2.84   4 3.06   5 3.07
  16  0.317  0.654  0.852-  36 1.84  35 1.87  38 1.91  40 1.97  42 2.03  41 2.05   1 2.57  17 2.76
                            15 2.77  18 2.77  18 2.82  15 2.82   3 2.84  17 2.85   4 2.93   6 2.99
  17  0.827  0.160  0.847-  39 1.87  38 1.89  35 1.90  37 1.90  41 1.93  40 2.01   1 2.71   6 2.73
                            16 2.76  15 2.76  18 2.78  18 2.81   3 2.82  15 2.83  16 2.85   5 2.94
  18  0.820  0.653  0.854-  37 1.83  36 1.87  38 1.95  39 1.95  40 1.99  42 2.01  15 2.76  16 2.77
                            17 2.78  17 2.81  16 2.82  15 2.84   5 2.92   6 2.93   4 3.12
  19  0.004  0.009  0.245-   7 1.85   8 1.88  10 1.94   2 2.03
  20  0.006  0.508  0.245-   9 1.83   8 1.91   7 1.96   2 2.03
  21  0.513  0.015  0.247-   8 1.88  10 1.92   9 1.94
  22  0.518  0.518  0.247-   2 1.83  10 1.84   9 1.91   7 1.96
  23  0.346  0.178  0.095-   7 1.82   9 1.87   8 1.88   1 1.89
  24  0.330  0.677  0.090-   1 1.83  10 1.84   8 1.87   7 1.95
  25  0.840  0.188  0.095-   9 1.80   7 1.83  10 1.96   1 2.07
  26  0.842  0.669  0.087-   9 1.84   8 1.93  10 1.94
  27  0.358  0.196  0.570-  14 1.91   5 1.92  11 1.96   3 1.97  13 2.08   4 2.17
  28  0.346  0.683  0.568-   4 1.78  13 1.91  12 1.99  14 1.99   6 2.02   3 2.20
  29  0.835  0.183  0.571-   5 1.88  12 1.94  11 1.95  13 1.97   6 1.97   3 2.03
  30  0.833  0.660  0.566-   5 1.83  11 1.89  12 1.90   4 1.93  14 2.01   6 2.10
  31  0.168  0.324  0.412-  14 1.75  11 1.89  12 1.92
  32  0.175  0.847  0.411-  13 1.82  12 1.89  11 1.91   2 1.96
  33  0.662  0.332  0.412-  14 1.84  13 1.84  12 1.85   2 1.90
  34  0.666  0.821  0.404-   2 1.73  14 1.80  13 1.86  11 1.99
  35  0.167  0.319  0.923-  15 1.84  16 1.87  17 1.90
  36  0.165  0.831  0.923-  16 1.84  15 1.84   1 1.84  18 1.87
  37  0.650  0.321  0.922-  15 1.78  18 1.83  17 1.90   1 1.97
  38  0.656  0.838  0.930-  17 1.89  16 1.91   1 1.91  18 1.95
  39  0.991  0.992  0.773-  17 1.87  15 1.91  18 1.95   6 2.02   3 2.06   4 2.37
  40  0.990  0.500  0.758-   5 1.95  16 1.97  18 1.99  17 2.01   4 2.02   3 2.09
  41  0.496  0.999  0.760-  15 1.93  17 1.93   6 2.01  16 2.05   4 2.11   5 2.22
  42  0.480  0.472  0.762-  15 1.89   3 1.91  18 2.01  16 2.03   5 2.12   6 2.27
 

IMPORTANT INFORMATION: All symmetrisations will be switched off!
NOSYMM: (Re-)initialisation of all symmetry stuff for point group C_1.

 
 

Automatic generation of k-mesh.
 generate k-points for:    6    6    2
Space group operators:
 irot       det(A)        alpha          n_x          n_y          n_z        tau_x        tau_y        tau_z
    1     1.000000     0.000000     1.000000     0.000000     0.000000     0.000000     0.000000     0.000000
 
 Subroutine IBZKPT returns following result:
 ===========================================
 
 Found     36 irreducible k-points:
 
 Following reciprocal coordinates:
            Coordinates               Weight
  0.083333  0.083333  0.250000      2.000000
  0.250000  0.083333  0.250000      2.000000
  0.416667  0.083333  0.250000      2.000000
 -0.416667  0.083333  0.250000      2.000000
 -0.250000  0.083333  0.250000      2.000000
 -0.083333  0.083333  0.250000      2.000000
  0.083333  0.250000  0.250000      2.000000
  0.250000  0.250000  0.250000      2.000000
  0.416667  0.250000  0.250000      2.000000
 -0.416667  0.250000  0.250000      2.000000
 -0.250000  0.250000  0.250000      2.000000
 -0.083333  0.250000  0.250000      2.000000
  0.083333  0.416667  0.250000      2.000000
  0.250000  0.416667  0.250000      2.000000
  0.416667  0.416667  0.250000      2.000000
 -0.416667  0.416667  0.250000      2.000000
 -0.250000  0.416667  0.250000      2.000000
 -0.083333  0.416667  0.250000      2.000000
  0.083333 -0.416667  0.250000      2.000000
  0.250000 -0.416667  0.250000      2.000000
  0.416667 -0.416667  0.250000      2.000000
 -0.416667 -0.416667  0.250000      2.000000
 -0.250000 -0.416667  0.250000      2.000000
 -0.083333 -0.416667  0.250000      2.000000
  0.083333 -0.250000  0.250000      2.000000
  0.250000 -0.250000  0.250000      2.000000
  0.416667 -0.250000  0.250000      2.000000
 -0.416667 -0.250000  0.250000      2.000000
 -0.250000 -0.250000  0.250000      2.000000
 -0.083333 -0.250000  0.250000      2.000000
  0.083333 -0.083333  0.250000      2.000000
  0.250000 -0.083333  0.250000      2.000000
  0.416667 -0.083333  0.250000      2.000000
 -0.416667 -0.083333  0.250000      2.000000
 -0.250000 -0.083333  0.250000      2.000000
 -0.083333 -0.083333  0.250000      2.000000
 
 Following cartesian coordinates:
            Coordinates               Weight
  0.014911  0.025752  0.020078      2.000000
  0.044734  0.042860  0.020599      2.000000
  0.074556  0.059967  0.021121      2.000000
 -0.074556 -0.025572  0.018513      2.000000
 -0.044734 -0.008464  0.019035      2.000000
 -0.014911  0.008644  0.019556      2.000000
  0.014911  0.060147  0.020361      2.000000
  0.044734  0.077255  0.020882      2.000000
  0.074556  0.094363  0.021404      2.000000
 -0.074556  0.008824  0.018796      2.000000
 -0.044734  0.025931  0.019318      2.000000
 -0.014911  0.043039  0.019839      2.000000
  0.014911  0.094543  0.020644      2.000000
  0.044734  0.111650  0.021165      2.000000
  0.074556  0.128758  0.021687      2.000000
 -0.074556  0.043219  0.019079      2.000000
 -0.044734  0.060327  0.019600      2.000000
 -0.014911  0.077435  0.020122      2.000000
  0.014911 -0.077435  0.019229      2.000000
  0.044734 -0.060327  0.019751      2.000000
  0.074556 -0.043219  0.020272      2.000000
 -0.074556 -0.128758  0.017664      2.000000
 -0.044734 -0.111650  0.018186      2.000000
 -0.014911 -0.094543  0.018707      2.000000
  0.014911 -0.043039  0.019512      2.000000
  0.044734 -0.025931  0.020034      2.000000
  0.074556 -0.008824  0.020555      2.000000
 -0.074556 -0.094363  0.017947      2.000000
 -0.044734 -0.077255  0.018469      2.000000
 -0.014911 -0.060147  0.018990      2.000000
  0.014911 -0.008644  0.019795      2.000000
  0.044734  0.008464  0.020316      2.000000
  0.074556  0.025572  0.020838      2.000000
 -0.074556 -0.059967  0.018230      2.000000
 -0.044734 -0.042860  0.018752      2.000000
 -0.014911 -0.025752  0.019273      2.000000
 


--------------------------------------------------------------------------------------------------------




 Dimension of arrays:
   k-points           NKPTS =     36   k-points in BZ     NKDIM =     36   number of bands    NBANDS=    160
   number of dos      NEDOS =    301   number of ions     NIONS =     42
   non local maximal  LDIM  =      6   non local SUM 2l+1 LMDIM =     18
   total plane-waves  NPLWV = 103680
   max r-space proj   IRMAX =   2866   max aug-charges    IRDMAX=  12082
   dimension x,y,z NGX =    36 NGY =   36 NGZ =   80
   dimension x,y,z NGXF=    72 NGYF=   72 NGZF=  160
   support grid    NGXF=    72 NGYF=   72 NGZF=  160
   ions per type =               6  12  24
   NGX,Y,Z   is equivalent  to a cutoff of  10.71, 10.71, 10.47 a.u.
   NGXF,Y,Z  is equivalent  to a cutoff of  21.42, 21.43, 20.93 a.u.

 SYSTEM =  LiCoO2                                  
 POSCAR =  Li6 Co12 O24                            

 Startparameter for this run:
   NWRITE =      2    write-flag & timer
   PREC   = normal    normal or accurate (medium, high low for compatibility)
   ISTART =      0    job   : 0-new  1-cont  2-samecut
   ICHARG =      2    charge: 1-file 2-atom 10-const
   ISPIN  =      2    spin polarized calculation?
   LNONCOLLINEAR =      F non collinear calculations
   LSORBIT =      F    spin-orbit coupling
   INIWAV =      1    electr: 0-lowe 1-rand  2-diag
   LASPH  =      F    aspherical Exc in radial PAW
   METAGGA=      F    non-selfconsistent MetaGGA calc.

 Electronic Relaxation 1
   ENCUT  =  600.0 eV  44.10 Ry    6.64 a.u.  11.16 11.16 25.38*2*pi/ulx,y,z
   ENINI  =  600.0     initial cutoff
   ENAUG  =  605.4 eV  augmentation charge cutoff
   NELM   =    600;   NELMIN=  2; NELMDL= -5     # of ELM steps 
   EDIFF  = 0.1E-05   stopping-criterion for ELM
   LREAL  =      T    real-space projection
   NLSPLINE    = F    spline interpolate recip. space projectors
   LCOMPAT=      F    compatible to vasp.4.4
   GGA_COMPAT  = T    GGA compatible to vasp.4.4-vasp.4.6
   LMAXPAW     = -100 max onsite density
   LMAXMIX     =    2 max onsite mixed and CHGCAR
   VOSKOWN=      0    Vosko Wilk Nusair interpolation
   ROPT   =   -0.00050  -0.00050  -0.00050
 Ionic relaxation
   EDIFFG = 0.1E-04   stopping-criterion for IOM
   NSW    =      0    number of steps for IOM
   NBLOCK =      1;   KBLOCK =      1    inner block; outer block 
   IBRION =     -1    ionic relax: 0-MD 1-quasi-New 2-CG
   NFREE  =      0    steps in history (QN), initial steepest desc. (CG)
   ISIF   =      2    stress and relaxation
   IWAVPR =     10    prediction:  0-non 1-charg 2-wave 3-comb
   ISYM   =      0    0-nonsym 1-usesym 2-fastsym
   LCORR  =      T    Harris-Foulkes like correction to forces

   POTIM  = 0.5000    time-step for ionic-motion
   TEIN   =    0.0    initial temperature
   TEBEG  =    0.0;   TEEND  =   0.0 temperature during run
   SMASS  =  -3.00    Nose mass-parameter (am)
   estimated Nose-frequenzy (Omega)   =  0.10E-29 period in steps =****** mass=  -0.714E-27a.u.
   SCALEE = 1.0000    scale energy and forces
   NPACO  =    256;   APACO  = 16.0  distance and # of slots for P.C.
   PSTRESS=    0.0 pullay stress

  Mass of Ions in am
   POMASS =   7.01 58.93 16.00
  Ionic Valenz
   ZVAL   =   1.00  9.00  6.00
  Atomic Wigner-Seitz radii
   RWIGS  =  -1.00 -1.00 -1.00
  virtual crystal weights 
   VCA    =   1.00  1.00  1.00
   NELECT =     258.0000    total number of electrons
   NUPDOWN=       6.0000    fix difference up-down

 DOS related values:
   EMIN   =  10.00;   EMAX   =-10.00  energy-range for DOS
   EFERMI =   0.00
   ISMEAR =     0;   SIGMA  =   0.05  broadening in eV -4-tet -1-fermi 0-gaus

 Electronic relaxation 2 (details)
   IALGO  =     58    algorithm
   LDIAG  =      T    sub-space diagonalisation (order eigenvalues)
   LSUBROT=      F    optimize rotation matrix (better conditioning)
   TURBO    =      0    0=normal 1=particle mesh
   IRESTART =      0    0=no restart 2=restart with 2 vectors
   NREBOOT  =      0    no. of reboots
   NMIN     =      0    reboot dimension
   EREF     =   0.00    reference energy to select bands
   IMIX   =      4    mixing-type and parameters
     AMIX     =   0.40;   BMIX     =  1.00
     AMIX_MAG =   1.60;   BMIX_MAG =  1.00
     AMIN     =   0.10
     WC   =   100.;   INIMIX=   1;  MIXPRE=   1;  MAXMIX= -45

 Intra band minimization:
   WEIMIN = 0.0000     energy-eigenvalue tresh-hold
   EBREAK =  0.16E-08  absolut break condition
   DEPER  =   0.30     relativ break condition  

   TIME   =   0.40     timestep for ELM

  volume/ion in A,a.u.               =       8.19        55.29
  Fermi-wavevector in a.u.,A,eV,Ry     =   1.487278  2.810547 30.096014  2.211995
  Thomas-Fermi vector in A             =   2.600458
 
 Write flags
   LWAVE        =      F    write WAVECAR
   LDOWNSAMPLE  =      F    k-point downsampling of WAVECAR
   LCHARG       =      F    write CHGCAR
   LVTOT        =      F    write LOCPOT, total local potential
   LVHAR        =      F    write LOCPOT, Hartree potential only
   LELF         =      F    write electronic localiz. function (ELF)
   LORBIT       =     11    0 simple, 1 ext, 2 COOP (PROOUT), +10 PAW based schemes


 Dipole corrections
   LMONO  =      F    monopole corrections only (constant potential shift)
   LDIPOL =      F    correct potential (dipole corrections)
   IDIPOL =      0    1-x, 2-y, 3-z, 4-all directions 
   EPSILON=  1.0000000 bulk dielectric constant

 LDA+U is selected, type is set to LDAUTYPE =  2
   angular momentum for each species LDAUL =    -1    2   -1
   U (eV)           for each species LDAUU =   0.0  5.1  0.0
   J (eV)           for each species LDAUJ =   0.0  0.0  0.0
 Exchange correlation treatment:
   GGA     =    --    GGA type
   LEXCH   =     8    internal setting for exchange type
   VOSKOWN=      0    Vosko Wilk Nusair interpolation
   LHFCALC =     F    Hartree Fock is set to
   LHFONE  =     F    Hartree Fock one center treatment
   AEXX    =    0.0000 exact exchange contribution

 Linear response parameters
   LEPSILON=     F    determine dielectric tensor
   LRPA    =     F    only Hartree local field effects (RPA)
   LNABLA  =     F    use nabla operator in PAW spheres
   LVEL    =     F    velocity operator in full k-point grid
   LINTERFAST=   F  fast interpolation
   KINTER  =     0    interpolate to denser k-point grid
   CSHIFT  =0.1000    complex shift for real part using Kramers Kronig
   OMEGAMAX=  -1.0    maximum frequency
   DEG_THRESHOLD= 0.2000000E-02 threshold for treating states as degnerate
   RTIME   =   -0.100 relaxation time in fs
  (WPLASMAI=    0.000 imaginary part of plasma frequency in eV, 0.658/RTIME)
   DFIELD  = 0.0000000 0.0000000 0.0000000 field for delta impulse in time
 
 Orbital magnetization related:
   ORBITALMAG=     F  switch on orbital magnetization
   LCHIMAG   =     F  perturbation theory with respect to B field
   DQ        =  0.001000  dq finite difference perturbation B field
   LLRAUG    =     F  two centre corrections for induced B field



--------------------------------------------------------------------------------------------------------


 Static calculation
 charge density and potential will be updated during run
 spin polarized calculation
 Conjugate gradient for all bands (Freysoldt, et al. PRB 79, 241103 (2009))
 preconditioned conjugated gradient                                        
 perform sub-space diagonalisation
    before iterative eigenvector-optimisation
 modified Broyden-mixing scheme, WC =      100.0
 initial mixing is a Kerker type mixing with AMIX =  0.4000 and BMIX =      1.0000
 Hartree-type preconditioning will be used
 using additional bands           31
 real space projection scheme for non local part
 use partial core corrections
 no Harris-corrections to forces 
 use gradient corrections 
 use of overlap-Matrix (Vanderbilt PP)
 Gauss-broadening in eV      SIGMA  =   0.05


--------------------------------------------------------------------------------------------------------


  energy-cutoff  :      600.00
  volume of cell :      344.09
      direct lattice vectors                 reciprocal lattice vectors
     5.588651657  0.000000000  0.000000000     0.178934037  0.102647160  0.003129537
    -2.779724836  4.845602989  0.000000000     0.000000000  0.206372665  0.001697541
    -0.162272453 -0.104515679 12.706128120     0.000000000  0.000000000  0.078702181

  length of vectors
     5.588651657  5.586299177 12.707594095     0.206309532  0.206379646  0.078702181


 
 k-points in units of 2pi/SCALE and weight: read from INCAR                         
   0.01491117  0.02575165  0.02007780       0.028
   0.04473351  0.04285951  0.02059939       0.028
   0.07455585  0.05996737  0.02112098       0.028
  -0.07455585 -0.02557193  0.01851303       0.028
  -0.04473351 -0.00846407  0.01903462       0.028
  -0.01491117  0.00864379  0.01955621       0.028
   0.01491117  0.06014710  0.02036073       0.028
   0.04473351  0.07725496  0.02088232       0.028
   0.07455585  0.09436282  0.02140390       0.028
  -0.07455585  0.00882352  0.01879596       0.028
  -0.04473351  0.02593138  0.01931755       0.028
  -0.01491117  0.04303924  0.01983914       0.028
   0.01491117  0.09454254  0.02064365       0.028
   0.04473351  0.11165040  0.02116524       0.028
   0.07455585  0.12875826  0.02168683       0.028
  -0.07455585  0.04321896  0.01907888       0.028
  -0.04473351  0.06032682  0.01960047       0.028
  -0.01491117  0.07743468  0.02012206       0.028
   0.01491117 -0.07743468  0.01922903       0.028
   0.04473351 -0.06032682  0.01975062       0.028
   0.07455585 -0.04321896  0.02027221       0.028
  -0.07455585 -0.12875826  0.01766426       0.028
  -0.04473351 -0.11165040  0.01818585       0.028
  -0.01491117 -0.09454254  0.01870744       0.028
   0.01491117 -0.04303924  0.01951195       0.028
   0.04473351 -0.02593138  0.02003354       0.028
   0.07455585 -0.00882352  0.02055513       0.028
  -0.07455585 -0.09436282  0.01794719       0.028
  -0.04473351 -0.07725496  0.01846878       0.028
  -0.01491117 -0.06014710  0.01899037       0.028
   0.01491117 -0.00864379  0.01979488       0.028
   0.04473351  0.00846407  0.02031647       0.028
   0.07455585  0.02557193  0.02083806       0.028
  -0.07455585 -0.05996737  0.01823011       0.028
  -0.04473351 -0.04285951  0.01875170       0.028
  -0.01491117 -0.02575165  0.01927329       0.028
 
 k-points in reciprocal lattice and weights: read from INCAR                         
   0.08333333  0.08333333  0.25000000       0.028
   0.25000000  0.08333333  0.25000000       0.028
   0.41666667  0.08333333  0.25000000       0.028
  -0.41666667  0.08333333  0.25000000       0.028
  -0.25000000  0.08333333  0.25000000       0.028
  -0.08333333  0.08333333  0.25000000       0.028
   0.08333333  0.25000000  0.25000000       0.028
   0.25000000  0.25000000  0.25000000       0.028
   0.41666667  0.25000000  0.25000000       0.028
  -0.41666667  0.25000000  0.25000000       0.028
  -0.25000000  0.25000000  0.25000000       0.028
  -0.08333333  0.25000000  0.25000000       0.028
   0.08333333  0.41666667  0.25000000       0.028
   0.25000000  0.41666667  0.25000000       0.028
   0.41666667  0.41666667  0.25000000       0.028
  -0.41666667  0.41666667  0.25000000       0.028
  -0.25000000  0.41666667  0.25000000       0.028
  -0.08333333  0.41666667  0.25000000       0.028
   0.08333333 -0.41666667  0.25000000       0.028
   0.25000000 -0.41666667  0.25000000       0.028
   0.41666667 -0.41666667  0.25000000       0.028
  -0.41666667 -0.41666667  0.25000000       0.028
  -0.25000000 -0.41666667  0.25000000       0.028
  -0.08333333 -0.41666667  0.25000000       0.028
   0.08333333 -0.25000000  0.25000000       0.028
   0.25000000 -0.25000000  0.25000000       0.028
   0.41666667 -0.25000000  0.25000000       0.028
  -0.41666667 -0.25000000  0.25000000       0.028
  -0.25000000 -0.25000000  0.25000000       0.028
  -0.08333333 -0.25000000  0.25000000       0.028
   0.08333333 -0.08333333  0.25000000       0.028
   0.25000000 -0.08333333  0.25000000       0.028
   0.41666667 -0.08333333  0.25000000       0.028
  -0.41666667 -0.08333333  0.25000000       0.028
  -0.25000000 -0.08333333  0.25000000       0.028
  -0.08333333 -0.08333333  0.25000000       0.028
 
 position of ions in fractional coordinates (direct lattice) 
   0.47337772  0.98808250  0.00952533
   0.81977670  0.66715203  0.33491397
   0.16696315  0.31499840  0.66905981
   0.16829631  0.80195726  0.65001151
   0.69201642  0.36051250  0.65330363
   0.68271361  0.85919389  0.66422829
   0.17116383  0.32854360  0.16573499
   0.17783629  0.84756188  0.17067748
   0.68612156  0.35438413  0.16671956
   0.65889562  0.82979689  0.16491412
   0.00326356  0.00184835  0.49491471
   0.00002644  0.50579426  0.48220668
   0.50921226  0.99451871  0.47784816
   0.49103323  0.50035438  0.47522660
   0.33175658  0.15694855  0.84973251
   0.31703483  0.65438438  0.85170792
   0.82693337  0.15988264  0.84674182
   0.82037887  0.65319454  0.85443103
   0.00417684  0.00923531  0.24465832
   0.00584439  0.50805256  0.24542645
   0.51263431  0.01486706  0.24704299
   0.51802395  0.51775632  0.24696272
   0.34641928  0.17845512  0.09484400
   0.32998524  0.67660459  0.09039103
   0.84020978  0.18837553  0.09513441
   0.84247391  0.66913032  0.08735313
   0.35778251  0.19637655  0.57008475
   0.34561991  0.68310211  0.56844777
   0.83528275  0.18283001  0.57093476
   0.83256120  0.66042886  0.56648021
   0.16832911  0.32423308  0.41223260
   0.17493092  0.84678874  0.41096467
   0.66244833  0.33180234  0.41192251
   0.66569491  0.82053575  0.40415538
   0.16662914  0.31935022  0.92287047
   0.16547968  0.83146997  0.92295701
   0.64958890  0.32054878  0.92208343
   0.65552954  0.83828075  0.92977264
   0.99057928  0.99187662  0.77251779
   0.99049772  0.50035017  0.75805235
   0.49560132  0.99946157  0.75992546
   0.47993634  0.47154292  0.76246754
 
 position of ions in cartesian coordinates  (Angst):
  -0.10260000  4.78685999  0.12103000
   2.67260003  3.19775009  4.25545979
  -0.05108000  1.45642996  8.50115967
  -1.39415002  3.81803012  8.25912952
   2.75929999  1.67861998  8.30095959
   1.31933999  4.09389019  8.43976974
   0.01642000  1.57466996  2.10584998
  -1.38981998  4.08910990  2.16864991
   2.82235003  1.69977999  2.11836004
   1.34897006  4.00363016  2.09541988
  -0.06721000 -0.04277000  6.28844976
  -1.48406994  2.40048003  6.12697983
   0.00378000  4.76910019  6.07159996
   1.27625000  2.37485003  6.03829002
   1.27990997  0.67170000 10.79681015
  -0.18542001  3.08187008 10.82190990
   4.03960991  0.68623000 10.75881004
   2.63046002  3.07581997 10.85651016
  -0.04203000  0.01918000  3.10865998
  -1.41940999  2.43617010  3.11841989
   2.78351998  0.04622000  3.13895988
   1.41576004  2.48303008  3.13793993
   1.42456996  0.85481000  1.20510006
  -0.05127000  3.26910996  1.14851999
   4.15656996  0.90284997  1.20878994
   2.83412004  3.23321009  1.10992002
   1.36114001  0.89197999  7.24356985
  -0.05953000  3.25062990  7.22277021
   4.06724024  0.82625002  7.25437021
   2.72515988  3.14096999  7.19777012
  -0.02744000  1.52802002  5.23788023
  -1.44289994  4.06024981  5.22176981
   2.71303010  1.56473005  5.23394012
   1.37389004  3.93374991  5.13525009
  -0.10623000  1.45098996 11.72611046
  -1.53621995  3.93250990 11.72721004
   2.58965993  1.45687997 11.71611023
   1.18245995  3.96479988 11.81381035
   2.65350008  4.72550011  9.81571007
   4.02169991  2.34526992  9.63191032
  -0.13180000  4.76356983  9.65571022
   1.24770999  2.20521998  9.68801022
 


--------------------------------------------------------------------------------------------------------


 k-point  1 :   0.0833 0.0833 0.2500  plane waves:   11457
 k-point  2 :   0.2500 0.0833 0.2500  plane waves:   11467
 k-point  3 :   0.4167 0.0833 0.2500  plane waves:   11488
 k-point  4 :  -0.4167 0.0833 0.2500  plane waves:   11491
 k-point  5 :  -0.2500 0.0833 0.2500  plane waves:   11475
 k-point  6 :  -0.0833 0.0833 0.2500  plane waves:   11488
 k-point  7 :   0.0833 0.2500 0.2500  plane waves:   11462
 k-point  8 :   0.2500 0.2500 0.2500  plane waves:   11500
 k-point  9 :   0.4167 0.2500 0.2500  plane waves:   11488
 k-point 10 :  -0.4167 0.2500 0.2500  plane waves:   11479
 k-point 11 :  -0.2500 0.2500 0.2500  plane waves:   11478
 k-point 12 :  -0.0833 0.2500 0.2500  plane waves:   11467
 k-point 13 :   0.0833 0.4167 0.2500  plane waves:   11482
 k-point 14 :   0.2500 0.4167 0.2500  plane waves:   11490
 k-point 15 :   0.4167 0.4167 0.2500  plane waves:   11499
 k-point 16 :  -0.4167 0.4167 0.2500  plane waves:   11490
 k-point 17 :  -0.2500 0.4167 0.2500  plane waves:   11492
 k-point 18 :  -0.0833 0.4167 0.2500  plane waves:   11498
 k-point 19 :   0.0833-0.4167 0.2500  plane waves:   11474
 k-point 20 :   0.2500-0.4167 0.2500  plane waves:   11490
 k-point 21 :   0.4167-0.4167 0.2500  plane waves:   11494
 k-point 22 :  -0.4167-0.4167 0.2500  plane waves:   11488
 k-point 23 :  -0.2500-0.4167 0.2500  plane waves:   11498
 k-point 24 :  -0.0833-0.4167 0.2500  plane waves:   11481
 k-point 25 :   0.0833-0.2500 0.2500  plane waves:   11474
 k-point 26 :   0.2500-0.2500 0.2500  plane waves:   11466
 k-point 27 :   0.4167-0.2500 0.2500  plane waves:   11484
 k-point 28 :  -0.4167-0.2500 0.2500  plane waves:   11500
 k-point 29 :  -0.2500-0.2500 0.2500  plane waves:   11498
 k-point 30 :  -0.0833-0.2500 0.2500  plane waves:   11484
 k-point 31 :   0.0833-0.0833 0.2500  plane waves:   11489
 k-point 32 :   0.2500-0.0833 0.2500  plane waves:   11466
 k-point 33 :   0.4167-0.0833 0.2500  plane waves:   11490
 k-point 34 :  -0.4167-0.0833 0.2500  plane waves:   11482
 k-point 35 :  -0.2500-0.0833 0.2500  plane waves:   11475
 k-point 36 :  -0.0833-0.0833 0.2500  plane waves:   11492

 maximum and minimum number of plane-waves per node :      2902     2842

 maximum number of plane-waves:     11500
 maximum index in each direction: 
   IXMAX=   11   IYMAX=   11   IZMAX=   25
   IXMIN=  -11   IYMIN=  -11   IZMIN=  -25


 real space projection operators:
  total allocation   :       7654.87 KBytes
  max/ min on nodes  :       1919.38       1906.87


 parallel 3D FFT for wavefunctions:
    minimum data exchange during FFTs selected (reduces bandwidth)
 parallel 3D FFT for charge:
    minimum data exchange during FFTs selected (reduces bandwidth)


 total amount of memory used by VASP MPI-rank0   143746. kBytes
=======================================================================

   base      :      30000. kBytes
   nonlr-proj:       4369. kBytes
   fftplans  :       1502. kBytes
   grid      :       4132. kBytes
   one-center:        342. kBytes
   wavefun   :     103401. kBytes
 
     INWAV:  cpu time    0.0000: real time    0.0003
 Broyden mixing: mesh for mixing (old mesh)
   NGX = 23   NGY = 23   NGZ = 51
  (NGX  = 72   NGY  = 72   NGZ  =160)
  gives a total of  26979 points

 initial charge density was supplied:
 charge density of overlapping atoms calculated
 number of electron     258.0000000 magnetization       6.0000000
 keeping initial charge density in first step


--------------------------------------------------------------------------------------------------------


 Maximum index for non-local projection operator          696
 Maximum index for augmentation-charges          963 (set IRDMAX)


--------------------------------------------------------------------------------------------------------


 First call to EWALD:  gamma=   0.253
 Maximum number of real-space cells 4x 4x 2
 Maximum number of reciprocal cells 2x 2x 5

    FEWALD:  cpu time    0.0043: real time    0.0043


--------------------------------------- Iteration      1(   1)  ---------------------------------------


    POTLOK:  cpu time    0.0556: real time    0.0614
    SETDIJ:  cpu time    0.0186: real time    0.0186
    TRIAL :  cpu time   20.9102: real time   21.0295
    CORREC:  cpu time    0.0045: real time    0.0045
    --------------------------------------------
      LOOP:  cpu time   21.1401: real time   21.2663

 eigenvalue-minimisations  : 23040
 total energy-change (2. order) : 0.3528520E+04  (-0.1404074E+05)
 number of electron     258.0000000 magnetization       6.0000000
 augmentation part      258.0000000 magnetization       6.0000000

 Free energy of the ion-electron system (eV)
  ---------------------------------------------------
  alpha Z        PSCENC =       852.01375954
  Ewald energy   TEWEN  =    -15926.64898186
  -Hartree energ DENC   =     -5568.97545313
  -exchange      EXHF   =         0.00000000
  -V(xc)+E(xc)   XCENC  =       847.34760634
  PAW double counting   =     17015.18481625   -17491.61297812
  entropy T*S    EENTRO =        -0.00665073
  eigenvalues    EBANDS =      3632.34654689
  atomic energy  EATOM  =     20168.87094289
  ---------------------------------------------------
  free energy    TOTEN  =      3528.51960807 eV

  energy without entropy =     3528.52625879  energy(sigma->0) =     3528.52293343


--------------------------------------------------------------------------------------------------------




--------------------------------------- Iteration      1(   2)  ---------------------------------------


    TRIAL :  cpu time   21.6366: real time   21.6738
    CORREC:  cpu time    0.0045: real time    0.0045
    --------------------------------------------
      LOOP:  cpu time   21.6416: real time   21.6787

 eigenvalue-minimisations  : 24576
 total energy-change (2. order) :-0.3128955E+04  (-0.2887192E+04)
 number of electron     258.0000000 magnetization       6.0000000
 augmentation part      258.0000000 magnetization       6.0000000

 Free energy of the ion-electron system (eV)
  ---------------------------------------------------
  alpha Z        PSCENC =       852.01375954
  Ewald energy   TEWEN  =    -15926.64898186
  -Hartree energ DENC   =     -5568.97545313
  -exchange      EXHF   =         0.00000000
  -V(xc)+E(xc)   XCENC  =       847.34760634
  PAW double counting   =     17015.18481625   -17491.61297812
  entropy T*S    EENTRO =        -0.02078684
  eigenvalues    EBANDS =       503.40571453
  atomic energy  EATOM  =     20168.87094289
  ---------------------------------------------------
  free energy    TOTEN  =       399.56463960 eV

  energy without entropy =      399.58542644  energy(sigma->0) =      399.57503302


--------------------------------------------------------------------------------------------------------




--------------------------------------- Iteration      1(   3)  ---------------------------------------


    TRIAL :  cpu time   22.0849: real time   22.1348
    CORREC:  cpu time    0.0046: real time    0.0046
    --------------------------------------------
      LOOP:  cpu time   22.0933: real time   22.1433

 eigenvalue-minimisations  : 24976
 total energy-change (2. order) :-0.6214078E+03  (-0.5559726E+03)
 number of electron     258.0000000 magnetization       6.0000000
 augmentation part      258.0000000 magnetization       6.0000000

 Free energy of the ion-electron system (eV)
  ---------------------------------------------------
  alpha Z        PSCENC =       852.01375954
  Ewald energy   TEWEN  =    -15926.64898186
  -Hartree energ DENC   =     -5568.97545313
  -exchange      EXHF   =         0.00000000
  -V(xc)+E(xc)   XCENC  =       847.34760634
  PAW double counting   =     17015.18481625   -17491.61297812
  entropy T*S    EENTRO =        -0.02790459
  eigenvalues    EBANDS =      -117.99497190
  atomic energy  EATOM  =     20168.87094289
  ---------------------------------------------------
  free energy    TOTEN  =      -221.84316457 eV

  energy without entropy =     -221.81525999  energy(sigma->0) =     -221.82921228


--------------------------------------------------------------------------------------------------------




--------------------------------------- Iteration      1(   4)  ---------------------------------------


    TRIAL :  cpu time   23.2505: real time   23.2887
    CORREC:  cpu time    0.0080: real time    0.0080
    --------------------------------------------
      LOOP:  cpu time   23.2614: real time   23.2995

 eigenvalue-minimisations  : 25328
 total energy-change (2. order) :-0.4995288E+02  (-0.4897906E+02)
 number of electron     258.0000000 magnetization       6.0000000
 augmentation part      258.0000000 magnetization       6.0000000

 Free energy of the ion-electron system (eV)
  ---------------------------------------------------
  alpha Z        PSCENC =       852.01375954
  Ewald energy   TEWEN  =    -15926.64898186
  -Hartree energ DENC   =     -5568.97545313
  -exchange      EXHF   =         0.00000000
  -V(xc)+E(xc)   XCENC  =       847.34760634
  PAW double counting   =     17015.18481625   -17491.61297812
  entropy T*S    EENTRO =        -0.02114403
  eigenvalues    EBANDS =      -167.95460841
  atomic energy  EATOM  =     20168.87094289
  ---------------------------------------------------
  free energy    TOTEN  =      -271.79604054 eV

  energy without entropy =     -271.77489650  energy(sigma->0) =     -271.78546852


--------------------------------------------------------------------------------------------------------




--------------------------------------- Iteration      1(   5)  ---------------------------------------


    TRIAL :  cpu time   25.2625: real time   25.3197
    CORREC:  cpu time    0.0045: real time    0.0045
    CHARGE:  cpu time    0.4099: real time    0.4102
    --------------------------------------------
      LOOP:  cpu time   25.6818: real time   25.7393

 eigenvalue-minimisations  : 28096
 total energy-change (2. order) :-0.1579409E+01  (-0.1577160E+01)
 number of electron     257.9999914 magnetization       5.9999991
 augmentation part       67.9388769 magnetization       4.3160714

 Free energy of the ion-electron system (eV)
  ---------------------------------------------------
  alpha Z        PSCENC =       852.01375954
  Ewald energy   TEWEN  =    -15926.64898186
  -Hartree energ DENC   =     -5568.97545313
  -exchange      EXHF   =         0.00000000
  -V(xc)+E(xc)   XCENC  =       847.34760634
  PAW double counting   =     17015.18481625   -17491.61297812
  entropy T*S    EENTRO =        -0.02121584
  eigenvalues    EBANDS =      -169.53394553
  atomic energy  EATOM  =     20168.87094289
  ---------------------------------------------------
  free energy    TOTEN  =      -273.37544946 eV

  energy without entropy =     -273.35423362  energy(sigma->0) =     -273.36484154


--------------------------------------------------------------------------------------------------------




--------------------------------------- Iteration      1(   6)  ---------------------------------------


    POTLOK:  cpu time    0.0411: real time    0.0411
    SETDIJ:  cpu time    0.0124: real time    0.0124
    TRIAL :  cpu time   12.3548: real time   12.3736
    CORREC:  cpu time    4.3549: real time    4.3600
    CHARGE:  cpu time    0.4057: real time    0.4060
    --------------------------------------------
      LOOP:  cpu time   17.1731: real time   17.1975

 eigenvalue-minimisations  :     0
 total energy-change (2. order) : 0.4082212E+03  (-0.2340758E+03)
 number of electron     257.9999909 magnetization       5.9999998
 augmentation part       70.4841901 magnetization       4.4373774

 Free energy of the ion-electron system (eV)
  ---------------------------------------------------
  alpha Z        PSCENC =       852.01375954
  Ewald energy   TEWEN  =    -15926.64898186
  -Hartree energ DENC   =     -5217.01251107
  -exchange      EXHF   =         0.00000000
  -V(xc)+E(xc)   XCENC  =       880.75471562
  PAW double counting   =     23883.05460228   -24089.55071598
  entropy T*S    EENTRO =        -0.04685231
  eigenvalues    EBANDS =      -416.61479703
  atomic energy  EATOM  =     20168.87094289
  ---------------------------------------------------
  free energy    TOTEN  =       134.84579855 eV

  energy without entropy =      134.89265086  energy(sigma->0) =      134.86922470


--------------------------------------------------------------------------------------------------------




--------------------------------------- Iteration      1(   7)  ---------------------------------------


    POTLOK:  cpu time    0.0425: real time    0.0425
    SETDIJ:  cpu time    0.0123: real time    0.0123
    TRIAL :  cpu time   12.1010: real time   12.1280
    CORREC:  cpu time    4.1830: real time    4.1925
    CHARGE:  cpu time    0.4001: real time    0.4008
    --------------------------------------------
      LOOP:  cpu time   16.7430: real time   16.7802

 eigenvalue-minimisations  :     0
 total energy-change (2. order) :-0.1331625E+03  (-0.4278408E+02)
 number of electron     257.9999911 magnetization       5.9999998
 augmentation part       71.5596457 magnetization       4.3760278

 Free energy of the ion-electron system (eV)
  ---------------------------------------------------
  alpha Z        PSCENC =       852.01375954
  Ewald energy   TEWEN  =    -15926.64898186
  -Hartree energ DENC   =     -5426.94874918
  -exchange      EXHF   =         0.00000000
  -V(xc)+E(xc)   XCENC  =       870.93714678
  PAW double counting   =     23857.34948058   -24162.95834112
  entropy T*S    EENTRO =        -0.05525531
  eigenvalues    EBANDS =      -230.88506115
  atomic energy  EATOM  =     20168.87094289
  ---------------------------------------------------
  free energy    TOTEN  =         1.68334416 eV

  energy without entropy =        1.73859947  energy(sigma->0) =        1.71097181


--------------------------------------------------------------------------------------------------------




--------------------------------------- Iteration      1(   8)  ---------------------------------------


    POTLOK:  cpu time    0.0398: real time    0.0399
    SETDIJ:  cpu time    0.0125: real time    0.0126
    TRIAL :  cpu time   12.0120: real time   12.0439
    CORREC:  cpu time    4.1977: real time    4.2070
    CHARGE:  cpu time    0.4047: real time    0.4055
    --------------------------------------------
      LOOP:  cpu time   16.6709: real time   16.7135

 eigenvalue-minimisations  :     0
 total energy-change (2. order) :-0.1011632E+03  (-0.6026049E+02)
 number of electron     257.9999920 magnetization       5.9999992
 augmentation part       72.6341495 magnetization       4.3806667

 Free energy of the ion-electron system (eV)
  ---------------------------------------------------
  alpha Z        PSCENC =       852.01375954
  Ewald energy   TEWEN  =    -15926.64898186
  -Hartree energ DENC   =     -5313.83308269
  -exchange      EXHF   =         0.00000000
  -V(xc)+E(xc)   XCENC  =       865.88241222
  PAW double counting   =     23808.89519982   -24154.05976311
  entropy T*S    EENTRO =        -0.02915145
  eigenvalues    EBANDS =      -400.54512987
  atomic energy  EATOM  =     20168.87094289
  ---------------------------------------------------
  free energy    TOTEN  =       -99.47989837 eV

  energy without entropy =      -99.45074692  energy(sigma->0) =      -99.46532265


--------------------------------------------------------------------------------------------------------




--------------------------------------- Iteration      1(   9)  ---------------------------------------


    POTLOK:  cpu time    0.0399: real time    0.0400
    SETDIJ:  cpu time    0.0124: real time    0.0124
    TRIAL :  cpu time   11.9611: real time   11.9914
    CORREC:  cpu time    4.1511: real time    4.1608
    CHARGE:  cpu time    0.3962: real time    0.3969
    --------------------------------------------
      LOOP:  cpu time   16.5648: real time   16.6055

 eigenvalue-minimisations  :     0
 total energy-change (2. order) :-0.1847234E+02  (-0.5461531E+02)
 number of electron     257.9999926 magnetization       5.9999992
 augmentation part       75.3382991 magnetization       4.2264990

 Free energy of the ion-electron system (eV)
  ---------------------------------------------------
  alpha Z        PSCENC =       852.01375954
  Ewald energy   TEWEN  =    -15926.64898186
  -Hartree energ DENC   =     -5227.65738332
  -exchange      EXHF   =         0.00000000
  -V(xc)+E(xc)   XCENC  =       863.74318833
  PAW double counting   =     23968.72768400   -24357.52850883
  entropy T*S    EENTRO =        -0.03168087
  eigenvalues    EBANDS =      -459.44378304
  atomic energy  EATOM  =     20168.87094289
  ---------------------------------------------------
  free energy    TOTEN  =      -117.95223375 eV

  energy without entropy =     -117.92055288  energy(sigma->0) =     -117.93639332


--------------------------------------------------------------------------------------------------------




--------------------------------------- Iteration      1(  10)  ---------------------------------------


    POTLOK:  cpu time    0.0402: real time    0.0403
    SETDIJ:  cpu time    0.0124: real time    0.0124
    TRIAL :  cpu time   11.9896: real time   12.0261
    CORREC:  cpu time    4.2261: real time    4.2415
    CHARGE:  cpu time    0.4004: real time    0.4010
    --------------------------------------------
      LOOP:  cpu time   16.6729: real time   16.7253

 eigenvalue-minimisations  :     0
 total energy-change (2. order) :-0.5036508E+02  (-0.5220842E+02)
 number of electron     257.9999924 magnetization       5.9999997
 augmentation part       77.1673656 magnetization       4.0684250

 Free energy of the ion-electron system (eV)
  ---------------------------------------------------
  alpha Z        PSCENC =       852.01375954
  Ewald energy   TEWEN  =    -15926.64898186
  -Hartree energ DENC   =     -5349.09400048
  -exchange      EXHF   =         0.00000000
  -V(xc)+E(xc)   XCENC  =       857.35314582
  PAW double counting   =     24410.34968382   -24913.61057529
  entropy T*S    EENTRO =        -0.02765344
  eigenvalues    EBANDS =      -267.51960902
  atomic energy  EATOM  =     20168.87094289
  ---------------------------------------------------
  free energy    TOTEN  =      -168.31731544 eV

  energy without entropy =     -168.28966200  energy(sigma->0) =     -168.30348872


--------------------------------------------------------------------------------------------------------




--------------------------------------- Iteration      1(  11)  ---------------------------------------


    POTLOK:  cpu time    0.0410: real time    0.0410
    SETDIJ:  cpu time    0.0117: real time    0.0122
    TRIAL :  cpu time   11.9028: real time   11.9502
    CORREC:  cpu time    4.2020: real time    4.2105
    CHARGE:  cpu time    0.4041: real time    0.4048
    --------------------------------------------
      LOOP:  cpu time   16.5656: real time   16.6229

 eigenvalue-minimisations  :     0
 total energy-change (2. order) :-0.2129568E+02  (-0.1193278E+02)
 number of electron     257.9999925 magnetization       5.9999997
 augmentation part       77.1946077 magnetization       3.9858137

 Free energy of the ion-electron system (eV)
  ---------------------------------------------------
  alpha Z        PSCENC =       852.01375954
  Ewald energy   TEWEN  =    -15926.64898186
  -Hartree energ DENC   =     -5523.83790064
  -exchange      EXHF   =         0.00000000
  -V(xc)+E(xc)   XCENC  =       853.18178762
  PAW double counting   =     24784.57127392   -25364.91057234
  entropy T*S    EENTRO =        -0.02389094
  eigenvalues    EBANDS =       -32.82565275
  atomic energy  EATOM  =     20168.87094289
  ---------------------------------------------------
  free energy    TOTEN  =      -189.61299706 eV

  energy without entropy =     -189.58910613  energy(sigma->0) =     -189.60105160


--------------------------------------------------------------------------------------------------------




--------------------------------------- Iteration      1(  12)  ---------------------------------------


    POTLOK:  cpu time    0.0398: real time    0.0399
    SETDIJ:  cpu time    0.0123: real time    0.0123
    TRIAL :  cpu time   12.0193: real time   12.0487
    CORREC:  cpu time    4.2924: real time    4.3008
    CHARGE:  cpu time    0.4031: real time    0.4036
    --------------------------------------------
      LOOP:  cpu time   16.7709: real time   16.8094

 eigenvalue-minimisations  :     0
 total energy-change (2. order) :-0.9807020E+01  (-0.1233876E+02)
 number of electron     257.9999925 magnetization       5.9999996
 augmentation part       75.6901864 magnetization       3.9968742

 Free energy of the ion-electron system (eV)
  ---------------------------------------------------
  alpha Z        PSCENC =       852.01375954
  Ewald energy   TEWEN  =    -15926.64898186
  -Hartree energ DENC   =     -5485.42985903
  -exchange      EXHF   =         0.00000000
  -V(xc)+E(xc)   XCENC  =       852.39179253
  PAW double counting   =     24695.65637461   -25270.77228291
  entropy T*S    EENTRO =        -0.02502557
  eigenvalues    EBANDS =       -85.47787151
  atomic energy  EATOM  =     20168.87094289
  ---------------------------------------------------
  free energy    TOTEN  =      -199.42001669 eV

  energy without entropy =     -199.39499112  energy(sigma->0) =     -199.40750391


--------------------------------------------------------------------------------------------------------




--------------------------------------- Iteration      1(  13)  ---------------------------------------


    POTLOK:  cpu time    0.0438: real time    0.0439
    SETDIJ:  cpu time    0.0123: real time    0.0124
    TRIAL :  cpu time   11.8149: real time   11.8452
    CORREC:  cpu time    4.3496: real time    4.3665
    CHARGE:  cpu time    0.4006: real time    0.4010
    --------------------------------------------
      LOOP:  cpu time   16.6253: real time   16.6731

 eigenvalue-minimisations  :     0
 total energy-change (2. order) :-0.1160938E+02  (-0.5997624E+01)
 number of electron     257.9999924 magnetization       5.9999997
 augmentation part       74.9957005 magnetization       3.9726904

 Free energy of the ion-electron system (eV)
  ---------------------------------------------------
  alpha Z        PSCENC =       852.01375954
  Ewald energy   TEWEN  =    -15926.64898186
  -Hartree energ DENC   =     -5467.14092661
  -exchange      EXHF   =         0.00000000
  -V(xc)+E(xc)   XCENC  =       852.64347770
  PAW double counting   =     24232.90688778   -24731.79261815
  entropy T*S    EENTRO =        -0.01972672
  eigenvalues    EBANDS =      -191.85691408
  atomic energy  EATOM  =     20168.87094289
  ---------------------------------------------------
  free energy    TOTEN  =      -211.02939836 eV

  energy without entropy =     -211.00967164  energy(sigma->0) =     -211.01953500


--------------------------------------------------------------------------------------------------------




--------------------------------------- Iteration      1(  14)  ---------------------------------------


    POTLOK:  cpu time    0.0397: real time    0.0398
    SETDIJ:  cpu time    0.0122: real time    0.0122
    TRIAL :  cpu time   12.0911: real time   12.1160
    CORREC:  cpu time    4.1585: real time    4.1658
    CHARGE:  cpu time    0.4022: real time    0.4028
    --------------------------------------------
      LOOP:  cpu time   16.7079: real time   16.7412

 eigenvalue-minimisations  :     0
 total energy-change (2. order) :-0.3310705E+01  (-0.1580654E+01)
 number of electron     257.9999924 magnetization       5.9999997
 augmentation part       75.0453347 magnetization       3.9346972

 Free energy of the ion-electron system (eV)
  ---------------------------------------------------
  alpha Z        PSCENC =       852.01375954
  Ewald energy   TEWEN  =    -15926.64898186
  -Hartree energ DENC   =     -5428.39966337
  -exchange      EXHF   =         0.00000000
  -V(xc)+E(xc)   XCENC  =       853.09793155
  PAW double counting   =     24065.29347440   -24526.53318670
  entropy T*S    EENTRO =        -0.01978637
  eigenvalues    EBANDS =      -272.01465270
  atomic energy  EATOM  =     20168.87094289
  ---------------------------------------------------
  free energy    TOTEN  =      -214.34010296 eV

  energy without entropy =     -214.32031659  energy(sigma->0) =     -214.33020978


--------------------------------------------------------------------------------------------------------




--------------------------------------- Iteration      1(  15)  ---------------------------------------


    POTLOK:  cpu time    0.0403: real time    0.0403
    SETDIJ:  cpu time    0.0123: real time    0.0123
    TRIAL :  cpu time   11.9882: real time   12.0107
    CORREC:  cpu time    4.1284: real time    4.1354
    CHARGE:  cpu time    0.3925: real time    0.3930
    --------------------------------------------
      LOOP:  cpu time   16.5658: real time   16.5959

 eigenvalue-minimisations  :     0
 total energy-change (2. order) :-0.1504172E+01  (-0.1415948E+01)
 number of electron     257.9999924 magnetization       5.9999997
 augmentation part       75.7024856 magnetization       3.8481713

 Free energy of the ion-electron system (eV)
  ---------------------------------------------------
  alpha Z        PSCENC =       852.01375954
  Ewald energy   TEWEN  =    -15926.64898186
  -Hartree energ DENC   =     -5445.08944359
  -exchange      EXHF   =         0.00000000
  -V(xc)+E(xc)   XCENC  =       853.61907767
  PAW double counting   =     24035.69020784   -24491.59683968
  entropy T*S    EENTRO =        -0.01868428
  eigenvalues    EBANDS =      -262.68321116
  atomic energy  EATOM  =     20168.87094289
  ---------------------------------------------------
  free energy    TOTEN  =      -215.84427472 eV

  energy without entropy =     -215.82559044  energy(sigma->0) =     -215.83493258


--------------------------------------------------------------------------------------------------------




--------------------------------------- Iteration      1(  16)  ---------------------------------------


    POTLOK:  cpu time    0.0413: real time    0.0414
    SETDIJ:  cpu time    0.0123: real time    0.0124
    TRIAL :  cpu time   11.9549: real time   11.9768
    CORREC:  cpu time    4.1987: real time    4.2060
    CHARGE:  cpu time    0.3989: real time    0.3994
    --------------------------------------------
      LOOP:  cpu time   16.6102: real time   16.6401

 eigenvalue-minimisations  :     0
 total energy-change (2. order) :-0.1402713E+01  (-0.4852775E+00)
 number of electron     257.9999924 magnetization       5.9999997
 augmentation part       75.9522645 magnetization       3.8076097

 Free energy of the ion-electron system (eV)
  ---------------------------------------------------
  alpha Z        PSCENC =       852.01375954
  Ewald energy   TEWEN  =    -15926.64898186
  -Hartree energ DENC   =     -5470.25071732
  -exchange      EXHF   =         0.00000000
  -V(xc)+E(xc)   XCENC  =       854.59663608
  PAW double counting   =     24060.84529177   -24531.60450887
  entropy T*S    EENTRO =        -0.01663423
  eigenvalues    EBANDS =      -225.05072565
  atomic energy  EATOM  =     20168.87094289
  ---------------------------------------------------
  free energy    TOTEN  =      -217.24698771 eV

  energy without entropy =     -217.23035348  energy(sigma->0) =     -217.23867060


--------------------------------------------------------------------------------------------------------




--------------------------------------- Iteration      1(  17)  ---------------------------------------


    POTLOK:  cpu time    0.0401: real time    0.0402
    SETDIJ:  cpu time    0.0124: real time    0.0124
    TRIAL :  cpu time   11.9855: real time   12.0170
    CORREC:  cpu time    4.2342: real time    4.2416
    CHARGE:  cpu time    0.4110: real time    0.4117
    --------------------------------------------
      LOOP:  cpu time   16.6874: real time   16.7270

 eigenvalue-minimisations  :     0
 total energy-change (2. order) :-0.4191846E+00  (-0.6017915E+00)
 number of electron     257.9999924 magnetization       5.9999997
 augmentation part       76.1229879 magnetization       3.7263937

 Free energy of the ion-electron system (eV)
  ---------------------------------------------------
  alpha Z        PSCENC =       852.01375954
  Ewald energy   TEWEN  =    -15926.64898186
  -Hartree energ DENC   =     -5495.68186364
  -exchange      EXHF   =         0.00000000
  -V(xc)+E(xc)   XCENC  =       854.98431511
  PAW double counting   =     24056.41807493   -24531.49328955
  entropy T*S    EENTRO =        -0.01594157
  eigenvalues    EBANDS =      -196.11249550
  atomic energy  EATOM  =     20168.87094289
  ---------------------------------------------------
  free energy    TOTEN  =      -217.66617231 eV

  energy without entropy =     -217.65023074  energy(sigma->0) =     -217.65820153


--------------------------------------------------------------------------------------------------------




--------------------------------------- Iteration      1(  18)  ---------------------------------------


    POTLOK:  cpu time    0.0426: real time    0.0426
    SETDIJ:  cpu time    0.0133: real time    0.0133
    TRIAL :  cpu time   12.2477: real time   12.2701
    CORREC:  cpu time    4.1502: real time    4.1570
    CHARGE:  cpu time    0.3980: real time    0.3985
    --------------------------------------------
      LOOP:  cpu time   16.8559: real time   16.8857

 eigenvalue-minimisations  :     0
 total energy-change (2. order) :-0.6058102E+00  (-0.1517466E+00)
 number of electron     257.9999924 magnetization       5.9999998
 augmentation part       76.0728564 magnetization       3.7060404

 Free energy of the ion-electron system (eV)
  ---------------------------------------------------
  alpha Z        PSCENC =       852.01375954
  Ewald energy   TEWEN  =    -15926.64898186
  -Hartree energ DENC   =     -5504.56497007
  -exchange      EXHF   =         0.00000000
  -V(xc)+E(xc)   XCENC  =       855.49456178
  PAW double counting   =     23989.60565209   -24459.90349267
  entropy T*S    EENTRO =        -0.01459311
  eigenvalues    EBANDS =      -193.12351267
  atomic energy  EATOM  =     20168.87094289
  ---------------------------------------------------
  free energy    TOTEN  =      -218.27198255 eV

  energy without entropy =     -218.25738943  energy(sigma->0) =     -218.26468599


--------------------------------------------------------------------------------------------------------




--------------------------------------- Iteration      1(  19)  ---------------------------------------


    POTLOK:  cpu time    0.0397: real time    0.0397
    SETDIJ:  cpu time    0.0123: real time    0.0123
    TRIAL :  cpu time   12.0868: real time   12.1089
    CORREC:  cpu time    4.2172: real time    4.2244
    CHARGE:  cpu time    0.3928: real time    0.3933
    --------------------------------------------
      LOOP:  cpu time   16.7529: real time   16.7828

 eigenvalue-minimisations  :     0
 total energy-change (2. order) :-0.1438163E+00  (-0.9718938E-01)
 number of electron     257.9999923 magnetization       5.9999998
 augmentation part       76.0346248 magnetization       3.6832671

 Free energy of the ion-electron system (eV)
  ---------------------------------------------------
  alpha Z        PSCENC =       852.01375954
  Ewald energy   TEWEN  =    -15926.64898186
  -Hartree energ DENC   =     -5505.56887526
  -exchange      EXHF   =         0.00000000
  -V(xc)+E(xc)   XCENC  =       855.50136226
  PAW double counting   =     23960.82949011   -24426.24434804
  entropy T*S    EENTRO =        -0.01484400
  eigenvalues    EBANDS =      -197.15455540
  atomic energy  EATOM  =     20168.87094289
  ---------------------------------------------------
  free energy    TOTEN  =      -218.41579888 eV

  energy without entropy =     -218.40095488  energy(sigma->0) =     -218.40837688


--------------------------------------------------------------------------------------------------------




--------------------------------------- Iteration      1(  20)  ---------------------------------------


    POTLOK:  cpu time    0.0396: real time    0.0397
    SETDIJ:  cpu time    0.0124: real time    0.0124
    TRIAL :  cpu time   11.9121: real time   11.9351
    CORREC:  cpu time    4.1388: real time    4.1462
    CHARGE:  cpu time    0.5054: real time    0.5059
    --------------------------------------------
      LOOP:  cpu time   16.6125: real time   16.6435

 eigenvalue-minimisations  :     0
 total energy-change (2. order) :-0.9623097E-01  (-0.9621626E-01)
 number of electron     257.9999923 magnetization       5.9999998
 augmentation part       76.0797228 magnetization       3.6605053

 Free energy of the ion-electron system (eV)
  ---------------------------------------------------
  alpha Z        PSCENC =       852.01375954
  Ewald energy   TEWEN  =    -15926.64898186
  -Hartree energ DENC   =     -5497.20782328
  -exchange      EXHF   =         0.00000000
  -V(xc)+E(xc)   XCENC  =       855.46505510
  PAW double counting   =     23943.54290439   -24405.44206232
  entropy T*S    EENTRO =        -0.01373261
  eigenvalues    EBANDS =      -209.09098031
  atomic energy  EATOM  =     20168.87094289
  ---------------------------------------------------
  free energy    TOTEN  =      -218.51202985 eV

  energy without entropy =     -218.49829724  energy(sigma->0) =     -218.50516354


--------------------------------------------------------------------------------------------------------




--------------------------------------- Iteration      1(  21)  ---------------------------------------


    POTLOK:  cpu time    0.0441: real time    0.0441
    SETDIJ:  cpu time    0.0124: real time    0.0124
    TRIAL :  cpu time   11.8750: real time   11.8974
    CORREC:  cpu time    4.2900: real time    4.2964
    CHARGE:  cpu time    0.3851: real time    0.3857
    --------------------------------------------
      LOOP:  cpu time   16.6072: real time   16.6367

 eigenvalue-minimisations  :     0
 total energy-change (2. order) :-0.9770259E-01  (-0.1212418E+00)
 number of electron     257.9999922 magnetization       5.9999999
 augmentation part       76.1767104 magnetization       3.6452475

 Free energy of the ion-electron system (eV)
  ---------------------------------------------------
  alpha Z        PSCENC =       852.01375954
  Ewald energy   TEWEN  =    -15926.64898186
  -Hartree energ DENC   =     -5500.24194826
  -exchange      EXHF   =         0.00000000
  -V(xc)+E(xc)   XCENC  =       855.45386067
  PAW double counting   =     23943.97170887   -24406.24719649
  entropy T*S    EENTRO =        -0.01408608
  eigenvalues    EBANDS =      -205.76814517
  atomic energy  EATOM  =     20168.87094289
  ---------------------------------------------------
  free energy    TOTEN  =      -218.60973243 eV

  energy without entropy =     -218.59564636  energy(sigma->0) =     -218.60268940


--------------------------------------------------------------------------------------------------------




--------------------------------------- Iteration      1(  22)  ---------------------------------------


    POTLOK:  cpu time    0.0397: real time    0.0397
    SETDIJ:  cpu time    0.0123: real time    0.0123
    TRIAL :  cpu time   11.8039: real time   11.8267
    CORREC:  cpu time    4.3301: real time    4.3371
    CHARGE:  cpu time    0.3884: real time    0.3955
    --------------------------------------------
      LOOP:  cpu time   16.5784: real time   16.6155

 eigenvalue-minimisations  :     0
 total energy-change (2. order) :-0.1213454E+00  (-0.1303449E+00)
 number of electron     257.9999922 magnetization       6.0000000
 augmentation part       76.1714868 magnetization       3.6581953

 Free energy of the ion-electron system (eV)
  ---------------------------------------------------
  alpha Z        PSCENC =       852.01375954
  Ewald energy   TEWEN  =    -15926.64898186
  -Hartree energ DENC   =     -5504.02000583
  -exchange      EXHF   =         0.00000000
  -V(xc)+E(xc)   XCENC  =       855.53295985
  PAW double counting   =     23951.70026309   -24417.07717745
  entropy T*S    EENTRO =        -0.01474778
  eigenvalues    EBANDS =      -199.08875202
  atomic energy  EATOM  =     20168.87094289
  ---------------------------------------------------
  free energy    TOTEN  =      -218.73107786 eV

  energy without entropy =     -218.71633008  energy(sigma->0) =     -218.72370397


--------------------------------------------------------------------------------------------------------




--------------------------------------- Iteration      1(  23)  ---------------------------------------


    POTLOK:  cpu time    0.0402: real time    0.0402
    SETDIJ:  cpu time    0.0123: real time    0.0123
    TRIAL :  cpu time   12.0246: real time   12.0483
    CORREC:  cpu time    4.2307: real time    4.2376
    CHARGE:  cpu time    0.3813: real time    0.3822
    --------------------------------------------
      LOOP:  cpu time   16.6933: real time   16.7249

 eigenvalue-minimisations  :     0
 total energy-change (2. order) :-0.1308503E+00  (-0.2344062E+00)
 number of electron     257.9999920 magnetization       6.0000001
 augmentation part       75.9993767 magnetization       3.7282311

 Free energy of the ion-electron system (eV)
  ---------------------------------------------------
  alpha Z        PSCENC =       852.01375954
  Ewald energy   TEWEN  =    -15926.64898186
  -Hartree energ DENC   =     -5507.23291777
  -exchange      EXHF   =         0.00000000
  -V(xc)+E(xc)   XCENC  =       855.61737522
  PAW double counting   =     23938.39394901   -24403.73872229
  entropy T*S    EENTRO =        -0.01230192
  eigenvalues    EBANDS =      -196.12258514
  atomic energy  EATOM  =     20168.87094289
  ---------------------------------------------------
  free energy    TOTEN  =      -218.86192819 eV

  energy without entropy =     -218.84962627  energy(sigma->0) =     -218.85577723


--------------------------------------------------------------------------------------------------------




--------------------------------------- Iteration      1(  24)  ---------------------------------------


    POTLOK:  cpu time    0.0416: real time    0.0416
    SETDIJ:  cpu time    0.0123: real time    0.0123
    TRIAL :  cpu time   12.3792: real time   12.4026
    CORREC:  cpu time    4.2065: real time    4.2136
    CHARGE:  cpu time    0.3850: real time    0.3854
    --------------------------------------------
      LOOP:  cpu time   17.0287: real time   17.0596

 eigenvalue-minimisations  :     0
 total energy-change (2. order) :-0.2296646E+00  (-0.1793650E+00)
 number of electron     257.9999919 magnetization       6.0000003
 augmentation part       75.9793720 magnetization       3.8008567

 Free energy of the ion-electron system (eV)
  ---------------------------------------------------
  alpha Z        PSCENC =       852.01375954
  Ewald energy   TEWEN  =    -15926.64898186
  -Hartree energ DENC   =     -5491.15075034
  -exchange      EXHF   =         0.00000000
  -V(xc)+E(xc)   XCENC  =       855.68280009
  PAW double counting   =     23881.25176732   -24341.41753811
  entropy T*S    EENTRO =        -0.00907484
  eigenvalues    EBANDS =      -217.68129036
  atomic energy  EATOM  =     20168.87094289
  ---------------------------------------------------
  free energy    TOTEN  =      -219.09159276 eV

  energy without entropy =     -219.08251792  energy(sigma->0) =     -219.08705534


--------------------------------------------------------------------------------------------------------




--------------------------------------- Iteration      1(  25)  ---------------------------------------


    POTLOK:  cpu time    0.0423: real time    0.0423
    SETDIJ:  cpu time    0.0133: real time    0.0133
    TRIAL :  cpu time   12.0781: real time   12.1015
    CORREC:  cpu time    4.1721: real time    4.1789
    CHARGE:  cpu time    0.3837: real time    0.3842
    --------------------------------------------
      LOOP:  cpu time   16.6938: real time   16.7245

 eigenvalue-minimisations  :     0
[...]
   20        1.582   3.392   0.000   4.974
   21        1.593   3.326   0.000   4.919
   22        1.582   3.412   0.000   4.994
   23        1.578   3.438   0.000   5.016
   24        1.580   3.420   0.000   5.000
   25        1.580   3.414   0.000   4.994
   26        1.592   3.339   0.000   4.931
   27        1.562   3.451   0.000   5.013
   28        1.560   3.478   0.000   5.038
   29        1.555   3.491   0.000   5.046
   30        1.558   3.504   0.000   5.062
   31        1.585   3.388   0.000   4.973
   32        1.574   3.423   0.000   4.996
   33        1.575   3.441   0.000   5.016
   34        1.579   3.441   0.000   5.020
   35        1.583   3.366   0.000   4.949
   36        1.575   3.447   0.000   5.022
   37        1.576   3.449   0.000   5.025
   38        1.574   3.394   0.000   4.968
   39        1.559   3.476   0.000   5.034
   40        1.557   3.450   0.000   5.007
   41        1.562   3.435   0.000   4.997
   42        1.563   3.439   0.000   5.002
--------------------------------------------------
tot         43.913  92.402  87.900 224.215
 


 magnetization (x)
 
# of ion       s       p       d       tot
------------------------------------------
    1        0.001   0.001   0.000   0.001
    2        0.001   0.001   0.000   0.001
    3        0.000   0.000   0.000   0.000
    4       -0.000  -0.002   0.000  -0.002
    5        0.000   0.000   0.000   0.001
    6       -0.000  -0.001   0.000  -0.001
    7        0.004   0.006  -0.003   0.006
    8        0.013   0.018   1.339   1.369
    9        0.011   0.017   1.236   1.265
   10        0.014   0.018   1.413   1.445
   11        0.002   0.004   0.013   0.019
   12        0.001   0.001   0.027   0.030
   13        0.000   0.003   0.040   0.044
   14        0.009   0.006   1.191   1.206
   15        0.008   0.011   1.186   1.205
   16        0.002   0.003   0.134   0.139
   17        0.002   0.004   0.053   0.059
   18        0.001   0.003   0.018   0.021
   19        0.001  -0.105   0.000  -0.104
   20        0.001  -0.082   0.000  -0.081
   21        0.002  -0.159   0.000  -0.158
   22        0.001  -0.082   0.000  -0.081
   23        0.001  -0.063   0.000  -0.061
   24        0.001  -0.076   0.000  -0.074
   25        0.001  -0.071   0.000  -0.070
   26        0.002  -0.126   0.000  -0.124
   27        0.000  -0.023   0.000  -0.023
   28        0.001  -0.012   0.000  -0.011
   29        0.000   0.016   0.000   0.017
   30        0.001  -0.011   0.000  -0.010
   31        0.001  -0.027   0.000  -0.026
   32        0.001   0.053   0.000   0.054
   33        0.000  -0.039   0.000  -0.039
   34        0.000  -0.019   0.000  -0.019
   35        0.001   0.015   0.000   0.016
   36        0.000  -0.005   0.000  -0.004
   37        0.000  -0.016   0.000  -0.016
   38        0.001   0.090   0.000   0.091
   39        0.000  -0.012   0.000  -0.012
   40        0.001   0.024   0.000   0.024
   41        0.001   0.001   0.000   0.002
   42        0.001  -0.013   0.000  -0.013
--------------------------------------------------
tot          0.091  -0.651   6.648   6.088
 
    FORLOC:  cpu time    0.0075: real time    0.0075
    FORNL :  cpu time    3.8410: real time    3.8458
    STRESS:  cpu time   11.5731: real time   11.5916
    FORCOR:  cpu time    0.0434: real time    0.0435
    OFIELD:  cpu time    0.0004: real time    0.0004

  DFT-D2 method for vdW energy calculation
  -------------------------------------------------------------------

  Parameters of vdW forcefield:
         C6(Jnm^6/mol)     R0(A)
   -----------------------------
   Li       1.610          0.825
   Co      10.800          1.562
   O        0.700          1.342

  IVDW =   1
  VDW_RADIUS =    50.000 A
  VDW_S6 =     0.750
  VDW_SR =     1.000
  VDW_D =    20.000
  LVDW_EWALD = F

  Number of pair interactions contributing to vdW energy: 1372758
  Edisp (eV):  -11.19501
    FORVDW:  cpu time    0.1870: real time    0.1871

  FORCE on cell =-STRESS in cart. coord.  units (eV):
  Direction    XX          YY          ZZ          XY          YZ          ZX
  --------------------------------------------------------------------------------------
  Alpha Z   852.01376   852.01376   852.01376
  Ewald   -3555.45716 -3521.12366 -8850.14832    27.91500   -23.51245    12.23669
  Hartree  3058.77963  3086.09929  -651.74092     6.40076   -13.13088     3.15367
  E(xc)   -1288.86462 -1288.77275 -1288.78836     0.09720     0.01276     0.03865
  Local   -4558.04437 -4623.52230  4406.19682   -28.95265    37.60789   -12.50737
  n-local  -592.59510  -591.90478  -599.22204     1.24136    -0.71073     0.94857
  augment  2018.85354  2020.71146  2003.94534    -2.73382    -0.43299    -1.32716
  Kinetic  4084.95688  4085.89121  4155.29809    -4.90360    -0.31469    -0.67627
  Fock        0.00000     0.00000     0.00000     0.00000     0.00000     0.00000
  vdW        -7.11111    -7.54062   -13.79482     0.18014    -0.14055     0.07547
  -------------------------------------------------------------------------------------
  Total      12.53146    11.85161    13.75955    -0.75561    -0.62165     1.94225
  in kB      58.35042    55.18484    64.06883    -3.51838    -2.89458     9.04374
  external pressure =       59.20 kB  Pullay stress =        0.00 kB


 VOLUME and BASIS-vectors are now :
 -----------------------------------------------------------------------------
  energy-cutoff  :      600.00
  volume of cell :      344.09
      direct lattice vectors                 reciprocal lattice vectors
     5.588651657  0.000000000  0.000000000     0.178934037  0.102647160  0.003129537
    -2.779724836  4.845602989  0.000000000     0.000000000  0.206372665  0.001697541
    -0.162272453 -0.104515679 12.706128120     0.000000000  0.000000000  0.078702181

  length of vectors
     5.588651657  5.586299177 12.707594095     0.206309532  0.206379646  0.078702181


 FORCES acting on ions:
    Electron-Ion                     Ewald-Force                    Non-Local-Force
 -----------------------------------------------------------------------------------------------
   -.306E+01 -.337E+01 0.934E+01   0.300E+01 0.310E+01 -.956E+01   0.588E+00 0.879E+00 0.519E-01
   -.867E+01 -.195E+01 -.238E+01   0.840E+01 0.209E+01 0.212E+01   0.169E+01 0.158E-01 -.647E+00
   0.219E+01 -.325E+00 0.108E+01   -.188E+01 0.455E+00 -.973E+00   -.519E+00 0.141E+00 -.194E+00
   0.398E+01 -.587E+01 -.184E+02   -.351E+01 0.543E+01 0.185E+02   -.880E+00 0.115E+01 0.119E+01
   0.255E+01 0.145E+01 -.165E+02   -.247E+01 -.143E+01 0.164E+02   -.474E+00 -.571E+00 0.119E+01
   -.220E+01 0.448E+01 -.571E+01   0.190E+01 -.429E+01 0.565E+01   0.192E+00 -.622E+00 0.235E+00
   -.304E+01 -.252E+02 0.137E+02   0.221E+01 0.263E+02 -.129E+02   -.759E-02 0.124E+01 0.713E+00
   0.871E+01 0.488E+01 -.443E+01   -.905E+01 -.557E+01 0.526E+01   -.666E-01 -.873E-01 -.518E+00
   0.202E+02 0.118E+02 0.637E+01   -.206E+02 -.125E+02 -.567E+01   -.495E+00 -.324E+00 0.398E+00
   -.157E+02 -.207E+02 0.466E+02   0.165E+02 0.218E+02 -.459E+02   0.456E+00 0.891E+00 -.310E+00
   0.122E+02 -.139E+01 -.217E+03   -.115E+02 0.256E+01 0.215E+03   -.464E+00 -.351E+00 0.236E+00
   -.318E+02 0.523E+00 -.142E+03   0.331E+02 -.130E+01 0.141E+03   0.821E-01 0.340E+00 0.146E+01
   -.270E+01 -.676E+01 -.155E+03   0.191E+01 0.749E+01 0.154E+03   -.220E+00 0.766E+00 0.276E+01
   0.414E+01 -.136E+02 -.164E+03   -.390E+01 0.127E+02 0.166E+03   0.778E+00 0.477E+00 0.124E+01
   0.139E+02 0.102E+02 0.165E+03   -.154E+02 -.983E+01 -.166E+03   0.190E+00 -.349E+00 -.321E+00
   -.240E+02 0.511E+01 0.171E+03   0.247E+02 -.574E+01 -.171E+03   0.533E+00 0.669E+00 -.165E+01
   -.406E+01 -.138E+02 0.158E+03   0.445E+01 0.137E+02 -.157E+03   -.574E+00 0.660E+00 -.681E+00
   0.206E+02 -.124E+02 0.138E+03   -.209E+02 0.133E+02 -.138E+03   -.276E+00 0.115E+00 -.193E+01
   0.117E+02 -.346E+01 -.235E+03   -.140E+02 0.614E+01 0.258E+03   0.233E+01 -.342E+01 -.243E+02
   -.310E+02 0.149E+01 -.244E+03   0.372E+02 -.352E+01 0.266E+03   -.587E+01 0.249E+01 -.230E+02
   -.649E+01 -.512E+01 -.234E+03   0.799E+01 0.667E+01 0.259E+03   -.142E+01 -.163E+01 -.262E+02
   0.227E+02 0.189E+02 -.224E+03   -.282E+02 -.229E+02 0.245E+03   0.512E+01 0.324E+01 -.231E+02
   0.623E+01 0.424E+00 0.260E+03   -.818E+01 0.154E+01 -.282E+03   0.214E+01 -.253E+01 0.227E+02
   0.395E+01 0.243E+02 0.252E+03   -.575E+01 -.315E+02 -.273E+03   0.205E+01 0.666E+01 0.225E+02
   -.176E+02 0.211E+02 0.263E+03   0.209E+02 -.215E+02 -.287E+03   -.326E+01 -.114E+01 0.229E+02
   0.354E+01 -.256E+02 0.264E+03   -.283E+01 0.280E+02 -.290E+03   -.105E+01 -.173E+01 0.268E+02
   -.615E+01 0.184E+02 -.334E+03   0.103E+02 -.185E+02 0.348E+03   -.460E+01 -.116E+01 -.148E+02
   -.335E+01 0.649E+01 -.344E+03   0.520E+01 -.828E+01 0.358E+03   -.126E+01 0.903E+00 -.156E+02
   -.509E+01 0.934E+01 -.331E+03   0.280E+01 -.813E+01 0.344E+03   0.314E+01 -.207E+01 -.138E+02
   0.168E+02 -.710E+01 -.347E+03   -.201E+02 0.447E+01 0.360E+03   0.276E+01 0.346E+01 -.136E+02
   0.374E+02 0.239E+02 0.142E+03   -.418E+02 -.288E+02 -.168E+03   0.320E+01 0.490E+01 0.264E+02
   0.122E+02 -.409E+01 0.128E+03   -.124E+02 0.727E+01 -.150E+03   -.445E+00 -.397E+01 0.225E+02
   -.152E+02 0.134E+02 0.130E+03   0.165E+02 -.183E+02 -.153E+03   -.119E+01 0.516E+01 0.215E+02
   -.161E+02 -.400E+02 0.122E+03   0.158E+02 0.464E+02 -.144E+03   -.838E-01 -.516E+01 0.241E+02
   0.160E+02 -.388E+01 -.145E+03   -.176E+02 0.308E+01 0.170E+03   0.924E+00 0.124E+01 -.255E+02
   0.180E+02 0.139E+02 -.134E+03   -.227E+02 -.163E+02 0.156E+03   0.446E+01 0.197E+01 -.222E+02
   -.240E+02 -.155E+02 -.143E+03   0.271E+02 0.183E+02 0.167E+03   -.221E+01 -.294E+01 -.236E+02
   -.160E+02 0.840E+01 -.119E+03   0.196E+02 -.961E+01 0.138E+03   -.324E+01 0.515E+00 -.213E+02
   0.114E+01 0.220E+02 0.338E+03   0.615E+00 -.248E+02 -.352E+03   -.152E+01 0.226E+01 0.137E+02
   -.233E+01 -.817E+01 0.305E+03   0.141E+01 0.881E+01 -.318E+03   0.114E+01 -.889E+00 0.148E+02
   -.686E+01 0.276E+02 0.321E+03   0.620E+01 -.284E+02 -.336E+03   0.461E+00 0.125E+00 0.164E+02
   0.570E+01 -.389E+02 0.317E+03   -.502E+01 0.415E+02 -.332E+03   -.620E+00 -.149E+01 0.165E+02
 -----------------------------------------------------------------------------------------------
   -.148E+01 -.986E+01 -.701E+01   -.204E-13 0.782E-13 0.568E-12   0.148E+01 0.982E+01 0.698E+01
 
 
 POSITION                                       TOTAL-FORCE (eV/Angst)
 -----------------------------------------------------------------------------------
     -0.10260      4.78686      0.12103         0.469545      0.453537     -0.180975
      2.67260      3.19775      4.25546         1.151995      0.243997     -1.032554
     -0.05108      1.45643      8.50116        -0.140378      0.252417     -0.058910
     -1.39415      3.81803      8.25913        -0.327012      0.542284      1.067755
      2.75930      1.67862      8.30096        -0.246998     -0.437557      0.762418
      1.31934      4.09389      8.43977        -0.111311     -0.331049      0.155382
      0.01642      1.57467      2.10585        -0.817294      2.074678      1.374182
     -1.38982      4.08911      2.16865        -0.398845     -0.728700      0.358034
      2.82235      1.69978      2.11836        -0.691116     -0.839093      0.967404
      1.34897      4.00363      2.09542         1.091521      1.731267      0.489357
     -0.06721     -0.04277      6.28845         0.301724      0.744707     -1.469931
     -1.48407      2.40048      6.12698         1.144170     -0.437197      1.042274
      0.00378      4.76910      6.07160        -0.947851      1.335614      1.964702
      1.27625      2.37485      6.03829         0.825145     -0.619478      3.061613
      1.27991      0.67170     10.79681        -1.166151      0.075270     -1.723973
     -0.18542      3.08187     10.82191         1.133937      0.049655     -1.688524
      4.03961      0.68623     10.75881        -0.172068      0.336616      0.144082
      2.63046      3.07582     10.85651        -0.462932      0.927132     -1.652829
     -0.04203      0.01918      3.10866         0.075581     -0.642552     -1.061691
     -1.41941      2.43617      3.11842         0.377189      0.423741     -0.798671
      2.78352      0.04622      3.13896         0.068606     -0.077990     -1.342358
      1.41576      2.48303      3.13794        -0.388211     -0.768077     -1.899992
      1.42457      0.85481      1.20510         0.131328     -0.534075      0.018888
     -0.05127      3.26911      1.14852         0.261863     -0.583593      1.043356
      4.15657      0.90285      1.20879         0.144387     -1.509154     -0.470699
      2.83412      3.23321      1.10992        -0.352580      0.665067      1.206492
      1.36114      0.89198      7.24357        -0.468869     -1.275164     -1.009046
     -0.05953      3.25063      7.22277         0.534694     -0.902882     -1.487272
      4.06724      0.82625      7.25437         0.831669     -0.849990     -0.952795
      2.72516      3.14097      7.19777        -0.532800      0.839713     -0.397408
     -0.02744      1.52802      5.23788        -1.195453      0.060960      0.145756
     -1.44290      4.06025      5.22177        -0.619607     -0.770824      0.636758
      2.71303      1.56473      5.23394         0.119996      0.260686     -0.663452
      1.37389      3.93375      5.13525        -0.454029      1.259509      1.685326
     -0.10623      1.45099     11.72611        -0.682020      0.455032     -0.469834
     -1.53622      3.93251     11.72721        -0.226438     -0.425709     -0.160243
      2.58966      1.45688     11.71611         0.951534      0.008913      0.079644
      1.18246      3.96480     11.81381         0.421867     -0.738993     -1.756244
      2.65350      4.72550      9.81571         0.331920     -0.597845     -0.464363
      4.02170      2.34527      9.63191         0.199323     -0.248499      1.788570
     -0.13180      4.76357      9.65571        -0.210185     -0.621970      1.250322
      1.24771      2.20522      9.68801         0.044154      1.199597      1.499447
 -----------------------------------------------------------------------------------
    total drift:                               -0.003640     -0.039234     -0.034355


--------------------------------------------------------------------------------------------------------



  FREE ENERGIE OF THE ION-ELECTRON SYSTEM (eV)
  ---------------------------------------------------
  free  energy   TOTEN  =      -232.12440420 eV

  energy  without entropy=     -232.11327819  energy(sigma->0) =     -232.11884119
 


--------------------------------------------------------------------------------------------------------


    POTLOK:  cpu time    0.0594: real time    0.0595


--------------------------------------------------------------------------------------------------------


     LOOP+:  cpu time 1855.3137: real time 1859.0817
    4ORBIT:  cpu time    0.0000: real time    0.0000
 


 total charge     
 
# of ion       s       p       d       tot
------------------------------------------
    1        0.143   0.339   0.000   0.482
    2        0.150   0.361   0.000   0.511
    3        0.108   0.233   0.000   0.341
    4        0.117   0.258   0.000   0.375
    5        0.127   0.286   0.000   0.414
    6        0.100   0.215   0.000   0.315
    7        0.441   0.697   7.373   8.511
    8        0.467   0.750   7.242   8.459
    9        0.491   0.812   7.293   8.596
   10        0.456   0.716   7.224   8.396
   11        0.422   0.649   7.372   8.443
   12        0.437   0.680   7.394   8.511
   13        0.439   0.686   7.370   8.495
   14        0.488   0.774   7.309   8.571
   15        0.489   0.801   7.288   8.578
   16        0.425   0.639   7.342   8.406
   17        0.433   0.673   7.376   8.482
   18        0.414   0.631   7.316   8.361
   19        1.584   3.386   0.000   4.969
   20        1.582   3.392   0.000   4.974
   21        1.593   3.326   0.000   4.919
   22        1.582   3.412   0.000   4.994
   23        1.578   3.438   0.000   5.016
   24        1.580   3.420   0.000   5.000
   25        1.580   3.414   0.000   4.994
   26        1.592   3.339   0.000   4.931
   27        1.562   3.451   0.000   5.013
   28        1.560   3.478   0.000   5.038
   29        1.555   3.491   0.000   5.046
   30        1.558   3.504   0.000   5.062
   31        1.585   3.388   0.000   4.973
   32        1.574   3.423   0.000   4.996
   33        1.575   3.441   0.000   5.016
   34        1.579   3.441   0.000   5.020
   35        1.583   3.366   0.000   4.949
   36        1.575   3.447   0.000   5.022
   37        1.576   3.449   0.000   5.025
   38        1.574   3.394   0.000   4.968
   39        1.559   3.476   0.000   5.034
   40        1.557   3.450   0.000   5.007
   41        1.562   3.435   0.000   4.997
   42        1.563   3.439   0.000   5.002
--------------------------------------------------
tot         43.913  92.402  87.900 224.215
 


 magnetization (x)
 
# of ion       s       p       d       tot
------------------------------------------
    1        0.001   0.001   0.000   0.001
    2        0.001   0.001   0.000   0.001
    3        0.000   0.000   0.000   0.000
    4       -0.000  -0.002   0.000  -0.002
    5        0.000   0.000   0.000   0.001
    6       -0.000  -0.001   0.000  -0.001
    7        0.004   0.006  -0.003   0.006
    8        0.013   0.018   1.339   1.369
    9        0.011   0.017   1.236   1.265
   10        0.014   0.018   1.413   1.445
   11        0.002   0.004   0.013   0.019
   12        0.001   0.001   0.027   0.030
   13        0.000   0.003   0.040   0.044
   14        0.009   0.006   1.191   1.206
   15        0.008   0.011   1.186   1.205
   16        0.002   0.003   0.134   0.139
   17        0.002   0.004   0.053   0.059
   18        0.001   0.003   0.018   0.021
   19        0.001  -0.105   0.000  -0.104
   20        0.001  -0.082   0.000  -0.081
   21        0.002  -0.159   0.000  -0.158
   22        0.001  -0.082   0.000  -0.081
   23        0.001  -0.063   0.000  -0.061
   24        0.001  -0.076   0.000  -0.074
   25        0.001  -0.071   0.000  -0.070
   26        0.002  -0.126   0.000  -0.124
   27        0.000  -0.023   0.000  -0.023
   28        0.001  -0.012   0.000  -0.011
   29        0.000   0.016   0.000   0.017
   30        0.001  -0.011   0.000  -0.010
   31        0.001  -0.027   0.000  -0.026
   32        0.001   0.053   0.000   0.054
   33        0.000  -0.039   0.000  -0.039
   34        0.000  -0.019   0.000  -0.019
   35        0.001   0.015   0.000   0.016
   36        0.000  -0.005   0.000  -0.004
   37        0.000  -0.016   0.000  -0.016
   38        0.001   0.090   0.000   0.091
   39        0.000  -0.012   0.000  -0.012
   40        0.001   0.024   0.000   0.024
   41        0.001   0.001   0.000   0.002
   42        0.001  -0.013   0.000  -0.013
--------------------------------------------------
tot          0.091  -0.651   6.648   6.088
 

 total amount of memory used by VASP MPI-rank0   143746. kBytes
=======================================================================

   base      :      30000. kBytes
   nonlr-proj:       4369. kBytes
   fftplans  :       1502. kBytes
   grid      :       4132. kBytes
   one-center:        342. kBytes
   wavefun   :     103401. kBytes
 
  
  
 General timing and accounting informations for this job:
 ========================================================
  
                  Total CPU time used (sec):     1878.957
                            User time (sec):     1752.331
                          System time (sec):      126.626
                         Elapsed time (sec):     1883.153
  
                   Maximum memory used (kb):      624044.
                   Average memory used (kb):           0.
  
                          Minor page faults:        66533
                          Major page faults:           69
                 Voluntary context switches:          562
