 vasp.5.4.4.18Apr17-6-g9f103f2a35 (build Nov 22 2021 14:44:17) complex          
  
 executed on             LinuxIFC date 2022.08.06  11:37:00
 running on   64 total cores
 distrk:  each k-point on   64 cores,    1 groups
 distr:  one band on NCORES_PER_BAND=   4 cores,   16 groups


--------------------------------------------------------------------------------------------------------


 INCAR:
 POTCAR:    PAW_PBE Li 17Jan2003                  
 POTCAR:    PAW_PBE Co 02Aug2007                  
 POTCAR:    PAW_PBE O 08Apr2002                   
 POTCAR:    PAW_PBE Li 17Jan2003                  
   VRHFIN =Li: s1p0                                                             
   LEXCH  = PE                                                                  
   EATOM  =     5.3001 eV,    0.3895 Ry                                         
                                                                                
   TITEL  = PAW_PBE Li 17Jan2003                                                
   LULTRA =        F    use ultrasoft PP ?                                      
   IUNSCR =        1    unscreen: 0-lin 1-nonlin 2-no                           
   RPACOR =    1.500    partial core radius                                     
   POMASS =    7.010; ZVAL   =    1.000    mass and valenz                      
   RCORE  =    2.050    outmost cutoff radius                                   
   RWIGS  =    2.600; RWIGS  =    1.376    wigner-seitz radius (au A)           
   ENMAX  =  140.000; ENMIN  =  100.000 eV                                      
   ICORE  =        2    local potential                                         
   LCOR   =        T    correct aug charges                                     
   LPAW   =        T    paw PP                                                  
   EAUG   =  331.638                                                            
   DEXC   =    0.000                                                            
   RMAX   =    2.098    core radius for proj-oper                               
   RAUG   =    1.300    factor for augmentation sphere                          
   RDEP   =    2.094    radius for radial grids                                 
   RDEPT  =    1.810    core radius for aug-charge                              
                                                                                
   Atomic configuration                                                         
    4 entries                                                                   
     n  l   j            E        occ.                                          
     1  0  0.50       -51.8549   2.0000                                         
     2  0  0.50        -2.8742   1.0000                                         
     2  1  0.50        -1.3606   0.0000                                         
     3  2  1.50        -1.3606   0.0000                                         
   Description                                                                  
     l       E           TYP  RCUT    TYP  RCUT                                 
     0     -2.8742052     23  2.050                                             
     0     27.2116520     23  2.050                                             
     1     -1.3605826     23  2.050                                             
     2     -1.3605826     23  2.050                                             
  local pseudopotential read in
  partial core-charges read in
  partial kinetic energy density read in
  atomic valenz-charges read in
  non local Contribution for L=           0  read in
    real space projection operators read in
  non local Contribution for L=           0  read in
    real space projection operators read in
  non local Contribution for L=           1  read in
    real space projection operators read in
    PAW grid and wavefunctions read in
 
   number of l-projection  operators is LMAX  =           3
   number of lm-projection operators is LMMAX =           5
 
 POTCAR:    PAW_PBE Co 02Aug2007                  
   VRHFIN =Co: d8 s1                                                            
   LEXCH  = PE                                                                  
   EATOM  =   813.3670 eV,   59.7808 Ry                                         
                                                                                
   TITEL  = PAW_PBE Co 02Aug2007                                                
   LULTRA =        F    use ultrasoft PP ?                                      
   IUNSCR =        1    unscreen: 0-lin 1-nonlin 2-no                           
   RPACOR =    2.000    partial core radius                                     
   POMASS =   58.933; ZVAL   =    9.000    mass and valenz                      
   RCORE  =    2.300    outmost cutoff radius                                   
   RWIGS  =    2.460; RWIGS  =    1.302    wigner-seitz radius (au A)           
   ENMAX  =  267.968; ENMIN  =  200.976 eV                                      
   RCLOC  =    1.203    cutoff for local pot                                    
   LCOR   =        T    correct aug charges                                     
   LPAW   =        T    paw PP                                                  
   EAUG   =  477.818                                                            
   DEXC   =    0.000                                                            
   RMAX   =    2.360    core radius for proj-oper                               
   RAUG   =    1.300    factor for augmentation sphere                          
   RDEP   =    2.393    radius for radial grids                                 
   RDEPT  =    1.864    core radius for aug-charge                              
                                                                                
   Atomic configuration                                                         
    9 entries                                                                   
     n  l   j            E        occ.                                          
     1  0  0.50     -7587.6674   2.0000                                         
     2  0  0.50      -893.6084   2.0000                                         
     2  1  1.50      -764.5805   6.0000                                         
     3  0  0.50       -97.5973   2.0000                                         
     3  1  1.50       -60.9648   6.0000                                         
     3  2  2.50        -4.2382   8.0000                                         
     4  0  0.50        -4.3746   1.0000                                         
     4  1  1.50        -4.0817   0.0000                                         
     4  3  2.50        -1.3606   0.0000                                         
   Description                                                                  
     l       E           TYP  RCUT    TYP  RCUT                                 
     2     -4.2382362     23  2.300                                             
     2     -5.5988188     23  2.300                                             
     0     -4.3745797     23  2.300                                             
     0      5.7660125     23  2.300                                             
     1     -2.7211652     23  2.300                                             
     1     16.9860234     23  2.300                                             
  local pseudopotential read in
  partial core-charges read in
  partial kinetic energy density read in
  atomic valenz-charges read in
  non local Contribution for L=           2  read in
    real space projection operators read in
  non local Contribution for L=           2  read in
    real space projection operators read in
  non local Contribution for L=           0  read in
    real space projection operators read in
  non local Contribution for L=           0  read in
    real space projection operators read in
  non local Contribution for L=           1  read in
    real space projection operators read in
  non local Contribution for L=           1  read in
    real space projection operators read in
    PAW grid and wavefunctions read in
 
   number of l-projection  operators is LMAX  =           6
   number of lm-projection operators is LMMAX =          18
 
 POTCAR:    PAW_PBE O 08Apr2002                   
   VRHFIN =O: s2p4                                                              
   LEXCH  = PE                                                                  
   EATOM  =   432.3788 eV,   31.7789 Ry                                         
                                                                                
   TITEL  = PAW_PBE O 08Apr2002                                                 
   LULTRA =        F    use ultrasoft PP ?                                      
   IUNSCR =        1    unscreen: 0-lin 1-nonlin 2-no                           
   RPACOR =    1.200    partial core radius                                     
   POMASS =   16.000; ZVAL   =    6.000    mass and valenz                      
   RCORE  =    1.520    outmost cutoff radius                                   
   RWIGS  =    1.550; RWIGS  =    0.820    wigner-seitz radius (au A)           
   ENMAX  =  400.000; ENMIN  =  300.000 eV                                      
   ICORE  =        2    local potential                                         
   LCOR   =        T    correct aug charges                                     
   LPAW   =        T    paw PP                                                  
   EAUG   =  605.392                                                            
   DEXC   =    0.000                                                            
   RMAX   =    1.553    core radius for proj-oper                               
   RAUG   =    1.300    factor for augmentation sphere                          
   RDEP   =    1.550    radius for radial grids                                 
   RDEPT  =    1.329    core radius for aug-charge                              
                                                                                
   Atomic configuration                                                         
    4 entries                                                                   
     n  l   j            E        occ.                                          
     1  0  0.50      -514.6923   2.0000                                         
     2  0  0.50       -23.9615   2.0000                                         
     2  1  0.50        -9.0305   4.0000                                         
     3  2  1.50        -9.5241   0.0000                                         
   Description                                                                  
     l       E           TYP  RCUT    TYP  RCUT                                 
     0    -23.9615318     23  1.200                                             
     0     -9.5240782     23  1.200                                             
     1     -9.0304911     23  1.520                                             
     1      8.1634956     23  1.520                                             
     2     -9.5240782      7  1.500                                             
  local pseudopotential read in
  partial core-charges read in
  partial kinetic energy density read in
  kinetic energy density of atom read in
  atomic valenz-charges read in
  non local Contribution for L=           0  read in
    real space projection operators read in
  non local Contribution for L=           0  read in
    real space projection operators read in
  non local Contribution for L=           1  read in
    real space projection operators read in
  non local Contribution for L=           1  read in
    real space projection operators read in
    PAW grid and wavefunctions read in
 
   number of l-projection  operators is LMAX  =           4
   number of lm-projection operators is LMMAX =           8
 
 Optimization of the real space projectors (new method)

 maximal supplied QI-value         = 18.33
 optimisation between [QCUT,QGAM] = [ 12.46, 24.93] = [ 43.51,174.03] Ry 
 Optimized for a Real-space Cutoff    1.13 Angstroem

   l    n(q)    QCUT    max X(q) W(low)/X(q) W(high)/X(q)  e(spline) 
   0      8    12.465    33.825    0.12E-03    0.29E-03    0.99E-07
   0      8    12.465     8.944    0.86E-04    0.22E-03    0.72E-07
   1      8    12.465     4.214    0.27E-03    0.11E-03    0.82E-07
 Optimization of the real space projectors (new method)

 maximal supplied QI-value         = 16.25
 optimisation between [QCUT,QGAM] = [ 12.51, 25.03] = [ 43.85,175.40] Ry 
 Optimized for a Real-space Cutoff    1.31 Angstroem

   l    n(q)    QCUT    max X(q) W(low)/X(q) W(high)/X(q)  e(spline) 
   2      9    12.514    65.824    0.30E-03    0.46E-03    0.43E-06
   2      9    12.514    61.429    0.31E-03    0.46E-03    0.44E-06
   0     10    12.514    56.174    0.90E-04    0.33E-03    0.30E-06
   0     10    12.514    31.263    0.81E-04    0.30E-03    0.28E-06
   1      9    12.514    19.828    0.38E-03    0.65E-04    0.24E-06
   1      9    12.514    15.139    0.32E-03    0.60E-04    0.20E-06
 Optimization of the real space projectors (new method)

 maximal supplied QI-value         = 24.76
 optimisation between [QCUT,QGAM] = [ 12.38, 25.00] = [ 42.90,175.06] Ry 
 Optimized for a Real-space Cutoff    1.13 Angstroem

   l    n(q)    QCUT    max X(q) W(low)/X(q) W(high)/X(q)  e(spline) 
   0      8    12.378    20.381    0.16E-03    0.54E-05    0.27E-06
   0      8    12.378    15.268    0.17E-03    0.61E-05    0.29E-06
   1      8    12.378     5.964    0.38E-03    0.23E-03    0.28E-06
   1      8    12.378     5.382    0.33E-03    0.20E-03    0.25E-06
  PAW_PBE Li 17Jan2003                  :
 energy of atom  1       EATOM=   -5.3001
 kinetic energy error for atom=    0.0000 (will be added to EATOM!!)
  PAW_PBE Co 02Aug2007                  :
 energy of atom  2       EATOM= -813.3670
 kinetic energy error for atom=    0.0018 (will be added to EATOM!!)
  PAW_PBE O 08Apr2002                   :
 energy of atom  3       EATOM= -432.3788
 kinetic energy error for atom=    0.0168 (will be added to EATOM!!)
 
 
 POSCAR: Li6 Co12 O24                            
  positions in cartesian coordinates
  No initial velocities read in
 exchange correlation table for  LEXCH =        8
   RHO(1)=    0.500       N(1)  =     2000
   RHO(2)=  100.500       N(2)  =     4000
 


--------------------------------------------------------------------------------------------------------


 ion  position               nearest neighbor table
   1  0.505  0.047  0.006-  23 1.81  37 1.97  25 1.98  24 2.12  38 2.15  36 2.19   9 2.62   8 2.66
                            15 2.80  17 2.82  10 2.87  16 2.95
   2  0.939  0.690  0.327-  32 1.88  19 1.99  20 2.02  33 2.23  34 2.63   8 2.74  12 2.77   9 3.02
                            11 3.05  10 3.07
   3  0.120  0.314  0.665-  29 1.83  39 2.02  27 2.14  28 2.18  40 2.23  42 2.50   6 2.59   5 2.63
                            12 2.72   4 2.74  11 2.74   4 2.87  17 2.91  15 2.95  14 2.99   6 3.03
   4  0.187  0.859  0.656-  27 1.86  28 2.03  30 2.14  41 2.21  40 2.24  39 2.35  11 2.69  13 2.73
                             3 2.74   6 2.75   5 2.80  12 2.84   5 2.84   3 2.87   6 2.90  16 3.06
   5  0.684  0.369  0.672-  30 1.85  40 2.10  29 2.11  27 2.17  41 2.18  42 2.25   3 2.63   6 2.70
                             4 2.80   4 2.84  17 2.85  12 2.87   6 2.88  18 2.89  14 2.89  15 2.96
   6  0.668  0.846  0.658-  29 1.90  28 1.94  30 2.11  42 2.22  39 2.26  41 2.32   3 2.59   5 2.70
                             4 2.75  11 2.76  14 2.79  13 2.81   5 2.88   4 2.90  18 2.94   3 3.03
   7  0.162  0.303  0.157-  23 1.86  22 1.87  19 1.88  25 1.92  20 1.92  24 2.02   9 2.66   8 2.76
                            10 2.80   8 2.81  10 2.81   9 2.98
   8  0.168  0.803  0.151-  26 1.85  20 1.87  24 1.87  19 1.92  23 1.95  21 2.06   1 2.66   2 2.74
                             9 2.75   7 2.76  10 2.80   7 2.81  10 2.85   9 2.89
   9  0.691  0.304  0.164-  20 1.77  21 1.79  22 1.90  26 1.92  25 1.93  23 1.99   1 2.62   7 2.66
                            10 2.72   8 2.75  10 2.86   8 2.89   7 2.98   2 3.02
  10  0.664  0.803  0.157-  21 1.75  26 1.81  19 1.91  22 1.92  24 1.92  25 1.99   9 2.72   8 2.80
                             7 2.80   7 2.81   8 2.85   9 2.86   1 2.87   2 3.07
  11  0.007  0.016  0.503-  31 1.82  34 1.89  27 1.93  32 1.95  29 2.00  30 2.09   4 2.69  12 2.71
                             3 2.74  13 2.75   6 2.76  14 2.79  14 2.83  12 2.86  13 2.89   2 3.05
  12  0.997  0.497  0.502-  33 1.87  29 1.90  30 1.91  31 1.92  32 1.94  28 2.03  11 2.71   3 2.72
                             2 2.77  13 2.78  14 2.79   4 2.84  13 2.85  14 2.85  11 2.86   5 2.87
  13  0.493  0.015  0.496-  32 1.83  33 1.89  34 1.90  28 1.95  27 1.96  29 2.06   4 2.73  11 2.75
                            14 2.76  12 2.78  14 2.80   6 2.81  12 2.85  11 2.89   5 3.06
  14  0.500  0.514  0.500-  34 1.84  33 1.90  28 1.90  30 1.91  31 1.94  27 1.96  13 2.76  11 2.79
                             6 2.79  12 2.79  13 2.80  11 2.83  12 2.85   5 2.89   3 2.99
  15  0.323  0.183  0.839-  39 1.88  37 1.90  35 1.91  42 1.92  41 1.94  36 1.98  16 2.74  18 2.75
                             1 2.80  17 2.82  16 2.82  17 2.82  18 2.87   3 2.95   5 2.96   4 3.07
  16  0.314  0.670  0.845-  35 1.82  40 1.86  42 1.90  38 1.92  36 1.94  41 1.96  17 2.74  15 2.74
                            18 2.82  15 2.82  18 2.84  17 2.88   1 2.95   4 3.06   3 3.13   6 3.18
  17  0.824  0.185  0.842-  37 1.86  38 1.87  41 1.90  40 1.94  35 1.96  39 1.97  18 2.72  16 2.74
                             1 2.82  15 2.82  15 2.82  18 2.84   5 2.85  16 2.88   3 2.91   6 3.12
  18  0.830  0.699  0.838-  42 1.78  39 1.83  36 1.89  38 1.95  37 1.96  40 1.96  17 2.72  15 2.75
                            16 2.82  16 2.84  17 2.84  15 2.87   5 2.89   6 2.94   4 3.13
  19  0.002  0.964  0.224-   7 1.88  10 1.91   8 1.92   2 1.99
  20  0.004  0.481  0.226-   9 1.77   8 1.87   7 1.92   2 2.02
  21  0.533  0.971  0.223-  10 1.75   9 1.79   8 2.06
  22  0.493  0.452  0.223-   7 1.87   9 1.90  10 1.92
  23  0.350  0.169  0.089-   1 1.81   7 1.86   8 1.95   9 1.99
  24  0.344  0.660  0.079-   8 1.87  10 1.92   7 2.02   1 2.12
  25  0.842  0.152  0.079-   7 1.92   9 1.93   1 1.98  10 1.99
  26  0.829  0.647  0.094-  10 1.81   8 1.85   9 1.92
  27  0.335  0.175  0.578-   4 1.86  11 1.93  13 1.96  14 1.96   3 2.14   5 2.17
  28  0.351  0.683  0.576-  14 1.90   6 1.94  13 1.95  12 2.03   4 2.03   3 2.18
  29  0.832  0.176  0.582-   3 1.83  12 1.90   6 1.90  11 2.00  13 2.06   5 2.11
  30  0.817  0.638  0.577-   5 1.85  12 1.91  14 1.91  11 2.09   6 2.11   4 2.14
  31  0.159  0.330  0.430-  11 1.82  12 1.92  14 1.94
  32  0.172  0.844  0.431-  13 1.83   2 1.88  12 1.94  11 1.95
  33  0.676  0.360  0.431-  12 1.87  13 1.89  14 1.90   2 2.23
  34  0.674  0.850  0.436-  14 1.84  11 1.89  13 1.90   2 2.63
  35  0.165  0.347  0.914-  16 1.82  15 1.91  17 1.96
  36  0.143  0.837  0.916-  18 1.89  16 1.94  15 1.98   1 2.19
  37  0.655  0.343  0.908-  17 1.86  15 1.90  18 1.96   1 1.97
  38  0.653  0.854  0.913-  17 1.87  16 1.92  18 1.95   1 2.15
  39  1.000  0.021  0.768-  18 1.83  15 1.88  17 1.97   3 2.02   6 2.26   4 2.35
  40  0.006  0.530  0.769-  16 1.86  17 1.94  18 1.96   5 2.10   3 2.23   4 2.24
  41  0.497  0.015  0.770-  17 1.90  15 1.94  16 1.96   5 2.18   4 2.21   6 2.32
  42  0.513  0.539  0.776-  18 1.78  16 1.90  15 1.92   6 2.22   5 2.25   3 2.50
 

IMPORTANT INFORMATION: All symmetrisations will be switched off!
NOSYMM: (Re-)initialisation of all symmetry stuff for point group C_1.

 
 

Automatic generation of k-mesh.
 generate k-points for:    6    6    2
Space group operators:
 irot       det(A)        alpha          n_x          n_y          n_z        tau_x        tau_y        tau_z
    1     1.000000     0.000000     1.000000     0.000000     0.000000     0.000000     0.000000     0.000000
 
 Subroutine IBZKPT returns following result:
 ===========================================
 
 Found     36 irreducible k-points:
 
 Following reciprocal coordinates:
            Coordinates               Weight
  0.083333  0.083333  0.250000      2.000000
  0.250000  0.083333  0.250000      2.000000
  0.416667  0.083333  0.250000      2.000000
 -0.416667  0.083333  0.250000      2.000000
 -0.250000  0.083333  0.250000      2.000000
 -0.083333  0.083333  0.250000      2.000000
  0.083333  0.250000  0.250000      2.000000
  0.250000  0.250000  0.250000      2.000000
  0.416667  0.250000  0.250000      2.000000
 -0.416667  0.250000  0.250000      2.000000
 -0.250000  0.250000  0.250000      2.000000
 -0.083333  0.250000  0.250000      2.000000
  0.083333  0.416667  0.250000      2.000000
  0.250000  0.416667  0.250000      2.000000
  0.416667  0.416667  0.250000      2.000000
 -0.416667  0.416667  0.250000      2.000000
 -0.250000  0.416667  0.250000      2.000000
 -0.083333  0.416667  0.250000      2.000000
  0.083333 -0.416667  0.250000      2.000000
  0.250000 -0.416667  0.250000      2.000000
  0.416667 -0.416667  0.250000      2.000000
 -0.416667 -0.416667  0.250000      2.000000
 -0.250000 -0.416667  0.250000      2.000000
 -0.083333 -0.416667  0.250000      2.000000
  0.083333 -0.250000  0.250000      2.000000
  0.250000 -0.250000  0.250000      2.000000
  0.416667 -0.250000  0.250000      2.000000
 -0.416667 -0.250000  0.250000      2.000000
 -0.250000 -0.250000  0.250000      2.000000
 -0.083333 -0.250000  0.250000      2.000000
  0.083333 -0.083333  0.250000      2.000000
  0.250000 -0.083333  0.250000      2.000000
  0.416667 -0.083333  0.250000      2.000000
 -0.416667 -0.083333  0.250000      2.000000
 -0.250000 -0.083333  0.250000      2.000000
 -0.083333 -0.083333  0.250000      2.000000
 
 Following cartesian coordinates:
            Coordinates               Weight
  0.014769  0.025735  0.017183      2.000000
  0.044306  0.042671  0.017186      2.000000
  0.073844  0.059608  0.017190      2.000000
 -0.073844 -0.025075  0.017172      2.000000
 -0.044306 -0.008138  0.017176      2.000000
 -0.014769  0.008798  0.017179      2.000000
  0.014769  0.060268  0.016387      2.000000
  0.044306  0.077204  0.016391      2.000000
  0.073844  0.094141  0.016395      2.000000
 -0.073844  0.009458  0.016376      2.000000
 -0.044306  0.026394  0.016380      2.000000
 -0.014769  0.043331  0.016384      2.000000
  0.014769  0.094801  0.015592      2.000000
  0.044306  0.111737  0.015596      2.000000
  0.073844  0.128674  0.015599      2.000000
 -0.073844  0.043991  0.015581      2.000000
 -0.044306  0.060927  0.015585      2.000000
 -0.014769  0.077864  0.015588      2.000000
  0.014769 -0.077864  0.019569      2.000000
  0.044306 -0.060927  0.019573      2.000000
  0.073844 -0.043991  0.019577      2.000000
 -0.073844 -0.128674  0.019558      2.000000
 -0.044306 -0.111737  0.019562      2.000000
 -0.014769 -0.094801  0.019566      2.000000
  0.014769 -0.043331  0.018774      2.000000
  0.044306 -0.026394  0.018777      2.000000
  0.073844 -0.009458  0.018781      2.000000
 -0.073844 -0.094141  0.018763      2.000000
 -0.044306 -0.077204  0.018766      2.000000
 -0.014769 -0.060268  0.018770      2.000000
  0.014769 -0.008798  0.017978      2.000000
  0.044306  0.008138  0.017982      2.000000
  0.073844  0.025075  0.017986      2.000000
 -0.073844 -0.059608  0.017967      2.000000
 -0.044306 -0.042671  0.017971      2.000000
 -0.014769 -0.025735  0.017975      2.000000
 


--------------------------------------------------------------------------------------------------------




 Dimension of arrays:
   k-points           NKPTS =     36   k-points in BZ     NKDIM =     36   number of bands    NBANDS=    160
   number of dos      NEDOS =    301   number of ions     NIONS =     42
   non local maximal  LDIM  =      6   non local SUM 2l+1 LMDIM =     18
   total plane-waves  NPLWV = 116640
   max r-space proj   IRMAX =   2864   max aug-charges    IRDMAX=  12076
   dimension x,y,z NGX =    36 NGY =   36 NGZ =   90
   dimension x,y,z NGXF=    72 NGYF=   72 NGZF=  180
   support grid    NGXF=    72 NGYF=   72 NGZF=  180
   ions per type =               6  12  24
   NGX,Y,Z   is equivalent  to a cutoff of  10.61, 10.76, 10.52 a.u.
   NGXF,Y,Z  is equivalent  to a cutoff of  21.21, 21.52, 21.03 a.u.

 SYSTEM =  LiCoO2                                  
 POSCAR =  Li6 Co12 O24                            

 Startparameter for this run:
   NWRITE =      2    write-flag & timer
   PREC   = normal    normal or accurate (medium, high low for compatibility)
   ISTART =      0    job   : 0-new  1-cont  2-samecut
   ICHARG =      2    charge: 1-file 2-atom 10-const
   ISPIN  =      2    spin polarized calculation?
   LNONCOLLINEAR =      F non collinear calculations
   LSORBIT =      F    spin-orbit coupling
   INIWAV =      1    electr: 0-lowe 1-rand  2-diag
   LASPH  =      F    aspherical Exc in radial PAW
   METAGGA=      F    non-selfconsistent MetaGGA calc.

 Electronic Relaxation 1
   ENCUT  =  600.0 eV  44.10 Ry    6.64 a.u.  11.27 11.11 28.41*2*pi/ulx,y,z
   ENINI  =  600.0     initial cutoff
   ENAUG  =  605.4 eV  augmentation charge cutoff
   NELM   =    600;   NELMIN=  2; NELMDL= -5     # of ELM steps 
   EDIFF  = 0.1E-05   stopping-criterion for ELM
   LREAL  =      T    real-space projection
   NLSPLINE    = F    spline interpolate recip. space projectors
   LCOMPAT=      F    compatible to vasp.4.4
   GGA_COMPAT  = T    GGA compatible to vasp.4.4-vasp.4.6
   LMAXPAW     = -100 max onsite density
   LMAXMIX     =    2 max onsite mixed and CHGCAR
   VOSKOWN=      0    Vosko Wilk Nusair interpolation
   ROPT   =   -0.00050  -0.00050  -0.00050
 Ionic relaxation
   EDIFFG = 0.1E-04   stopping-criterion for IOM
   NSW    =      0    number of steps for IOM
   NBLOCK =      1;   KBLOCK =      1    inner block; outer block 
   IBRION =     -1    ionic relax: 0-MD 1-quasi-New 2-CG
   NFREE  =      0    steps in history (QN), initial steepest desc. (CG)
   ISIF   =      2    stress and relaxation
   IWAVPR =     10    prediction:  0-non 1-charg 2-wave 3-comb
   ISYM   =      0    0-nonsym 1-usesym 2-fastsym
   LCORR  =      T    Harris-Foulkes like correction to forces

   POTIM  = 0.5000    time-step for ionic-motion
   TEIN   =    0.0    initial temperature
   TEBEG  =    0.0;   TEEND  =   0.0 temperature during run
   SMASS  =  -3.00    Nose mass-parameter (am)
   estimated Nose-frequenzy (Omega)   =  0.10E-29 period in steps =****** mass=  -0.728E-27a.u.
   SCALEE = 1.0000    scale energy and forces
   NPACO  =    256;   APACO  = 16.0  distance and # of slots for P.C.
   PSTRESS=    0.0 pullay stress

  Mass of Ions in am
   POMASS =   7.01 58.93 16.00
  Ionic Valenz
   ZVAL   =   1.00  9.00  6.00
  Atomic Wigner-Seitz radii
   RWIGS  =  -1.00 -1.00 -1.00
  virtual crystal weights 
   VCA    =   1.00  1.00  1.00
   NELECT =     258.0000    total number of electrons
   NUPDOWN=       6.0000    fix difference up-down

 DOS related values:
   EMIN   =  10.00;   EMAX   =-10.00  energy-range for DOS
   EFERMI =   0.00
   ISMEAR =     0;   SIGMA  =   0.05  broadening in eV -4-tet -1-fermi 0-gaus

 Electronic relaxation 2 (details)
   IALGO  =     58    algorithm
   LDIAG  =      T    sub-space diagonalisation (order eigenvalues)
   LSUBROT=      F    optimize rotation matrix (better conditioning)
   TURBO    =      0    0=normal 1=particle mesh
   IRESTART =      0    0=no restart 2=restart with 2 vectors
   NREBOOT  =      0    no. of reboots
   NMIN     =      0    reboot dimension
   EREF     =   0.00    reference energy to select bands
   IMIX   =      4    mixing-type and parameters
     AMIX     =   0.40;   BMIX     =  1.00
     AMIX_MAG =   1.60;   BMIX_MAG =  1.00
     AMIN     =   0.10
     WC   =   100.;   INIMIX=   1;  MIXPRE=   1;  MAXMIX= -45

 Intra band minimization:
   WEIMIN = 0.0000     energy-eigenvalue tresh-hold
   EBREAK =  0.16E-08  absolut break condition
   DEPER  =   0.30     relativ break condition  

   TIME   =   0.40     timestep for ELM

  volume/ion in A,a.u.               =       9.22        62.23
  Fermi-wavevector in a.u.,A,eV,Ry     =   1.429773  2.701880 27.813729  2.044251
  Thomas-Fermi vector in A             =   2.549691
 
 Write flags
   LWAVE        =      F    write WAVECAR
   LDOWNSAMPLE  =      F    k-point downsampling of WAVECAR
   LCHARG       =      F    write CHGCAR
   LVTOT        =      F    write LOCPOT, total local potential
   LVHAR        =      F    write LOCPOT, Hartree potential only
   LELF         =      F    write electronic localiz. function (ELF)
   LORBIT       =     11    0 simple, 1 ext, 2 COOP (PROOUT), +10 PAW based schemes


 Dipole corrections
   LMONO  =      F    monopole corrections only (constant potential shift)
   LDIPOL =      F    correct potential (dipole corrections)
   IDIPOL =      0    1-x, 2-y, 3-z, 4-all directions 
   EPSILON=  1.0000000 bulk dielectric constant

 LDA+U is selected, type is set to LDAUTYPE =  2
   angular momentum for each species LDAUL =    -1    2   -1
   U (eV)           for each species LDAUU =   0.0  5.1  0.0
   J (eV)           for each species LDAUJ =   0.0  0.0  0.0
 Exchange correlation treatment:
   GGA     =    --    GGA type
   LEXCH   =     8    internal setting for exchange type
   VOSKOWN=      0    Vosko Wilk Nusair interpolation
   LHFCALC =     F    Hartree Fock is set to
   LHFONE  =     F    Hartree Fock one center treatment
   AEXX    =    0.0000 exact exchange contribution

 Linear response parameters
   LEPSILON=     F    determine dielectric tensor
   LRPA    =     F    only Hartree local field effects (RPA)
   LNABLA  =     F    use nabla operator in PAW spheres
   LVEL    =     F    velocity operator in full k-point grid
   LINTERFAST=   F  fast interpolation
   KINTER  =     0    interpolate to denser k-point grid
   CSHIFT  =0.1000    complex shift for real part using Kramers Kronig
   OMEGAMAX=  -1.0    maximum frequency
   DEG_THRESHOLD= 0.2000000E-02 threshold for treating states as degnerate
   RTIME   =   -0.100 relaxation time in fs
  (WPLASMAI=    0.000 imaginary part of plasma frequency in eV, 0.658/RTIME)
   DFIELD  = 0.0000000 0.0000000 0.0000000 field for delta impulse in time
 
 Orbital magnetization related:
   ORBITALMAG=     F  switch on orbital magnetization
   LCHIMAG   =     F  perturbation theory with respect to B field
   DQ        =  0.001000  dq finite difference perturbation B field
   LLRAUG    =     F  two centre corrections for induced B field



--------------------------------------------------------------------------------------------------------


 Static calculation
 charge density and potential will be updated during run
 spin polarized calculation
 Conjugate gradient for all bands (Freysoldt, et al. PRB 79, 241103 (2009))
 preconditioned conjugated gradient                                        
 perform sub-space diagonalisation
    before iterative eigenvector-optimisation
 modified Broyden-mixing scheme, WC =      100.0
 initial mixing is a Kerker type mixing with AMIX =  0.4000 and BMIX =      1.0000
 Hartree-type preconditioning will be used
 using additional bands           31
 real space projection scheme for non local part
 use partial core corrections
 no Harris-corrections to forces 
 use gradient corrections 
 use of overlap-Matrix (Vanderbilt PP)
 Gauss-broadening in eV      SIGMA  =   0.05


--------------------------------------------------------------------------------------------------------


  energy-cutoff  :      600.00
  volume of cell :      387.30
      direct lattice vectors                 reciprocal lattice vectors
     5.642545700  0.000000000  0.000000000     0.177224971  0.101619865  0.000021978
    -2.767379999  4.826308727  0.000000000     0.000000000  0.207197686 -0.004772774
    -0.189605489  0.327595979 14.221734047     0.000000000  0.000000000  0.070314914

  length of vectors
     5.642545700  5.563420530 14.226770142     0.204292163  0.207252649  0.070314914


 
 k-points in units of 2pi/SCALE and weight: read from INCAR                         
   0.01476875  0.02573480  0.01718283       0.028
   0.04430624  0.04267144  0.01718649       0.028
   0.07384374  0.05960808  0.01719015       0.028
  -0.07384374 -0.02507514  0.01717184       0.028
  -0.04430624 -0.00813849  0.01717550       0.028
  -0.01476875  0.00879815  0.01717917       0.028
   0.01476875  0.06026774  0.01638737       0.028
   0.04430624  0.07720439  0.01639103       0.028
   0.07384374  0.09414103  0.01639469       0.028
  -0.07384374  0.00945781  0.01637638       0.028
  -0.04430624  0.02639446  0.01638004       0.028
  -0.01476875  0.04333110  0.01638370       0.028
   0.01476875  0.09480069  0.01559190       0.028
   0.04430624  0.11173734  0.01559557       0.028
   0.07384374  0.12867398  0.01559923       0.028
  -0.07384374  0.04399076  0.01558091       0.028
  -0.04430624  0.06092740  0.01558458       0.028
  -0.01476875  0.07786405  0.01558824       0.028
   0.01476875 -0.07786405  0.01956922       0.028
   0.04430624 -0.06092740  0.01957288       0.028
   0.07384374 -0.04399076  0.01957654       0.028
  -0.07384374 -0.12867398  0.01955823       0.028
  -0.04430624 -0.11173734  0.01956189       0.028
  -0.01476875 -0.09480069  0.01956555       0.028
   0.01476875 -0.04333110  0.01877375       0.028
   0.04430624 -0.02639446  0.01877742       0.028
   0.07384374 -0.00945781  0.01878108       0.028
  -0.07384374 -0.09414103  0.01876276       0.028
  -0.04430624 -0.07720439  0.01876643       0.028
  -0.01476875 -0.06026774  0.01877009       0.028
   0.01476875 -0.00879815  0.01797829       0.028
   0.04430624  0.00813849  0.01798195       0.028
   0.07384374  0.02507514  0.01798562       0.028
  -0.07384374 -0.05960808  0.01796730       0.028
  -0.04430624 -0.04267144  0.01797097       0.028
  -0.01476875 -0.02573480  0.01797463       0.028
 
 k-points in reciprocal lattice and weights: read from INCAR                         
   0.08333333  0.08333333  0.25000000       0.028
   0.25000000  0.08333333  0.25000000       0.028
   0.41666667  0.08333333  0.25000000       0.028
  -0.41666667  0.08333333  0.25000000       0.028
  -0.25000000  0.08333333  0.25000000       0.028
  -0.08333333  0.08333333  0.25000000       0.028
   0.08333333  0.25000000  0.25000000       0.028
   0.25000000  0.25000000  0.25000000       0.028
   0.41666667  0.25000000  0.25000000       0.028
  -0.41666667  0.25000000  0.25000000       0.028
  -0.25000000  0.25000000  0.25000000       0.028
  -0.08333333  0.25000000  0.25000000       0.028
   0.08333333  0.41666667  0.25000000       0.028
   0.25000000  0.41666667  0.25000000       0.028
   0.41666667  0.41666667  0.25000000       0.028
  -0.41666667  0.41666667  0.25000000       0.028
  -0.25000000  0.41666667  0.25000000       0.028
  -0.08333333  0.41666667  0.25000000       0.028
   0.08333333 -0.41666667  0.25000000       0.028
   0.25000000 -0.41666667  0.25000000       0.028
   0.41666667 -0.41666667  0.25000000       0.028
  -0.41666667 -0.41666667  0.25000000       0.028
  -0.25000000 -0.41666667  0.25000000       0.028
  -0.08333333 -0.41666667  0.25000000       0.028
   0.08333333 -0.25000000  0.25000000       0.028
   0.25000000 -0.25000000  0.25000000       0.028
   0.41666667 -0.25000000  0.25000000       0.028
  -0.41666667 -0.25000000  0.25000000       0.028
  -0.25000000 -0.25000000  0.25000000       0.028
  -0.08333333 -0.25000000  0.25000000       0.028
   0.08333333 -0.08333333  0.25000000       0.028
   0.25000000 -0.08333333  0.25000000       0.028
   0.41666667 -0.08333333  0.25000000       0.028
  -0.41666667 -0.08333333  0.25000000       0.028
  -0.25000000 -0.08333333  0.25000000       0.028
  -0.08333333 -0.08333333  0.25000000       0.028
 
 position of ions in fractional coordinates (direct lattice) 
   0.50480501  0.04661056  0.00599224
   0.93921836  0.69011669  0.32666410
   0.12045010  0.31366828  0.66456873
   0.18727767  0.85940199  0.65642063
   0.68378502  0.36906209  0.67178023
   0.66758196  0.84594099  0.65805898
   0.16203415  0.30323304  0.15682053
   0.16811092  0.80277842  0.15068416
   0.69100989  0.30353575  0.16447924
   0.66389651  0.80308528  0.15666373
   0.00657721  0.01569022  0.50331556
   0.99685593  0.49723122  0.50229176
   0.49339197  0.01479412  0.49621796
   0.49981442  0.51415641  0.49998334
   0.32331044  0.18251390  0.83920919
   0.31422276  0.67032224  0.84533362
   0.82427819  0.18540478  0.84170534
   0.82957961  0.69889935  0.83842871
   0.00185498  0.96386135  0.22386651
   0.00435258  0.48093607  0.22608355
   0.53254119  0.97118567  0.22276889
   0.49270085  0.45218781  0.22262827
   0.34994106  0.16889528  0.08897930
   0.34360148  0.66005254  0.07922170
   0.84205790  0.15200039  0.07914999
   0.82901252  0.64676937  0.09411370
   0.33466827  0.17460007  0.57844493
   0.35117213  0.68265490  0.57603455
   0.83242151  0.17629796  0.58227707
   0.81735172  0.63771414  0.57734170
   0.15933565  0.32951799  0.43029984
   0.17183946  0.84449553  0.43069430
   0.67633488  0.36045681  0.43136722
   0.67355829  0.84950065  0.43644465
   0.16466319  0.34722284  0.91385549
   0.14251274  0.83665780  0.91597900
   0.65540092  0.34271365  0.90794202
   0.65313485  0.85388411  0.91274454
   0.99976570  0.02144457  0.76790283
   0.00605088  0.52965012  0.76922474
   0.49653163  0.01487921  0.76999825
   0.51250414  0.53908808  0.77648828
 
 position of ions in cartesian coordinates  (Angst):
   2.71826005  0.22691999  0.08522000
   3.32783008  3.43773007  4.64573002
  -0.31439999  1.73157001  9.45131969
  -1.44603002  4.36278009  9.33543968
   2.70957994  2.00128007  9.55387974
   1.30104995  4.29834986  9.35873985
   0.04539000  1.51487005  2.23025990
  -1.30158997  3.92382002  2.14299011
   3.02786994  1.51883996  2.33917999
   1.49391997  3.92725992  2.22802997
  -0.10174000  0.24061000  7.15802002
   4.15354013  2.56434011  7.14345980
   2.64896011  0.23396000  7.05707979
   1.30255997  2.64527011  7.11063004
   1.16008997  1.15578997 11.93500996
  -0.24230000  3.51210999 12.02210999
   3.97834992  1.17056000 11.97050953
   2.58785009  3.64776993 11.92391014
  -2.69935012  4.72523022  3.18376994
  -1.34923995  2.39521003  3.21530008
   0.27500999  4.76022005  3.16815996
   1.48650002  2.25533009  3.16616011
   1.49029005  0.84429002  1.26543999
   0.09715000  3.21157002  1.12667000
   4.31570005  0.75953001  1.12565005
   2.87003994  3.15233994  1.33845997
   1.29551995  1.03217006  8.22649002
  -0.01688000  3.48340988  8.19221020
   4.09869003  1.04162002  8.28098965
   2.73767996  3.26694012  8.21080017
  -0.09443000  1.73132002  6.11960983
  -1.44909000  4.21688986  6.12521982
   2.73693991  1.88099003  6.13478994
   1.36694002  4.24292994  6.20699978
  -0.20505001  1.97518003 12.99660969
  -1.68489003  4.33803987 13.02680969
   2.57755995  1.95148003 12.91250992
   1.14926004  4.42011976 12.98081017
   5.43627977  0.35506001 10.92090988
  -1.57745004  2.80824995 10.93970966
   2.61453009  0.32405999 10.95071030
   1.25274003  2.85617995 11.04300976
 


--------------------------------------------------------------------------------------------------------


 k-point  1 :   0.0833 0.0833 0.2500  plane waves:   12917
 k-point  2 :   0.2500 0.0833 0.2500  plane waves:   12900
 k-point  3 :   0.4167 0.0833 0.2500  plane waves:   12922
 k-point  4 :  -0.4167 0.0833 0.2500  plane waves:   12901
 k-point  5 :  -0.2500 0.0833 0.2500  plane waves:   12908
 k-point  6 :  -0.0833 0.0833 0.2500  plane waves:   12922
 k-point  7 :   0.0833 0.2500 0.2500  plane waves:   12938
 k-point  8 :   0.2500 0.2500 0.2500  plane waves:   12942
 k-point  9 :   0.4167 0.2500 0.2500  plane waves:   12928
 k-point 10 :  -0.4167 0.2500 0.2500  plane waves:   12918
 k-point 11 :  -0.2500 0.2500 0.2500  plane waves:   12914
 k-point 12 :  -0.0833 0.2500 0.2500  plane waves:   12921
 k-point 13 :   0.0833 0.4167 0.2500  plane waves:   12945
 k-point 14 :   0.2500 0.4167 0.2500  plane waves:   12934
 k-point 15 :   0.4167 0.4167 0.2500  plane waves:   12935
 k-point 16 :  -0.4167 0.4167 0.2500  plane waves:   12925
 k-point 17 :  -0.2500 0.4167 0.2500  plane waves:   12933
 k-point 18 :  -0.0833 0.4167 0.2500  plane waves:   12939
 k-point 19 :   0.0833-0.4167 0.2500  plane waves:   12935
 k-point 20 :   0.2500-0.4167 0.2500  plane waves:   12936
 k-point 21 :   0.4167-0.4167 0.2500  plane waves:   12931
 k-point 22 :  -0.4167-0.4167 0.2500  plane waves:   12938
 k-point 23 :  -0.2500-0.4167 0.2500  plane waves:   12935
 k-point 24 :  -0.0833-0.4167 0.2500  plane waves:   12932
 k-point 25 :   0.0833-0.2500 0.2500  plane waves:   12925
 k-point 26 :   0.2500-0.2500 0.2500  plane waves:   12916
 k-point 27 :   0.4167-0.2500 0.2500  plane waves:   12914
 k-point 28 :  -0.4167-0.2500 0.2500  plane waves:   12937
 k-point 29 :  -0.2500-0.2500 0.2500  plane waves:   12934
 k-point 30 :  -0.0833-0.2500 0.2500  plane waves:   12916
 k-point 31 :   0.0833-0.0833 0.2500  plane waves:   12932
 k-point 32 :   0.2500-0.0833 0.2500  plane waves:   12899
 k-point 33 :   0.4167-0.0833 0.2500  plane waves:   12907
 k-point 34 :  -0.4167-0.0833 0.2500  plane waves:   12911
 k-point 35 :  -0.2500-0.0833 0.2500  plane waves:   12919
 k-point 36 :  -0.0833-0.0833 0.2500  plane waves:   12915

 maximum and minimum number of plane-waves per node :      3267     3200

 maximum number of plane-waves:     12945
 maximum index in each direction: 
   IXMAX=   11   IYMAX=   11   IZMAX=   28
   IXMIN=  -11   IYMIN=  -11   IZMIN=  -28


 real space projection operators:
  total allocation   :       7649.92 KBytes
  max/ min on nodes  :       1916.28       1908.38


 parallel 3D FFT for wavefunctions:
    minimum data exchange during FFTs selected (reduces bandwidth)
 parallel 3D FFT for charge:
    minimum data exchange during FFTs selected (reduces bandwidth)


 total amount of memory used by VASP MPI-rank0   157721. kBytes
=======================================================================

   base      :      30000. kBytes
   nonlr-proj:       4375. kBytes
   fftplans  :       1687. kBytes
   grid      :       4644. kBytes
   one-center:        342. kBytes
   wavefun   :     116673. kBytes
 
     INWAV:  cpu time    0.0000: real time    0.0003
 Broyden mixing: mesh for mixing (old mesh)
   NGX = 23   NGY = 23   NGZ = 57
  (NGX  = 72   NGY  = 72   NGZ  =180)
  gives a total of  30153 points

 initial charge density was supplied:
 charge density of overlapping atoms calculated
 number of electron     258.0000000 magnetization       6.0000000
 keeping initial charge density in first step


--------------------------------------------------------------------------------------------------------


 Maximum index for non-local projection operator          704
 Maximum index for augmentation-charges          973 (set IRDMAX)


--------------------------------------------------------------------------------------------------------


 First call to EWALD:  gamma=   0.243
 Maximum number of real-space cells 4x 4x 2
 Maximum number of reciprocal cells 2x 2x 5

    FEWALD:  cpu time    0.0052: real time    0.0052


--------------------------------------- Iteration      1(   1)  ---------------------------------------


    POTLOK:  cpu time    0.0762: real time    0.1077
    SETDIJ:  cpu time    0.0208: real time    0.0216
    TRIAL :  cpu time   22.0863: real time   22.1887
    CORREC:  cpu time    0.0043: real time    0.0043
    --------------------------------------------
      LOOP:  cpu time   22.3881: real time   22.5250

 eigenvalue-minimisations  : 23040
 total energy-change (2. order) : 0.3484150E+04  (-0.1399407E+05)
 number of electron     258.0000000 magnetization       6.0000000
 augmentation part      258.0000000 magnetization       6.0000000

 Free energy of the ion-electron system (eV)
  ---------------------------------------------------
  alpha Z        PSCENC =       756.95832654
  Ewald energy   TEWEN  =    -14062.02916050
  -Hartree energ DENC   =     -7010.09418489
  -exchange      EXHF   =         0.00000000
  -V(xc)+E(xc)   XCENC  =       842.88273118
  PAW double counting   =     17015.18481625   -17491.61297812
  entropy T*S    EENTRO =        -0.00637077
  eigenvalues    EBANDS =      3263.99635978
  atomic energy  EATOM  =     20168.87094289
  ---------------------------------------------------
  free energy    TOTEN  =      3484.15048235 eV

  energy without entropy =     3484.15685312  energy(sigma->0) =     3484.15366774


--------------------------------------------------------------------------------------------------------




--------------------------------------- Iteration      1(   2)  ---------------------------------------


    TRIAL :  cpu time   23.4324: real time   23.4895
    CORREC:  cpu time    0.0046: real time    0.0046
    --------------------------------------------
      LOOP:  cpu time   23.4412: real time   23.4982

 eigenvalue-minimisations  : 24816
 total energy-change (2. order) :-0.3077472E+04  (-0.2839884E+04)
 number of electron     258.0000000 magnetization       6.0000000
 augmentation part      258.0000000 magnetization       6.0000000

 Free energy of the ion-electron system (eV)
  ---------------------------------------------------
  alpha Z        PSCENC =       756.95832654
  Ewald energy   TEWEN  =    -14062.02916050
  -Hartree energ DENC   =     -7010.09418489
  -exchange      EXHF   =         0.00000000
  -V(xc)+E(xc)   XCENC  =       842.88273118
  PAW double counting   =     17015.18481625   -17491.61297812
  entropy T*S    EENTRO =        -0.02314976
  eigenvalues    EBANDS =       186.54112028
  atomic energy  EATOM  =     20168.87094289
  ---------------------------------------------------
  free energy    TOTEN  =       406.67846386 eV

  energy without entropy =      406.70161362  energy(sigma->0) =      406.69003874


--------------------------------------------------------------------------------------------------------




--------------------------------------- Iteration      1(   3)  ---------------------------------------


    TRIAL :  cpu time   24.3765: real time   24.4888
    CORREC:  cpu time    0.0046: real time    0.0046
    --------------------------------------------
      LOOP:  cpu time   24.3859: real time   24.4982

 eigenvalue-minimisations  : 26000
 total energy-change (2. order) :-0.6259392E+03  (-0.5704068E+03)
 number of electron     258.0000000 magnetization       6.0000000
 augmentation part      258.0000000 magnetization       6.0000000

 Free energy of the ion-electron system (eV)
  ---------------------------------------------------
  alpha Z        PSCENC =       756.95832654
  Ewald energy   TEWEN  =    -14062.02916050
  -Hartree energ DENC   =     -7010.09418489
  -exchange      EXHF   =         0.00000000
  -V(xc)+E(xc)   XCENC  =       842.88273118
  PAW double counting   =     17015.18481625   -17491.61297812
  entropy T*S    EENTRO =        -0.03325254
  eigenvalues    EBANDS =      -439.38800438
  atomic energy  EATOM  =     20168.87094289
  ---------------------------------------------------
  free energy    TOTEN  =      -219.26076359 eV

  energy without entropy =     -219.22751104  energy(sigma->0) =     -219.24413732


--------------------------------------------------------------------------------------------------------




--------------------------------------- Iteration      1(   4)  ---------------------------------------


    TRIAL :  cpu time   23.3298: real time   23.4192
    CORREC:  cpu time    0.0040: real time    0.0053
    --------------------------------------------
      LOOP:  cpu time   23.3387: real time   23.4293

 eigenvalue-minimisations  : 25232
 total energy-change (2. order) :-0.5063713E+02  (-0.4944848E+02)
 number of electron     258.0000000 magnetization       6.0000000
 augmentation part      258.0000000 magnetization       6.0000000

 Free energy of the ion-electron system (eV)
  ---------------------------------------------------
  alpha Z        PSCENC =       756.95832654
  Ewald energy   TEWEN  =    -14062.02916050
  -Hartree energ DENC   =     -7010.09418489
  -exchange      EXHF   =         0.00000000
  -V(xc)+E(xc)   XCENC  =       842.88273118
  PAW double counting   =     17015.18481625   -17491.61297812
  entropy T*S    EENTRO =        -0.02514794
  eigenvalues    EBANDS =      -490.03323860
  atomic energy  EATOM  =     20168.87094289
  ---------------------------------------------------
  free energy    TOTEN  =      -269.89789320 eV

  energy without entropy =     -269.87274526  energy(sigma->0) =     -269.88531923


--------------------------------------------------------------------------------------------------------




--------------------------------------- Iteration      1(   5)  ---------------------------------------


    TRIAL :  cpu time   27.9014: real time   28.3032
    CORREC:  cpu time    0.0045: real time    0.0045
    CHARGE:  cpu time    0.4560: real time    0.4566
    --------------------------------------------
      LOOP:  cpu time   28.3661: real time   28.7686

 eigenvalue-minimisations  : 28656
 total energy-change (2. order) :-0.1761352E+01  (-0.1758627E+01)
 number of electron     257.9999989 magnetization       6.0000002
 augmentation part       67.9715262 magnetization       4.3107282

 Free energy of the ion-electron system (eV)
  ---------------------------------------------------
  alpha Z        PSCENC =       756.95832654
  Ewald energy   TEWEN  =    -14062.02916050
  -Hartree energ DENC   =     -7010.09418489
  -exchange      EXHF   =         0.00000000
  -V(xc)+E(xc)   XCENC  =       842.88273118
  PAW double counting   =     17015.18481625   -17491.61297812
  entropy T*S    EENTRO =        -0.02498082
  eigenvalues    EBANDS =      -491.79475800
  atomic energy  EATOM  =     20168.87094289
  ---------------------------------------------------
  free energy    TOTEN  =      -271.65924549 eV

  energy without entropy =     -271.63426466  energy(sigma->0) =     -271.64675507


--------------------------------------------------------------------------------------------------------




--------------------------------------- Iteration      1(   6)  ---------------------------------------


    POTLOK:  cpu time    0.0490: real time    0.0491
    SETDIJ:  cpu time    0.0129: real time    0.0129
    TRIAL :  cpu time   12.7836: real time   12.8116
    CORREC:  cpu time    4.3588: real time    4.3679
    CHARGE:  cpu time    0.4599: real time    0.4606
    --------------------------------------------
      LOOP:  cpu time   17.6682: real time   17.7063

 eigenvalue-minimisations  :     0
 total energy-change (2. order) : 0.3900472E+03  (-0.3466596E+03)
 number of electron     257.9999989 magnetization       6.0000002
 augmentation part       70.9511901 magnetization       4.4413922

 Free energy of the ion-electron system (eV)
  ---------------------------------------------------
  alpha Z        PSCENC =       756.95832654
  Ewald energy   TEWEN  =    -14062.02916050
  -Hartree energ DENC   =     -6695.08821112
  -exchange      EXHF   =         0.00000000
  -V(xc)+E(xc)   XCENC  =       876.86283683
  PAW double counting   =     23577.56679335   -23785.15828803
  entropy T*S    EENTRO =        -0.06422327
  eigenvalues    EBANDS =      -719.57027529
  atomic energy  EATOM  =     20168.87094289
  ---------------------------------------------------
  free energy    TOTEN  =       118.38798385 eV

  energy without entropy =      118.45220712  energy(sigma->0) =      118.42009548


--------------------------------------------------------------------------------------------------------




--------------------------------------- Iteration      1(   7)  ---------------------------------------


    POTLOK:  cpu time    0.0467: real time    0.0469
    SETDIJ:  cpu time    0.0127: real time    0.0127
    TRIAL :  cpu time   12.4706: real time   12.4971
    CORREC:  cpu time    4.4493: real time    4.4588
    CHARGE:  cpu time    0.4642: real time    0.4650
    --------------------------------------------
      LOOP:  cpu time   17.4481: real time   17.4852

 eigenvalue-minimisations  :     0
 total energy-change (2. order) :-0.9228155E+02  (-0.2000755E+03)
 number of electron     257.9999997 magnetization       5.9999995
 augmentation part       74.9841366 magnetization       4.1850070

 Free energy of the ion-electron system (eV)
  ---------------------------------------------------
  alpha Z        PSCENC =       756.95832654
  Ewald energy   TEWEN  =    -14062.02916050
  -Hartree energ DENC   =     -6748.39828397
  -exchange      EXHF   =         0.00000000
  -V(xc)+E(xc)   XCENC  =       865.95254949
  PAW double counting   =     23656.55731186   -23985.14460098
  entropy T*S    EENTRO =        -0.02986562
  eigenvalues    EBANDS =      -626.59642348
  atomic energy  EATOM  =     20168.87094289
  ---------------------------------------------------
  free energy    TOTEN  =        26.10643857 eV

  energy without entropy =       26.13630419  energy(sigma->0) =       26.12137138


--------------------------------------------------------------------------------------------------------




--------------------------------------- Iteration      1(   8)  ---------------------------------------


    POTLOK:  cpu time    0.0468: real time    0.0469
    SETDIJ:  cpu time    0.0127: real time    0.0127
    TRIAL :  cpu time   12.4983: real time   12.5292
    CORREC:  cpu time    4.5654: real time    4.5746
    CHARGE:  cpu time    0.4607: real time    0.4615
    --------------------------------------------
      LOOP:  cpu time   17.5885: real time   17.6296

 eigenvalue-minimisations  :     0
 total energy-change (2. order) :-0.1200080E+03  (-0.2749556E+03)
 number of electron     257.9999986 magnetization       6.0000006
 augmentation part       79.2455215 magnetization       3.5402311

 Free energy of the ion-electron system (eV)
  ---------------------------------------------------
  alpha Z        PSCENC =       756.95832654
  Ewald energy   TEWEN  =    -14062.02916050
  -Hartree energ DENC   =     -6937.37386111
  -exchange      EXHF   =         0.00000000
  -V(xc)+E(xc)   XCENC  =       852.09128032
  PAW double counting   =     23633.81400097   -24123.79989290
  entropy T*S    EENTRO =        -0.01343678
  eigenvalues    EBANDS =      -382.40336735
  atomic energy  EATOM  =     20168.87094289
  ---------------------------------------------------
  free energy    TOTEN  =       -93.90159676 eV

  energy without entropy =      -93.88815998  energy(sigma->0) =      -93.89487837


--------------------------------------------------------------------------------------------------------




--------------------------------------- Iteration      1(   9)  ---------------------------------------


    POTLOK:  cpu time    0.0473: real time    0.0474
    SETDIJ:  cpu time    0.0128: real time    0.0128
    TRIAL :  cpu time   12.5045: real time   12.5319
    CORREC:  cpu time    4.4437: real time    4.4531
    CHARGE:  cpu time    0.4645: real time    0.4653
    --------------------------------------------
      LOOP:  cpu time   17.4775: real time   17.5152

 eigenvalue-minimisations  :     0
 total energy-change (2. order) :-0.5167516E+01  (-0.5169472E+02)
 number of electron     257.9999989 magnetization       6.0000004
 augmentation part       80.0297142 magnetization       3.4018168

 Free energy of the ion-electron system (eV)
  ---------------------------------------------------
  alpha Z        PSCENC =       756.95832654
  Ewald energy   TEWEN  =    -14062.02916050
  -Hartree energ DENC   =     -7060.17735760
  -exchange      EXHF   =         0.00000000
  -V(xc)+E(xc)   XCENC  =       846.50698972
  PAW double counting   =     24237.27956082   -24894.61518161
  entropy T*S    EENTRO =        -0.02106150
  eigenvalues    EBANDS =       -91.84979649
  atomic energy  EATOM  =     20168.87094289
  ---------------------------------------------------
  free energy    TOTEN  =       -99.06911302 eV

  energy without entropy =      -99.04805152  energy(sigma->0) =      -99.05858227


--------------------------------------------------------------------------------------------------------




--------------------------------------- Iteration      1(  10)  ---------------------------------------


    POTLOK:  cpu time    0.0468: real time    0.0468
    SETDIJ:  cpu time    0.0129: real time    0.0129
    TRIAL :  cpu time   12.4137: real time   12.5239
    CORREC:  cpu time    4.3993: real time    4.4099
    CHARGE:  cpu time    0.4580: real time    0.4590
    --------------------------------------------
      LOOP:  cpu time   17.3348: real time   17.4567

 eigenvalue-minimisations  :     0
 total energy-change (2. order) :-0.2709239E+02  (-0.3023816E+02)
 number of electron     257.9999992 magnetization       6.0000001
 augmentation part       78.5448487 magnetization       3.5000537

 Free energy of the ion-electron system (eV)
  ---------------------------------------------------
  alpha Z        PSCENC =       756.95832654
  Ewald energy   TEWEN  =    -14062.02916050
  -Hartree energ DENC   =     -7059.40395132
  -exchange      EXHF   =         0.00000000
  -V(xc)+E(xc)   XCENC  =       845.14062420
  PAW double counting   =     24475.38694900   -25166.92033297
  entropy T*S    EENTRO =        -0.02585880
  eigenvalues    EBANDS =       -84.14384131
  atomic energy  EATOM  =     20168.87094289
  ---------------------------------------------------
  free energy    TOTEN  =      -126.16150499 eV

  energy without entropy =     -126.13564619  energy(sigma->0) =     -126.14857559


--------------------------------------------------------------------------------------------------------




--------------------------------------- Iteration      1(  11)  ---------------------------------------


    POTLOK:  cpu time    0.0469: real time    0.0470
    SETDIJ:  cpu time    0.0126: real time    0.0126
    TRIAL :  cpu time   12.4505: real time   12.4839
    CORREC:  cpu time    4.3634: real time    4.3730
    CHARGE:  cpu time    0.4552: real time    0.4562
    --------------------------------------------
      LOOP:  cpu time   17.3328: real time   17.3767

 eigenvalue-minimisations  :     0
 total energy-change (2. order) :-0.4972312E+02  (-0.2924921E+02)
 number of electron     257.9999990 magnetization       6.0000002
 augmentation part       75.7173038 magnetization       3.7246894

 Free energy of the ion-electron system (eV)
  ---------------------------------------------------
  alpha Z        PSCENC =       756.95832654
  Ewald energy   TEWEN  =    -14062.02916050
  -Hartree energ DENC   =     -7056.41707087
  -exchange      EXHF   =         0.00000000
  -V(xc)+E(xc)   XCENC  =       845.30006076
  PAW double counting   =     24093.55895591   -24716.93591650
  entropy T*S    EENTRO =        -0.02459615
  eigenvalues    EBANDS =      -205.16490897
  atomic energy  EATOM  =     20168.87094289
  ---------------------------------------------------
  free energy    TOTEN  =      -175.88462955 eV

  energy without entropy =     -175.86003339  energy(sigma->0) =     -175.87233147


--------------------------------------------------------------------------------------------------------




--------------------------------------- Iteration      1(  12)  ---------------------------------------


    POTLOK:  cpu time    0.0466: real time    0.0467
    SETDIJ:  cpu time    0.0128: real time    0.0128
    TRIAL :  cpu time   12.5083: real time   12.5415
    CORREC:  cpu time    4.3340: real time    4.3438
    CHARGE:  cpu time    0.4601: real time    0.4609
    --------------------------------------------
      LOOP:  cpu time   17.3658: real time   17.4098

 eigenvalue-minimisations  :     0
 total energy-change (2. order) :-0.2820640E+02  (-0.1031648E+02)
 number of electron     257.9999988 magnetization       6.0000004
 augmentation part       74.6941057 magnetization       3.8122169

 Free energy of the ion-electron system (eV)
  ---------------------------------------------------
  alpha Z        PSCENC =       756.95832654
  Ewald energy   TEWEN  =    -14062.02916050
  -Hartree energ DENC   =     -6942.75269426
  -exchange      EXHF   =         0.00000000
  -V(xc)+E(xc)   XCENC  =       847.33368510
  PAW double counting   =     23598.29309661   -24095.36208894
  entropy T*S    EENTRO =        -0.02584232
  eigenvalues    EBANDS =      -475.37853686
  atomic energy  EATOM  =     20168.87094289
  ---------------------------------------------------
  free energy    TOTEN  =      -204.09102557 eV

  energy without entropy =     -204.06518325  energy(sigma->0) =     -204.07810441


--------------------------------------------------------------------------------------------------------




--------------------------------------- Iteration      1(  13)  ---------------------------------------


    POTLOK:  cpu time    0.0464: real time    0.0465
    SETDIJ:  cpu time    0.0126: real time    0.0128
    TRIAL :  cpu time   12.4557: real time   12.6298
    CORREC:  cpu time    4.3265: real time    4.3352
    CHARGE:  cpu time    0.4593: real time    0.4601
    --------------------------------------------
      LOOP:  cpu time   17.3048: real time   17.4888

 eigenvalue-minimisations  :     0
 total energy-change (2. order) :-0.7799379E+01  (-0.3351533E+01)
 number of electron     257.9999990 magnetization       6.0000002
 augmentation part       74.8688322 magnetization       3.8147366

 Free energy of the ion-electron system (eV)
  ---------------------------------------------------
  alpha Z        PSCENC =       756.95832654
  Ewald energy   TEWEN  =    -14062.02916050
  -Hartree energ DENC   =     -6848.02719019
  -exchange      EXHF   =         0.00000000
  -V(xc)+E(xc)   XCENC  =       848.74795897
  PAW double counting   =     23520.83965417   -23971.43772998
  entropy T*S    EENTRO =        -0.02518526
  eigenvalues    EBANDS =      -625.78736436
  atomic energy  EATOM  =     20168.87094289
  ---------------------------------------------------
  free energy    TOTEN  =      -211.89040478 eV

  energy without entropy =     -211.86521952  energy(sigma->0) =     -211.87781215


--------------------------------------------------------------------------------------------------------




--------------------------------------- Iteration      1(  14)  ---------------------------------------


    POTLOK:  cpu time    0.0468: real time    0.0468
    SETDIJ:  cpu time    0.0127: real time    0.0127
    TRIAL :  cpu time   12.4976: real time   12.5326
    CORREC:  cpu time    4.5763: real time    4.5874
    CHARGE:  cpu time    0.4683: real time    0.4693
    --------------------------------------------
      LOOP:  cpu time   17.6057: real time   17.6528

 eigenvalue-minimisations  :     0
 total energy-change (2. order) :-0.2169675E+01  (-0.4499370E+01)
 number of electron     257.9999992 magnetization       6.0000001
 augmentation part       75.4274670 magnetization       3.7826867

 Free energy of the ion-electron system (eV)
  ---------------------------------------------------
  alpha Z        PSCENC =       756.95832654
  Ewald energy   TEWEN  =    -14062.02916050
  -Hartree energ DENC   =     -6873.89791868
  -exchange      EXHF   =         0.00000000
  -V(xc)+E(xc)   XCENC  =       849.93879401
  PAW double counting   =     23605.03568231   -24054.57766886
  entropy T*S    EENTRO =        -0.02171631
  eigenvalues    EBANDS =      -604.33389183
  atomic energy  EATOM  =     20168.87094289
  ---------------------------------------------------
  free energy    TOTEN  =      -214.06007939 eV

  energy without entropy =     -214.03836308  energy(sigma->0) =     -214.04922123


--------------------------------------------------------------------------------------------------------




--------------------------------------- Iteration      1(  15)  ---------------------------------------


    POTLOK:  cpu time    0.0460: real time    0.0461
    SETDIJ:  cpu time    0.0128: real time    0.0128
    TRIAL :  cpu time   12.4247: real time   12.4611
    CORREC:  cpu time    4.4398: real time    4.4514
    CHARGE:  cpu time    0.4641: real time    0.4650
    --------------------------------------------
      LOOP:  cpu time   17.3919: real time   17.4408

 eigenvalue-minimisations  :     0
 total energy-change (2. order) :-0.2746118E+01  (-0.1694205E+01)
 number of electron     257.9999991 magnetization       6.0000002
 augmentation part       75.7991244 magnetization       3.7539686

 Free energy of the ion-electron system (eV)
  ---------------------------------------------------
  alpha Z        PSCENC =       756.95832654
  Ewald energy   TEWEN  =    -14062.02916050
  -Hartree energ DENC   =     -6953.98119208
  -exchange      EXHF   =         0.00000000
  -V(xc)+E(xc)   XCENC  =       851.46917955
  PAW double counting   =     23783.94947131   -24243.81849118
  entropy T*S    EENTRO =        -0.02209758
  eigenvalues    EBANDS =      -518.20355798
  atomic energy  EATOM  =     20168.87094289
  ---------------------------------------------------
  free energy    TOTEN  =      -216.80619777 eV

  energy without entropy =     -216.78410019  energy(sigma->0) =     -216.79514898


--------------------------------------------------------------------------------------------------------




--------------------------------------- Iteration      1(  16)  ---------------------------------------


    POTLOK:  cpu time    0.0473: real time    0.0474
    SETDIJ:  cpu time    0.0128: real time    0.0128
    TRIAL :  cpu time   12.4987: real time   12.5343
    CORREC:  cpu time    4.3433: real time    4.3540
    CHARGE:  cpu time    0.4746: real time    0.4755
    --------------------------------------------
      LOOP:  cpu time   17.3809: real time   17.4282

 eigenvalue-minimisations  :     0
 total energy-change (2. order) :-0.1537145E+01  (-0.8822766E+00)
 number of electron     257.9999990 magnetization       6.0000003
 augmentation part       75.9360640 magnetization       3.7456280

 Free energy of the ion-electron system (eV)
  ---------------------------------------------------
  alpha Z        PSCENC =       756.95832654
  Ewald energy   TEWEN  =    -14062.02916050
  -Hartree energ DENC   =     -6969.37203282
  -exchange      EXHF   =         0.00000000
  -V(xc)+E(xc)   XCENC  =       851.95750522
  PAW double counting   =     23875.18550339   -24343.59969547
  entropy T*S    EENTRO =        -0.02182608
  eigenvalues    EBANDS =      -496.29263485
  atomic energy  EATOM  =     20168.87094289
  ---------------------------------------------------
  free energy    TOTEN  =      -218.34334318 eV

  energy without entropy =     -218.32151710  energy(sigma->0) =     -218.33243014


--------------------------------------------------------------------------------------------------------




--------------------------------------- Iteration      1(  17)  ---------------------------------------


    POTLOK:  cpu time    0.0458: real time    0.0460
    SETDIJ:  cpu time    0.0128: real time    0.0129
    TRIAL :  cpu time   12.3594: real time   12.3952
    CORREC:  cpu time    4.4680: real time    4.4783
    CHARGE:  cpu time    0.4585: real time    0.4595
    --------------------------------------------
      LOOP:  cpu time   17.3487: real time   17.3960

 eigenvalue-minimisations  :     0
 total energy-change (2. order) :-0.8119628E+00  (-0.6298919E+00)
 number of electron     257.9999990 magnetization       6.0000003
 augmentation part       75.9843708 magnetization       3.7360325

 Free energy of the ion-electron system (eV)
  ---------------------------------------------------
  alpha Z        PSCENC =       756.95832654
  Ewald energy   TEWEN  =    -14062.02916050
  -Hartree energ DENC   =     -6971.28439943
  -exchange      EXHF   =         0.00000000
  -V(xc)+E(xc)   XCENC  =       851.95090354
  PAW double counting   =     23892.23036787   -24363.41261860
  entropy T*S    EENTRO =        -0.02095069
  eigenvalues    EBANDS =      -492.41784226
  atomic energy  EATOM  =     20168.87094289
  ---------------------------------------------------
  free energy    TOTEN  =      -219.15530603 eV

  energy without entropy =     -219.13435534  energy(sigma->0) =     -219.14483068


--------------------------------------------------------------------------------------------------------




--------------------------------------- Iteration      1(  18)  ---------------------------------------


    POTLOK:  cpu time    0.0469: real time    0.0470
    SETDIJ:  cpu time    0.0127: real time    0.0127
    TRIAL :  cpu time   12.5928: real time   12.6306
    CORREC:  cpu time    4.3459: real time    4.3565
    CHARGE:  cpu time    0.4568: real time    0.4576
    --------------------------------------------
      LOOP:  cpu time   17.4605: real time   17.5099

 eigenvalue-minimisations  :     0
 total energy-change (2. order) :-0.5790677E+00  (-0.3345676E+00)
 number of electron     257.9999990 magnetization       6.0000003
 augmentation part       75.9319089 magnetization       3.7260799

 Free energy of the ion-electron system (eV)
  ---------------------------------------------------
  alpha Z        PSCENC =       756.95832654
  Ewald energy   TEWEN  =    -14062.02916050
  -Hartree energ DENC   =     -6979.48872790
  -exchange      EXHF   =         0.00000000
  -V(xc)+E(xc)   XCENC  =       851.75979163
  PAW double counting   =     23872.09296172   -24343.00067068
  entropy T*S    EENTRO =        -0.02006869
  eigenvalues    EBANDS =      -484.87688674
  atomic energy  EATOM  =     20168.87094289
  ---------------------------------------------------
  free energy    TOTEN  =      -219.73437374 eV

  energy without entropy =     -219.71430505  energy(sigma->0) =     -219.72433940


--------------------------------------------------------------------------------------------------------




--------------------------------------- Iteration      1(  19)  ---------------------------------------


    POTLOK:  cpu time    0.0495: real time    0.0497
    SETDIJ:  cpu time    0.0128: real time    0.0128
    TRIAL :  cpu time   12.7034: real time   12.7397
    CORREC:  cpu time    4.3662: real time    4.3770
    CHARGE:  cpu time    0.4588: real time    0.4597
    --------------------------------------------
      LOOP:  cpu time   17.5950: real time   17.6431

 eigenvalue-minimisations  :     0
 total energy-change (2. order) :-0.3262456E+00  (-0.1584061E+00)
 number of electron     257.9999990 magnetization       6.0000003
 augmentation part       75.8963116 magnetization       3.7194747

 Free energy of the ion-electron system (eV)
  ---------------------------------------------------
  alpha Z        PSCENC =       756.95832654
  Ewald energy   TEWEN  =    -14062.02916050
  -Hartree energ DENC   =     -6968.70085903
  -exchange      EXHF   =         0.00000000
  -V(xc)+E(xc)   XCENC  =       851.45267685
  PAW double counting   =     23813.17139095   -24280.31043791
  entropy T*S    EENTRO =        -0.01965694
  eigenvalues    EBANDS =      -499.45343048
  atomic energy  EATOM  =     20168.87094289
  ---------------------------------------------------
  free energy    TOTEN  =      -220.06061939 eV

  energy without entropy =     -220.04096245  energy(sigma->0) =     -220.05079092


--------------------------------------------------------------------------------------------------------




--------------------------------------- Iteration      1(  20)  ---------------------------------------


    POTLOK:  cpu time    0.0466: real time    0.0466
    SETDIJ:  cpu time    0.0128: real time    0.0128
    TRIAL :  cpu time   12.5335: real time   12.5719
    CORREC:  cpu time    4.4936: real time    4.5048
    CHARGE:  cpu time    0.4574: real time    0.4583
    --------------------------------------------
      LOOP:  cpu time   17.5479: real time   17.5985

 eigenvalue-minimisations  :     0
 total energy-change (2. order) :-0.1455691E+00  (-0.2774087E+00)
 number of electron     257.9999990 magnetization       6.0000003
 augmentation part       75.8919022 magnetization       3.6795308

 Free energy of the ion-electron system (eV)
  ---------------------------------------------------
  alpha Z        PSCENC =       756.95832654
  Ewald energy   TEWEN  =    -14062.02916050
  -Hartree energ DENC   =     -6958.62383156
  -exchange      EXHF   =         0.00000000
  -V(xc)+E(xc)   XCENC  =       851.27190174
  PAW double counting   =     23769.93028851   -24234.60928689
  entropy T*S    EENTRO =        -0.01762434
  eigenvalues    EBANDS =      -511.95571224
  atomic energy  EATOM  =     20168.87094289
  ---------------------------------------------------
  free energy    TOTEN  =      -220.20618845 eV

  energy without entropy =     -220.18856411  energy(sigma->0) =     -220.19737628


--------------------------------------------------------------------------------------------------------




--------------------------------------- Iteration      1(  21)  ---------------------------------------


    POTLOK:  cpu time    0.0572: real time    0.0573
    SETDIJ:  cpu time    0.0149: real time    0.0149
    TRIAL :  cpu time   12.4704: real time   12.5051
    CORREC:  cpu time    4.3674: real time    4.3787
    CHARGE:  cpu time    0.4678: real time    0.4687
    --------------------------------------------
      LOOP:  cpu time   17.3818: real time   17.4289

 eigenvalue-minimisations  :     0
 total energy-change (2. order) :-0.2793615E+00  (-0.9527638E-01)
 number of electron     257.9999990 magnetization       6.0000003
 augmentation part       75.9495136 magnetization       3.6620245

 Free energy of the ion-electron system (eV)
  ---------------------------------------------------
  alpha Z        PSCENC =       756.95832654
  Ewald energy   TEWEN  =    -14062.02916050
  -Hartree energ DENC   =     -6949.91993740
  -exchange      EXHF   =         0.00000000
  -V(xc)+E(xc)   XCENC  =       850.98099644
  PAW double counting   =     23663.79615748   -24125.00583263
  entropy T*S    EENTRO =        -0.01628499
  eigenvalues    EBANDS =      -524.11941845
  atomic energy  EATOM  =     20168.87094289
  ---------------------------------------------------
  free energy    TOTEN  =      -220.48554998 eV

  energy without entropy =     -220.46926499  energy(sigma->0) =     -220.47740748


--------------------------------------------------------------------------------------------------------




--------------------------------------- Iteration      1(  22)  ---------------------------------------


    POTLOK:  cpu time    0.0464: real time    0.0464
    SETDIJ:  cpu time    0.0129: real time    0.0129
    TRIAL :  cpu time   12.6167: real time   12.6530
    CORREC:  cpu time    4.3232: real time    4.3333
    CHARGE:  cpu time    0.4606: real time    0.4616
    --------------------------------------------
      LOOP:  cpu time   17.4642: real time   17.5117

 eigenvalue-minimisations  :     0
 total energy-change (2. order) :-0.9321394E-01  (-0.6952843E-01)
 number of electron     257.9999990 magnetization       6.0000003
 augmentation part       76.0171388 magnetization       3.6539584

 Free energy of the ion-electron system (eV)
  ---------------------------------------------------
  alpha Z        PSCENC =       756.95832654
  Ewald energy   TEWEN  =    -14062.02916050
  -Hartree energ DENC   =     -6951.75358620
  -exchange      EXHF   =         0.00000000
  -V(xc)+E(xc)   XCENC  =       851.07813273
  PAW double counting   =     23639.17944029   -24101.23633904
  entropy T*S    EENTRO =        -0.01524539
  eigenvalues    EBANDS =      -521.63023564
  atomic energy  EATOM  =     20168.87094289
  ---------------------------------------------------
  free energy    TOTEN  =      -220.57876392 eV

  energy without entropy =     -220.56351853  energy(sigma->0) =     -220.57114123


--------------------------------------------------------------------------------------------------------




--------------------------------------- Iteration      1(  23)  ---------------------------------------


    POTLOK:  cpu time    0.0462: real time    0.0463
    SETDIJ:  cpu time    0.0128: real time    0.0129
    TRIAL :  cpu time   12.5486: real time   12.5841
    CORREC:  cpu time    4.4110: real time    4.4220
    CHARGE:  cpu time    0.4716: real time    0.4725
    --------------------------------------------
      LOOP:  cpu time   17.4945: real time   17.5419

 eigenvalue-minimisations  :     0
 total energy-change (2. order) :-0.6736162E-01  (-0.9431387E-01)
 number of electron     257.9999990 magnetization       6.0000004
 augmentation part       76.0899418 magnetization       3.6529046

 Free energy of the ion-electron system (eV)
  ---------------------------------------------------
  alpha Z        PSCENC =       756.95832654
  Ewald energy   TEWEN  =    -14062.02916050
  -Hartree energ DENC   =     -6960.25230893
  -exchange      EXHF   =         0.00000000
  -V(xc)+E(xc)   XCENC  =       851.33229213
  PAW double counting   =     23629.49613228   -24093.11091933
  entropy T*S    EENTRO =        -0.01386968
  eigenvalues    EBANDS =      -511.89618523
  atomic energy  EATOM  =     20168.87094289
  ---------------------------------------------------
  free energy    TOTEN  =      -220.64612554 eV

  energy without entropy =     -220.63225586  energy(sigma->0) =     -220.63919070


--------------------------------------------------------------------------------------------------------




--------------------------------------- Iteration      1(  24)  ---------------------------------------


    POTLOK:  cpu time    0.0462: real time    0.0463
    SETDIJ:  cpu time    0.0128: real time    0.0128
    TRIAL :  cpu time   12.4883: real time   12.5221
    CORREC:  cpu time    4.3437: real time    4.3528
    CHARGE:  cpu time    0.4622: real time    0.4629
    --------------------------------------------
      LOOP:  cpu time   17.3580: real time   17.4016

 eigenvalue-minimisations  :     0
 total energy-change (2. order) :-0.9487496E-01  (-0.8039899E-01)
 number of electron     257.9999989 magnetization       6.0000004
 augmentation part       76.0909159 magnetization       3.6628478

 Free energy of the ion-electron system (eV)
  ---------------------------------------------------
  alpha Z        PSCENC =       756.95832654
  Ewald energy   TEWEN  =    -14062.02916050
  -Hartree energ DENC   =     -6973.88280494
  -exchange      EXHF   =         0.00000000
  -V(xc)+E(xc)   XCENC  =       851.82279262
  PAW double counting   =     23624.80901269   -24090.07417891
  entropy T*S    EENTRO =        -0.01333495
  eigenvalues    EBANDS =      -497.20206120
  atomic energy  EATOM  =     20168.87094289
  ---------------------------------------------------
  free energy    TOTEN  =      -220.74100050 eV

  energy without entropy =     -220.72766555  energy(sigma->0) =     -220.73433302


--------------------------------------------------------------------------------------------------------




--------------------------------------- Iteration      1(  25)  ---------------------------------------


    POTLOK:  cpu time    0.0462: real time    0.0463
    SETDIJ:  cpu time    0.0128: real time    0.0128
    TRIAL :  cpu time   12.7003: real time   12.7347
    CORREC:  cpu time    4.3936: real time    4.4028
    CHARGE:  cpu time    0.4711: real time    0.4718
    --------------------------------------------
      LOOP:  cpu time   17.6280: real time   17.6724

 eigenvalue-minimisations  :     0
 total energy-change (2. order) :-0.8006558E-01  (-0.1250654E+00)
[...]
   20        1.574   3.435   0.000   5.010
   21        1.585   3.394   0.000   4.979
   22        1.580   3.359   0.000   4.939
   23        1.576   3.395   0.000   4.971
   24        1.580   3.359   0.000   4.939
   25        1.580   3.362   0.000   4.942
   26        1.587   3.374   0.000   4.961
   27        1.554   3.484   0.000   5.037
   28        1.553   3.479   0.000   5.032
   29        1.550   3.499   0.000   5.050
   30        1.554   3.482   0.000   5.036
   31        1.581   3.350   0.000   4.932
   32        1.563   3.431   0.000   4.995
   33        1.572   3.393   0.000   4.965
   34        1.575   3.384   0.000   4.959
   35        1.586   3.344   0.000   4.930
   36        1.581   3.345   0.000   4.926
   37        1.574   3.396   0.000   4.970
   38        1.582   3.353   0.000   4.935
   39        1.558   3.478   0.000   5.036
   40        1.560   3.453   0.000   5.013
   41        1.558   3.446   0.000   5.005
   42        1.563   3.468   0.000   5.031
--------------------------------------------------
tot         43.622  91.451  87.550 222.623
 


 magnetization (x)
 
# of ion       s       p       d       tot
------------------------------------------
    1       -0.000  -0.003   0.000  -0.003
    2        0.001   0.001   0.000   0.002
    3        0.000  -0.001   0.000  -0.000
    4        0.000  -0.001   0.000  -0.001
    5        0.001  -0.001   0.000  -0.000
    6        0.001   0.000   0.000   0.001
    7        0.004   0.006   0.003   0.012
    8        0.015   0.017   1.438   1.470
    9        0.013   0.018   1.287   1.318
   10        0.013   0.018   1.290   1.321
   11        0.002   0.002  -0.011  -0.007
   12        0.002   0.002  -0.009  -0.006
   13        0.002   0.002  -0.011  -0.007
   14        0.011   0.008   1.427   1.447
   15        0.004   0.006  -0.002   0.008
   16        0.011   0.011   1.358   1.380
   17        0.004   0.005  -0.007   0.002
   18        0.011   0.015   1.364   1.390
   19        0.000  -0.118   0.000  -0.118
   20        0.001  -0.088   0.000  -0.087
   21        0.002  -0.100   0.000  -0.099
   22        0.001  -0.136   0.000  -0.136
   23       -0.000  -0.140   0.000  -0.140
   24        0.001  -0.126   0.000  -0.126
   25        0.001  -0.114   0.000  -0.114
   26        0.001  -0.165   0.000  -0.164
   27        0.001  -0.016   0.000  -0.015
   28        0.001  -0.025   0.000  -0.025
   29       -0.000  -0.007   0.000  -0.007
   30        0.001  -0.028   0.000  -0.028
   31       -0.000  -0.129   0.000  -0.129
   32       -0.000  -0.000   0.000  -0.000
   33       -0.000  -0.092   0.000  -0.092
   34        0.000  -0.094   0.000  -0.094
   35        0.000  -0.078   0.000  -0.077
   36        0.000  -0.141   0.000  -0.140
   37       -0.000  -0.086   0.000  -0.087
   38        0.000  -0.187   0.000  -0.187
   39        0.000  -0.026   0.000  -0.026
   40        0.001  -0.062   0.000  -0.061
   41        0.001  -0.024   0.000  -0.024
   42        0.001  -0.054   0.000  -0.054
--------------------------------------------------
tot          0.106  -1.935   8.127   6.298
 
    FORLOC:  cpu time    0.0048: real time    0.0049
    FORNL :  cpu time    4.3962: real time    4.4405
    STRESS:  cpu time   12.4647: real time   12.5037
    FORCOR:  cpu time    0.0504: real time    0.0514
    OFIELD:  cpu time    0.0004: real time    0.0041

  DFT-D2 method for vdW energy calculation
  -------------------------------------------------------------------

  Parameters of vdW forcefield:
         C6(Jnm^6/mol)     R0(A)
   -----------------------------
   Li       1.610          0.825
   Co      10.800          1.562
   O        0.700          1.342

  IVDW =   1
  VDW_RADIUS =    50.000 A
  VDW_S6 =     0.750
  VDW_SR =     1.000
  VDW_D =    20.000
  LVDW_EWALD = F

  Number of pair interactions contributing to vdW energy: 1221318
  Edisp (eV):   -9.75752
    FORVDW:  cpu time    0.1771: real time    0.1781

  FORCE on cell =-STRESS in cart. coord.  units (eV):
  Direction    XX          YY          ZZ          XY          YZ          ZX
  --------------------------------------------------------------------------------------
  Alpha Z   756.95833   756.95833   756.95833
  Ewald   -1741.76584 -1815.71172-10504.61891    26.03806    -9.88113    -8.69189
  Hartree  4518.14783  4478.85851 -2046.47752     5.84344     1.66291    -4.90627
  E(xc)   -1285.02579 -1285.03625 -1285.71000     0.10686    -0.14548    -0.05203
  Local   -7741.84233 -7624.34552  7554.64557   -26.60301     1.25755    14.26928
  n-local  -594.17591  -594.03578  -599.70681     0.73778     0.08995     0.86199
  augment  2025.32805  2020.67909  1999.37197    -2.22683     3.42462    -0.70471
  Kinetic  4069.29899  4072.62202  4128.32428    -5.56775     6.76401     2.22711
  Fock        0.00000     0.00000     0.00000     0.00000     0.00000     0.00000
  vdW        -7.00435    -6.63768   -13.86924     0.07983    -0.17385    -0.03783
  -------------------------------------------------------------------------------------
  Total      -0.08103     3.35101   -11.08232    -1.59162     2.99858     2.96565
  in kB      -0.33519    13.86256   -45.84571    -6.58425    12.40463    12.26841
  external pressure =      -10.77 kB  Pullay stress =        0.00 kB


 VOLUME and BASIS-vectors are now :
 -----------------------------------------------------------------------------
  energy-cutoff  :      600.00
  volume of cell :      387.30
      direct lattice vectors                 reciprocal lattice vectors
     5.642545700  0.000000000  0.000000000     0.177224971  0.101619865  0.000021978
    -2.767379999  4.826308727  0.000000000     0.000000000  0.207197686 -0.004772774
    -0.189605489  0.327595979 14.221734047     0.000000000  0.000000000  0.070314914

  length of vectors
     5.642545700  5.563420530 14.226770142     0.204292163  0.207252649  0.070314914


 FORCES acting on ions:
    Electron-Ion                     Ewald-Force                    Non-Local-Force
 -----------------------------------------------------------------------------------------------
   0.314E+00 0.145E+01 0.304E+01   -.407E+00 -.987E+00 -.275E+01   0.514E+00 -.819E+00 -.105E+01
   0.468E+01 0.151E+01 -.726E+01   -.415E+01 -.102E+01 0.771E+01   -.902E+00 -.671E+00 -.112E+00
   -.576E+01 -.581E+01 -.100E+01   0.529E+01 0.535E+01 0.125E+00   0.113E+01 0.103E+01 0.105E+01
   0.135E+01 0.312E+01 -.642E+01   -.105E+01 -.278E+01 0.581E+01   -.240E+00 -.757E+00 0.117E+01
   0.294E+01 0.337E+01 0.284E+01   -.278E+01 -.323E+01 -.392E+01   -.316E+00 -.923E+00 0.114E+01
   -.119E+01 0.211E+01 -.612E+01   0.786E+00 -.190E+01 0.523E+01   0.341E+00 -.338E+00 0.130E+01
   0.664E+00 -.174E+02 -.171E+03   0.134E+01 0.173E+02 0.170E+03   -.873E+00 0.113E+01 -.230E+00
   -.288E+02 -.433E+02 -.140E+03   0.287E+02 0.447E+02 0.140E+03   0.494E+00 0.656E+00 0.107E+01
   0.384E+02 0.935E+01 -.192E+03   -.414E+02 -.878E+01 0.191E+03   -.635E+00 0.184E+00 -.127E+01
   -.291E+00 0.168E+02 -.162E+03   0.131E+01 -.176E+02 0.162E+03   0.213E+00 0.500E+00 -.456E+00
   -.262E-01 0.398E+02 0.570E+02   -.854E-01 -.404E+02 -.598E+02   -.948E-01 -.126E+01 0.297E+01
   -.337E+02 -.276E+02 0.954E+02   0.334E+02 0.281E+02 -.975E+02   0.770E+00 0.713E+00 0.161E+01
   -.122E+02 -.307E+01 0.125E+03   0.130E+02 0.264E+01 -.127E+03   0.969E+00 0.587E+00 0.327E+01
   0.221E+02 0.902E+01 0.122E+03   -.217E+02 -.932E+01 -.123E+03   0.593E-01 -.562E+00 0.779E+00
   -.711E+01 0.105E+02 0.857E+02   0.794E+01 -.104E+02 -.833E+02   0.332E-02 -.399E-01 -.990E+00
   0.789E+01 -.233E+02 0.504E+02   -.764E+01 0.247E+02 -.487E+02   0.421E+00 0.498E+00 -.748E+00
   -.162E+02 -.130E+02 0.772E+02   0.158E+02 0.130E+02 -.752E+02   0.106E+01 0.875E-01 -.173E+01
   -.198E+02 0.137E+02 0.569E+02   0.207E+02 -.145E+02 -.533E+02   0.345E+00 -.432E+00 -.489E+00
   -.144E+02 -.542E+01 -.427E+03   0.145E+02 0.790E+01 0.448E+03   -.389E-01 -.286E+01 -.209E+02
   -.379E+02 -.188E+02 -.444E+03   0.446E+02 0.191E+02 0.468E+03   -.541E+01 -.189E+00 -.231E+02
   0.513E+02 0.241E+02 -.444E+03   -.571E+02 -.272E+02 0.471E+03   0.383E+01 0.249E+01 -.261E+02
   0.134E+02 0.273E+01 -.426E+03   -.154E+02 -.380E+01 0.449E+03   0.241E+01 0.211E+01 -.228E+02
   -.103E+02 -.476E+01 0.192E+03   0.871E+01 0.977E+01 -.210E+03   0.208E+01 -.650E+01 0.190E+02
   -.654E+01 0.190E+02 0.200E+03   0.886E+01 -.252E+02 -.222E+03   -.241E+01 0.580E+01 0.241E+02
   -.587E+01 -.397E+00 0.216E+03   0.981E+01 0.998E+00 -.238E+03   -.428E+01 -.956E+00 0.238E+02
   0.299E+01 0.129E+02 0.221E+03   -.412E+01 -.162E+02 -.247E+03   0.188E+01 0.255E+01 0.253E+02
   0.562E+00 0.470E+01 -.248E+03   0.160E+01 -.288E+01 0.261E+03   -.240E+01 -.150E+01 -.131E+02
   0.155E+02 -.260E-01 -.243E+03   -.167E+02 0.506E+00 0.255E+03   0.310E+00 -.113E+01 -.121E+02
   0.421E+01 0.235E+02 -.236E+03   -.811E+01 -.256E+02 0.246E+03   0.387E+01 0.147E+01 -.105E+02
   -.259E+01 -.332E+02 -.240E+03   0.326E+01 0.338E+02 0.250E+03   -.685E+00 0.146E+01 -.103E+02
   -.499E+01 -.186E+02 0.381E+03   0.535E+01 0.198E+02 -.408E+03   -.279E+00 0.128E+00 0.273E+02
   0.726E+01 0.860E+01 0.362E+03   -.748E+01 -.826E+01 -.381E+03   -.751E+00 -.610E+00 0.199E+02
   0.325E+01 0.273E+01 0.377E+03   -.353E+01 -.388E+01 -.400E+03   -.178E+00 0.987E+00 0.229E+02
   -.515E+00 -.927E+01 0.369E+03   0.608E+00 0.119E+02 -.393E+03   -.179E+00 -.273E+01 0.238E+02
   -.291E+00 0.240E+02 -.276E+03   0.252E+00 -.273E+02 0.302E+03   -.338E+00 0.305E+01 -.278E+02
   0.512E+01 -.626E+01 -.269E+03   -.705E+01 0.577E+01 0.293E+03   0.250E+01 0.780E+00 -.249E+02
   0.702E+01 -.203E+02 -.266E+03   -.794E+01 0.246E+02 0.287E+03   0.817E+00 -.365E+01 -.223E+02
   -.117E+02 0.106E+02 -.268E+03   0.143E+02 -.126E+02 0.292E+03   -.232E+01 0.149E+01 -.246E+02
   0.172E+01 -.177E+02 0.371E+03   -.249E+01 0.201E+02 -.387E+03   0.946E-01 -.219E+01 0.153E+02
   0.500E+01 0.256E+01 0.365E+03   -.562E+01 -.243E+01 -.380E+03   -.346E-01 -.369E+00 0.150E+02
   0.676E+01 0.446E+01 0.360E+03   -.646E+01 -.602E+01 -.375E+03   -.917E+00 0.150E+01 0.143E+02
   0.152E+02 0.164E+02 0.370E+03   -.187E+02 -.178E+02 -.387E+03   0.241E+01 0.568E+00 0.154E+02
 -----------------------------------------------------------------------------------------------
   -.324E+01 -.132E+01 -.151E+02   -.675E-13 -.995E-13 0.000E+00   0.324E+01 0.130E+01 0.151E+02
 
 
 POSITION                                       TOTAL-FORCE (eV/Angst)
 -----------------------------------------------------------------------------------
      2.71826      0.22692      0.08522         0.280393     -0.225941     -0.574797
      3.32783      3.43773      4.64573        -0.333539     -0.123800      0.409248
     -0.31440      1.73157      9.45132         0.431105      0.428344      0.004905
     -1.44603      4.36278      9.33544         0.015116     -0.242030      0.381019
      2.70958      2.00128      9.55388        -0.135630     -0.593466     -0.068195
      1.30105      4.29835      9.35874        -0.100141      0.021899      0.229451
      0.04539      1.51487      2.23026         1.208635      0.834835     -0.963702
     -1.30159      3.92382      2.14299         0.173819      1.815718      0.586611
      3.02787      1.51884      2.33918        -3.342460      0.727043     -2.236925
      1.49392      3.92726      2.22803         1.103760     -0.200336     -1.131942
     -0.10174      0.24061      7.15802        -0.183453     -1.619094      0.177954
      4.15354      2.56434      7.14346         0.318376      1.082035     -0.272513
      2.64896      0.23396      7.05708         1.602106      0.032359      1.284982
      1.30256      2.64527      7.11063         0.506745     -0.657432     -0.467143
      1.16009      1.15579     11.93501         0.851298      0.101758      1.325721
     -0.24230      3.51211     12.02211         0.632681      1.658306      0.848408
      3.97835      1.17056     11.97051         0.386172      0.042782      0.194047
      2.58785      3.64777     11.92391         1.061797     -1.139633      2.680704
     -2.69935      4.72523      3.18377         0.004565     -0.302620     -0.204822
     -1.34924      2.39521      3.21530         1.277973      0.016504      0.427017
      0.27501      4.76022      3.16816        -1.979441     -0.613683      0.768522
      1.48650      2.25533      3.16616         0.380324      1.058447      0.778541
      1.49029      0.84429      1.26544         0.454384     -1.488619      0.604153
      0.09715      3.21157      1.12667        -0.100340     -0.441535      1.435982
      4.31570      0.75953      1.12565        -0.255890     -0.312875      1.814898
      2.87004      3.15234      1.33846         0.762081     -0.780497     -0.638131
      1.29552      1.03217      8.22649        -0.232630      0.285893     -0.453230
     -0.01688      3.48341      8.19221        -0.918675     -0.693644     -0.033826
      4.09869      1.04162      8.28099         0.013735     -0.610459     -0.695360
      2.73768      3.26694      8.21080         0.008370      2.062549      0.166571
     -0.09443      1.73132      6.11961         0.076740      1.400205      0.868358
     -1.44909      4.21689      6.12522        -0.936815     -0.236706      0.546057
      2.73694      1.88099      6.13479        -0.470369     -0.192853      0.055741
      1.36694      4.24293      6.20700        -0.057997     -0.139707     -0.343648
     -0.20505      1.97518     12.99661        -0.377781     -0.261829     -1.227283
     -1.68489      4.33804     13.02681         0.534054      0.270331     -1.648362
      2.57756      1.95148     12.91251        -0.103657      0.662994     -0.577262
      1.14926      4.42012     12.98081         0.344711     -0.568551     -0.944738
      5.43628      0.35506     10.92091        -0.635299      0.168730     -0.571996
     -1.57745      2.80825     10.93971        -0.596626     -0.212945     -0.392334
      2.61453      0.32406     10.95071        -0.581420     -0.083703     -0.362523
      1.25274      2.85618     11.04301        -1.086774     -0.928773     -1.780155
 -----------------------------------------------------------------------------------
    total drift:                                0.001898     -0.016880      0.007444


--------------------------------------------------------------------------------------------------------



  FREE ENERGIE OF THE ION-ELECTRON SYSTEM (eV)
  ---------------------------------------------------
  free  energy   TOTEN  =      -233.21675893 eV

  energy  without entropy=     -233.21665924  energy(sigma->0) =     -233.21670909
 


--------------------------------------------------------------------------------------------------------


    POTLOK:  cpu time    0.0748: real time    0.0749


--------------------------------------------------------------------------------------------------------


     LOOP+:  cpu time 2119.3938: real time 2127.5842
    4ORBIT:  cpu time    0.0000: real time    0.0000
 


 total charge     
 
# of ion       s       p       d       tot
------------------------------------------
    1        0.108   0.237   0.000   0.345
    2        0.085   0.175   0.000   0.261
    3        0.101   0.213   0.000   0.313
    4        0.095   0.200   0.000   0.295
    5        0.099   0.206   0.000   0.306
    6        0.099   0.209   0.000   0.308
    7        0.426   0.667   7.342   8.435
    8        0.451   0.696   7.211   8.358
    9        0.483   0.778   7.275   8.535
   10        0.479   0.785   7.258   8.523
   11        0.423   0.633   7.367   8.423
   12        0.425   0.654   7.366   8.445
   13        0.422   0.642   7.341   8.405
   14        0.450   0.702   7.203   8.355
   15        0.425   0.659   7.368   8.451
   16        0.457   0.723   7.221   8.402
   17        0.431   0.668   7.381   8.480
   18        0.461   0.741   7.217   8.419
   19        1.574   3.400   0.000   4.973
   20        1.574   3.435   0.000   5.010
   21        1.585   3.394   0.000   4.979
   22        1.580   3.359   0.000   4.939
   23        1.576   3.395   0.000   4.971
   24        1.580   3.359   0.000   4.939
   25        1.580   3.362   0.000   4.942
   26        1.587   3.374   0.000   4.961
   27        1.554   3.484   0.000   5.037
   28        1.553   3.479   0.000   5.032
   29        1.550   3.499   0.000   5.050
   30        1.554   3.482   0.000   5.036
   31        1.581   3.350   0.000   4.932
   32        1.563   3.431   0.000   4.995
   33        1.572   3.393   0.000   4.965
   34        1.575   3.384   0.000   4.959
   35        1.586   3.344   0.000   4.930
   36        1.581   3.345   0.000   4.926
   37        1.574   3.396   0.000   4.970
   38        1.582   3.353   0.000   4.935
   39        1.558   3.478   0.000   5.036
   40        1.560   3.453   0.000   5.013
   41        1.558   3.446   0.000   5.005
   42        1.563   3.468   0.000   5.031
--------------------------------------------------
tot         43.622  91.451  87.550 222.623
 


 magnetization (x)
 
# of ion       s       p       d       tot
------------------------------------------
    1       -0.000  -0.003   0.000  -0.003
    2        0.001   0.001   0.000   0.002
    3        0.000  -0.001   0.000  -0.000
    4        0.000  -0.001   0.000  -0.001
    5        0.001  -0.001   0.000  -0.000
    6        0.001   0.000   0.000   0.001
    7        0.004   0.006   0.003   0.012
    8        0.015   0.017   1.438   1.470
    9        0.013   0.018   1.287   1.318
   10        0.013   0.018   1.290   1.321
   11        0.002   0.002  -0.011  -0.007
   12        0.002   0.002  -0.009  -0.006
   13        0.002   0.002  -0.011  -0.007
   14        0.011   0.008   1.427   1.447
   15        0.004   0.006  -0.002   0.008
   16        0.011   0.011   1.358   1.380
   17        0.004   0.005  -0.007   0.002
   18        0.011   0.015   1.364   1.390
   19        0.000  -0.118   0.000  -0.118
   20        0.001  -0.088   0.000  -0.087
   21        0.002  -0.100   0.000  -0.099
   22        0.001  -0.136   0.000  -0.136
   23       -0.000  -0.140   0.000  -0.140
   24        0.001  -0.126   0.000  -0.126
   25        0.001  -0.114   0.000  -0.114
   26        0.001  -0.165   0.000  -0.164
   27        0.001  -0.016   0.000  -0.015
   28        0.001  -0.025   0.000  -0.025
   29       -0.000  -0.007   0.000  -0.007
   30        0.001  -0.028   0.000  -0.028
   31       -0.000  -0.129   0.000  -0.129
   32       -0.000  -0.000   0.000  -0.000
   33       -0.000  -0.092   0.000  -0.092
   34        0.000  -0.094   0.000  -0.094
   35        0.000  -0.078   0.000  -0.077
   36        0.000  -0.141   0.000  -0.140
   37       -0.000  -0.086   0.000  -0.087
   38        0.000  -0.187   0.000  -0.187
   39        0.000  -0.026   0.000  -0.026
   40        0.001  -0.062   0.000  -0.061
   41        0.001  -0.024   0.000  -0.024
   42        0.001  -0.054   0.000  -0.054
--------------------------------------------------
tot          0.106  -1.935   8.127   6.298
 

 total amount of memory used by VASP MPI-rank0   157721. kBytes
=======================================================================

   base      :      30000. kBytes
   nonlr-proj:       4375. kBytes
   fftplans  :       1687. kBytes
   grid      :       4644. kBytes
   one-center:        342. kBytes
   wavefun   :     116673. kBytes
 
  
  
 General timing and accounting informations for this job:
 ========================================================
  
                  Total CPU time used (sec):     2145.120
                            User time (sec):     1940.830
                          System time (sec):      204.290
                         Elapsed time (sec):     2153.967
  
                   Maximum memory used (kb):      670264.
                   Average memory used (kb):           0.
  
                          Minor page faults:        70503
                          Major page faults:           77
                 Voluntary context switches:          603
