 vasp.5.4.4.18Apr17-6-g9f103f2a35 (build Nov 22 2021 14:44:17) complex          
  
 executed on             LinuxIFC date 2022.08.08  11:23:01
 running on   64 total cores
 distrk:  each k-point on   64 cores,    1 groups
 distr:  one band on NCORES_PER_BAND=   4 cores,   16 groups


--------------------------------------------------------------------------------------------------------


 INCAR:
 POTCAR:    PAW_PBE Li 17Jan2003                  
 POTCAR:    PAW_PBE Co 02Aug2007                  
 POTCAR:    PAW_PBE O 08Apr2002                   
 POTCAR:    PAW_PBE Li 17Jan2003                  
   VRHFIN =Li: s1p0                                                             
   LEXCH  = PE                                                                  
   EATOM  =     5.3001 eV,    0.3895 Ry                                         
                                                                                
   TITEL  = PAW_PBE Li 17Jan2003                                                
   LULTRA =        F    use ultrasoft PP ?                                      
   IUNSCR =        1    unscreen: 0-lin 1-nonlin 2-no                           
   RPACOR =    1.500    partial core radius                                     
   POMASS =    7.010; ZVAL   =    1.000    mass and valenz                      
   RCORE  =    2.050    outmost cutoff radius                                   
   RWIGS  =    2.600; RWIGS  =    1.376    wigner-seitz radius (au A)           
   ENMAX  =  140.000; ENMIN  =  100.000 eV                                      
   ICORE  =        2    local potential                                         
   LCOR   =        T    correct aug charges                                     
   LPAW   =        T    paw PP                                                  
   EAUG   =  331.638                                                            
   DEXC   =    0.000                                                            
   RMAX   =    2.098    core radius for proj-oper                               
   RAUG   =    1.300    factor for augmentation sphere                          
   RDEP   =    2.094    radius for radial grids                                 
   RDEPT  =    1.810    core radius for aug-charge                              
                                                                                
   Atomic configuration                                                         
    4 entries                                                                   
     n  l   j            E        occ.                                          
     1  0  0.50       -51.8549   2.0000                                         
     2  0  0.50        -2.8742   1.0000                                         
     2  1  0.50        -1.3606   0.0000                                         
     3  2  1.50        -1.3606   0.0000                                         
   Description                                                                  
     l       E           TYP  RCUT    TYP  RCUT                                 
     0     -2.8742052     23  2.050                                             
     0     27.2116520     23  2.050                                             
     1     -1.3605826     23  2.050                                             
     2     -1.3605826     23  2.050                                             
  local pseudopotential read in
  partial core-charges read in
  partial kinetic energy density read in
  atomic valenz-charges read in
  non local Contribution for L=           0  read in
    real space projection operators read in
  non local Contribution for L=           0  read in
    real space projection operators read in
  non local Contribution for L=           1  read in
    real space projection operators read in
    PAW grid and wavefunctions read in
 
   number of l-projection  operators is LMAX  =           3
   number of lm-projection operators is LMMAX =           5
 
 POTCAR:    PAW_PBE Co 02Aug2007                  
   VRHFIN =Co: d8 s1                                                            
   LEXCH  = PE                                                                  
   EATOM  =   813.3670 eV,   59.7808 Ry                                         
                                                                                
   TITEL  = PAW_PBE Co 02Aug2007                                                
   LULTRA =        F    use ultrasoft PP ?                                      
   IUNSCR =        1    unscreen: 0-lin 1-nonlin 2-no                           
   RPACOR =    2.000    partial core radius                                     
   POMASS =   58.933; ZVAL   =    9.000    mass and valenz                      
   RCORE  =    2.300    outmost cutoff radius                                   
   RWIGS  =    2.460; RWIGS  =    1.302    wigner-seitz radius (au A)           
   ENMAX  =  267.968; ENMIN  =  200.976 eV                                      
   RCLOC  =    1.203    cutoff for local pot                                    
   LCOR   =        T    correct aug charges                                     
   LPAW   =        T    paw PP                                                  
   EAUG   =  477.818                                                            
   DEXC   =    0.000                                                            
   RMAX   =    2.360    core radius for proj-oper                               
   RAUG   =    1.300    factor for augmentation sphere                          
   RDEP   =    2.393    radius for radial grids                                 
   RDEPT  =    1.864    core radius for aug-charge                              
                                                                                
   Atomic configuration                                                         
    9 entries                                                                   
     n  l   j            E        occ.                                          
     1  0  0.50     -7587.6674   2.0000                                         
     2  0  0.50      -893.6084   2.0000                                         
     2  1  1.50      -764.5805   6.0000                                         
     3  0  0.50       -97.5973   2.0000                                         
     3  1  1.50       -60.9648   6.0000                                         
     3  2  2.50        -4.2382   8.0000                                         
     4  0  0.50        -4.3746   1.0000                                         
     4  1  1.50        -4.0817   0.0000                                         
     4  3  2.50        -1.3606   0.0000                                         
   Description                                                                  
     l       E           TYP  RCUT    TYP  RCUT                                 
     2     -4.2382362     23  2.300                                             
     2     -5.5988188     23  2.300                                             
     0     -4.3745797     23  2.300                                             
     0      5.7660125     23  2.300                                             
     1     -2.7211652     23  2.300                                             
     1     16.9860234     23  2.300                                             
  local pseudopotential read in
  partial core-charges read in
  partial kinetic energy density read in
  atomic valenz-charges read in
  non local Contribution for L=           2  read in
    real space projection operators read in
  non local Contribution for L=           2  read in
    real space projection operators read in
  non local Contribution for L=           0  read in
    real space projection operators read in
  non local Contribution for L=           0  read in
    real space projection operators read in
  non local Contribution for L=           1  read in
    real space projection operators read in
  non local Contribution for L=           1  read in
    real space projection operators read in
    PAW grid and wavefunctions read in
 
   number of l-projection  operators is LMAX  =           6
   number of lm-projection operators is LMMAX =          18
 
 POTCAR:    PAW_PBE O 08Apr2002                   
   VRHFIN =O: s2p4                                                              
   LEXCH  = PE                                                                  
   EATOM  =   432.3788 eV,   31.7789 Ry                                         
                                                                                
   TITEL  = PAW_PBE O 08Apr2002                                                 
   LULTRA =        F    use ultrasoft PP ?                                      
   IUNSCR =        1    unscreen: 0-lin 1-nonlin 2-no                           
   RPACOR =    1.200    partial core radius                                     
   POMASS =   16.000; ZVAL   =    6.000    mass and valenz                      
   RCORE  =    1.520    outmost cutoff radius                                   
   RWIGS  =    1.550; RWIGS  =    0.820    wigner-seitz radius (au A)           
   ENMAX  =  400.000; ENMIN  =  300.000 eV                                      
   ICORE  =        2    local potential                                         
   LCOR   =        T    correct aug charges                                     
   LPAW   =        T    paw PP                                                  
   EAUG   =  605.392                                                            
   DEXC   =    0.000                                                            
   RMAX   =    1.553    core radius for proj-oper                               
   RAUG   =    1.300    factor for augmentation sphere                          
   RDEP   =    1.550    radius for radial grids                                 
   RDEPT  =    1.329    core radius for aug-charge                              
                                                                                
   Atomic configuration                                                         
    4 entries                                                                   
     n  l   j            E        occ.                                          
     1  0  0.50      -514.6923   2.0000                                         
     2  0  0.50       -23.9615   2.0000                                         
     2  1  0.50        -9.0305   4.0000                                         
     3  2  1.50        -9.5241   0.0000                                         
   Description                                                                  
     l       E           TYP  RCUT    TYP  RCUT                                 
     0    -23.9615318     23  1.200                                             
     0     -9.5240782     23  1.200                                             
     1     -9.0304911     23  1.520                                             
     1      8.1634956     23  1.520                                             
     2     -9.5240782      7  1.500                                             
  local pseudopotential read in
  partial core-charges read in
  partial kinetic energy density read in
  kinetic energy density of atom read in
  atomic valenz-charges read in
  non local Contribution for L=           0  read in
    real space projection operators read in
  non local Contribution for L=           0  read in
    real space projection operators read in
  non local Contribution for L=           1  read in
    real space projection operators read in
  non local Contribution for L=           1  read in
    real space projection operators read in
    PAW grid and wavefunctions read in
 
   number of l-projection  operators is LMAX  =           4
   number of lm-projection operators is LMMAX =           8
 
 Optimization of the real space projectors (new method)

 maximal supplied QI-value         = 18.33
 optimisation between [QCUT,QGAM] = [ 12.46, 24.93] = [ 43.51,174.03] Ry 
 Optimized for a Real-space Cutoff    1.13 Angstroem

   l    n(q)    QCUT    max X(q) W(low)/X(q) W(high)/X(q)  e(spline) 
   0      8    12.465    33.825    0.12E-03    0.29E-03    0.99E-07
   0      8    12.465     8.944    0.86E-04    0.22E-03    0.72E-07
   1      8    12.465     4.214    0.27E-03    0.11E-03    0.82E-07
 Optimization of the real space projectors (new method)

 maximal supplied QI-value         = 16.25
 optimisation between [QCUT,QGAM] = [ 12.51, 25.03] = [ 43.85,175.40] Ry 
 Optimized for a Real-space Cutoff    1.31 Angstroem

   l    n(q)    QCUT    max X(q) W(low)/X(q) W(high)/X(q)  e(spline) 
   2      9    12.514    65.824    0.30E-03    0.46E-03    0.43E-06
   2      9    12.514    61.429    0.31E-03    0.46E-03    0.44E-06
   0     10    12.514    56.174    0.90E-04    0.33E-03    0.30E-06
   0     10    12.514    31.263    0.81E-04    0.30E-03    0.28E-06
   1      9    12.514    19.828    0.38E-03    0.65E-04    0.24E-06
   1      9    12.514    15.139    0.32E-03    0.60E-04    0.20E-06
 Optimization of the real space projectors (new method)

 maximal supplied QI-value         = 24.76
 optimisation between [QCUT,QGAM] = [ 12.38, 25.00] = [ 42.90,175.06] Ry 
 Optimized for a Real-space Cutoff    1.13 Angstroem

   l    n(q)    QCUT    max X(q) W(low)/X(q) W(high)/X(q)  e(spline) 
   0      8    12.378    20.381    0.16E-03    0.54E-05    0.27E-06
   0      8    12.378    15.268    0.17E-03    0.61E-05    0.29E-06
   1      8    12.378     5.964    0.38E-03    0.23E-03    0.28E-06
   1      8    12.378     5.382    0.33E-03    0.20E-03    0.25E-06
  PAW_PBE Li 17Jan2003                  :
 energy of atom  1       EATOM=   -5.3001
 kinetic energy error for atom=    0.0000 (will be added to EATOM!!)
  PAW_PBE Co 02Aug2007                  :
 energy of atom  2       EATOM= -813.3670
 kinetic energy error for atom=    0.0018 (will be added to EATOM!!)
  PAW_PBE O 08Apr2002                   :
 energy of atom  3       EATOM= -432.3788
 kinetic energy error for atom=    0.0168 (will be added to EATOM!!)
 
 
 POSCAR: Li6 Co12 O24                            
  positions in cartesian coordinates
  No initial velocities read in
 exchange correlation table for  LEXCH =        8
   RHO(1)=    0.500       N(1)  =     2000
   RHO(2)=  100.500       N(2)  =     4000
 


--------------------------------------------------------------------------------------------------------


 ion  position               nearest neighbor table
   1  0.400  0.452  0.004-  24 2.05  23 2.14  36 2.25  26 2.34  37 2.47   8 2.64  15 2.82
   2  0.739  0.081  0.357-  31 1.98  34 2.07  22 2.35  11 2.55   9 3.17
   3  0.993  0.475  0.669-  39 1.89  40 1.99  29 2.04  28 2.10  27 2.23  42 2.48   4 2.67  17 2.70
                            12 2.74   5 2.75   6 2.79   5 2.87   6 2.89  11 2.90  14 3.01  16 3.02
   4  0.098  0.991  0.670-  40 1.93  28 2.00  41 2.07  27 2.15  39 2.28  30 2.31   6 2.53   5 2.55
                             3 2.67  16 2.69  13 2.78  12 2.89  18 2.91  15 2.99  11 3.03   3 3.08
   5  0.504  0.476  0.669-  41 1.93  27 1.95  42 2.08  30 2.08  29 2.28  40 2.37   4 2.55   6 2.56
                            15 2.72   3 2.75  14 2.78   3 2.87  12 2.89  13 2.91  18 2.99  17 3.04
   6  0.516  0.933  0.667-  42 1.94  30 1.96  28 2.09  29 2.23  41 2.30  39 2.45   4 2.53   5 2.56
                            14 2.66  16 2.70   3 2.79  18 2.82   3 2.89  11 2.93  13 3.03   5 3.09
   7  0.380  0.017  0.153-  25 1.81  20 1.81  24 1.85  19 1.90  22 1.92  23 1.93   8 2.75   9 2.77
                            10 2.78  10 2.86   9 2.87   8 2.93
   8  0.393  0.545  0.171-  26 1.83  19 1.87  23 1.89  21 1.90  20 1.91  24 2.09   1 2.64  10 2.74
                             7 2.75   9 2.82   9 2.83  10 2.91   7 2.93
   9  0.901  0.037  0.167-  20 1.81  25 1.88  22 1.89  26 1.91  23 1.97  21 1.97  10 2.69   7 2.77
                             8 2.82   8 2.83   7 2.87  10 2.97   2 3.17
  10  0.885  0.501  0.156-  24 1.79  22 1.86  26 1.90  25 1.93  19 2.00  21 2.03   9 2.69   8 2.74
                             7 2.78   7 2.86   8 2.91   9 2.97
  11  0.821  0.067  0.516-  34 1.77  32 1.84  29 1.91  27 1.96  30 1.98  31 1.98   2 2.55  13 2.72
                            14 2.75  12 2.78  12 2.87  14 2.89   3 2.90  13 2.91   6 2.93   4 3.03
  12  0.810  0.571  0.521-  28 1.85  30 1.88  33 1.91  29 1.93  31 1.94  32 2.02  14 2.73   3 2.74
                            11 2.78  13 2.79  13 2.86  11 2.87   4 2.89   5 2.89  14 2.90
  13  0.308  0.076  0.512-  32 1.74  33 1.83  29 1.92  34 1.94  27 1.94  28 2.05  11 2.72   4 2.78
                            12 2.79  14 2.80  12 2.86  14 2.86   5 2.91  11 2.91   6 3.03
  14  0.331  0.584  0.519-  28 1.87  30 1.89  27 1.91  33 1.93  31 1.97  34 2.03   6 2.66  12 2.73
                            11 2.75   5 2.78  13 2.80  13 2.86  11 2.89  12 2.90   3 3.01
  15  0.305  0.426  0.825-  35 1.82  36 1.83  41 1.89  37 1.89  42 1.91  39 1.93   5 2.72  16 2.74
                            17 2.79  18 2.82   1 2.82  18 2.83  17 2.84  16 2.92   4 2.99   3 3.09
  16  0.308  0.941  0.818-  42 1.87  41 1.89  36 1.90  38 1.94  35 1.96  40 1.97   4 2.69   6 2.70
                            15 2.74  18 2.75  17 2.79  17 2.86  18 2.87  15 2.92   3 3.02
  17  0.806  0.437  0.826-  37 1.84  38 1.86  35 1.88  41 1.96  39 1.98  40 2.02   3 2.70  16 2.79
                            15 2.79  18 2.81  15 2.84  18 2.85  16 2.86   5 3.04
  18  0.792  0.931  0.819-  42 1.85  38 1.87  37 1.87  40 1.93  39 2.00  36 2.01  16 2.75  17 2.81
                            15 2.82   6 2.82  15 2.83  17 2.85  16 2.87   4 2.91   5 2.99
  19  0.248  0.746  0.227-   8 1.87   7 1.90  10 2.00
  20  0.252  0.208  0.218-   9 1.81   7 1.81   8 1.91
  21  0.752  0.720  0.231-   8 1.90   9 1.97  10 2.03
  22  0.731  0.218  0.222-  10 1.86   9 1.89   7 1.92   2 2.35
  23  0.538  0.814  0.098-   8 1.89   7 1.93   9 1.97   1 2.14
  24  0.547  0.326  0.099-  10 1.79   7 1.85   1 2.05   8 2.09
  25  0.028  0.829  0.103-   7 1.81   9 1.88  10 1.93
  26  0.069  0.332  0.101-   8 1.83  10 1.90   9 1.91   1 2.34
  27  0.182  0.286  0.584-  14 1.91  13 1.94   5 1.95  11 1.96   4 2.15   3 2.23
  28  0.158  0.750  0.580-  12 1.85  14 1.87   4 2.00  13 2.05   6 2.09   3 2.10
  29  0.661  0.251  0.579-  11 1.91  13 1.92  12 1.93   3 2.04   6 2.23   5 2.28
  30  0.675  0.769  0.587-  12 1.88  14 1.89   6 1.96  11 1.98   5 2.08   4 2.31
  31  0.966  0.385  0.452-  12 1.94  14 1.97   2 1.98  11 1.98
  32  0.981  0.894  0.455-  13 1.74  11 1.84  12 2.02
  33  0.461  0.370  0.453-  13 1.83  12 1.91  14 1.93
  34  0.497  0.908  0.453-  11 1.77  13 1.94  14 2.03   2 2.07
  35  0.168  0.627  0.881-  15 1.82  17 1.88  16 1.96
  36  0.169  0.136  0.886-  15 1.83  16 1.90  18 2.01   1 2.25
  37  0.667  0.638  0.883-  17 1.84  18 1.87  15 1.89   1 2.47
  38  0.667  0.136  0.885-  17 1.86  18 1.87  16 1.94
  39  0.960  0.248  0.753-   3 1.89  15 1.93  17 1.98  18 2.00   4 2.28   6 2.45
  40  0.940  0.738  0.751-   4 1.93  18 1.93  16 1.97   3 1.99  17 2.02   5 2.37
  41  0.448  0.242  0.756-  15 1.89  16 1.89   5 1.93  17 1.96   4 2.07   6 2.30
  42  0.440  0.727  0.762-  18 1.85  16 1.87  15 1.91   6 1.94   5 2.08   3 2.48
 

IMPORTANT INFORMATION: All symmetrisations will be switched off!
NOSYMM: (Re-)initialisation of all symmetry stuff for point group C_1.

 
 

Automatic generation of k-mesh.
 generate k-points for:    6    6    2
Space group operators:
 irot       det(A)        alpha          n_x          n_y          n_z        tau_x        tau_y        tau_z
    1     1.000000     0.000000     1.000000     0.000000     0.000000     0.000000     0.000000     0.000000
 
 Subroutine IBZKPT returns following result:
 ===========================================
 
 Found     36 irreducible k-points:
 
 Following reciprocal coordinates:
            Coordinates               Weight
  0.083333  0.083333  0.250000      2.000000
  0.250000  0.083333  0.250000      2.000000
  0.416667  0.083333  0.250000      2.000000
 -0.416667  0.083333  0.250000      2.000000
 -0.250000  0.083333  0.250000      2.000000
 -0.083333  0.083333  0.250000      2.000000
  0.083333  0.250000  0.250000      2.000000
  0.250000  0.250000  0.250000      2.000000
  0.416667  0.250000  0.250000      2.000000
 -0.416667  0.250000  0.250000      2.000000
 -0.250000  0.250000  0.250000      2.000000
 -0.083333  0.250000  0.250000      2.000000
  0.083333  0.416667  0.250000      2.000000
  0.250000  0.416667  0.250000      2.000000
  0.416667  0.416667  0.250000      2.000000
 -0.416667  0.416667  0.250000      2.000000
 -0.250000  0.416667  0.250000      2.000000
 -0.083333  0.416667  0.250000      2.000000
  0.083333 -0.416667  0.250000      2.000000
  0.250000 -0.416667  0.250000      2.000000
  0.416667 -0.416667  0.250000      2.000000
 -0.416667 -0.416667  0.250000      2.000000
 -0.250000 -0.416667  0.250000      2.000000
 -0.083333 -0.416667  0.250000      2.000000
  0.083333 -0.250000  0.250000      2.000000
  0.250000 -0.250000  0.250000      2.000000
  0.416667 -0.250000  0.250000      2.000000
 -0.416667 -0.250000  0.250000      2.000000
 -0.250000 -0.250000  0.250000      2.000000
 -0.083333 -0.250000  0.250000      2.000000
  0.083333 -0.083333  0.250000      2.000000
  0.250000 -0.083333  0.250000      2.000000
  0.416667 -0.083333  0.250000      2.000000
 -0.416667 -0.083333  0.250000      2.000000
 -0.250000 -0.083333  0.250000      2.000000
 -0.083333 -0.083333  0.250000      2.000000
 
 Following cartesian coordinates:
            Coordinates               Weight
  0.014813  0.025561  0.020600      2.000000
  0.044438  0.042642  0.024304      2.000000
  0.074063  0.059722  0.028008      2.000000
 -0.074063 -0.025682  0.009488      2.000000
 -0.044438 -0.008601  0.013192      2.000000
 -0.014813  0.008480  0.016896      2.000000
  0.014813  0.059601  0.025962      2.000000
  0.044438  0.076682  0.029666      2.000000
  0.074063  0.093763  0.033370      2.000000
 -0.074063  0.008359  0.014850      2.000000
 -0.044438  0.025440  0.018554      2.000000
 -0.014813  0.042520  0.022258      2.000000
  0.014813  0.093642  0.031324      2.000000
  0.044438  0.110723  0.035028      2.000000
  0.074063  0.127804  0.038732      2.000000
 -0.074063  0.042399  0.020212      2.000000
 -0.044438  0.059480  0.023916      2.000000
 -0.014813  0.076561  0.027620      2.000000
  0.014813 -0.076561  0.004514      2.000000
  0.044438 -0.059480  0.008217      2.000000
  0.074063 -0.042399  0.011921      2.000000
 -0.074063 -0.127804 -0.006598      2.000000
 -0.044438 -0.110723 -0.002894      2.000000
 -0.014813 -0.093642  0.000810      2.000000
  0.014813 -0.042520  0.009876      2.000000
  0.044438 -0.025440  0.013580      2.000000
  0.074063 -0.008359  0.017283      2.000000
 -0.074063 -0.093763 -0.001236      2.000000
 -0.044438 -0.076682  0.002468      2.000000
 -0.014813 -0.059601  0.006172      2.000000
  0.014813 -0.008480  0.015238      2.000000
  0.044438  0.008601  0.018942      2.000000
  0.074063  0.025682  0.022646      2.000000
 -0.074063 -0.059722  0.004126      2.000000
 -0.044438 -0.042642  0.007830      2.000000
 -0.014813 -0.025561  0.011534      2.000000
 


--------------------------------------------------------------------------------------------------------




 Dimension of arrays:
   k-points           NKPTS =     36   k-points in BZ     NKDIM =     36   number of bands    NBANDS=    160
   number of dos      NEDOS =    301   number of ions     NIONS =     42
   non local maximal  LDIM  =      6   non local SUM 2l+1 LMDIM =     18
   total plane-waves  NPLWV = 124416
   max r-space proj   IRMAX =   2763   max aug-charges    IRDMAX=  11647
   dimension x,y,z NGX =    36 NGY =   36 NGZ =   96
   dimension x,y,z NGXF=    72 NGYF=   72 NGZF=  192
   support grid    NGXF=    72 NGYF=   72 NGZF=  192
   ions per type =               6  12  24
   NGX,Y,Z   is equivalent  to a cutoff of  10.64, 10.59, 10.13 a.u.
   NGXF,Y,Z  is equivalent  to a cutoff of  21.28, 21.18, 20.25 a.u.

 SYSTEM =  LiCoO2                                  
 POSCAR =  Li6 Co12 O24                            

 Startparameter for this run:
   NWRITE =      2    write-flag & timer
   PREC   = normal    normal or accurate (medium, high low for compatibility)
   ISTART =      0    job   : 0-new  1-cont  2-samecut
   ICHARG =      2    charge: 1-file 2-atom 10-const
   ISPIN  =      2    spin polarized calculation?
   LNONCOLLINEAR =      F non collinear calculations
   LSORBIT =      F    spin-orbit coupling
   INIWAV =      1    electr: 0-lowe 1-rand  2-diag
   LASPH  =      F    aspherical Exc in radial PAW
   METAGGA=      F    non-selfconsistent MetaGGA calc.

 Electronic Relaxation 1
   ENCUT  =  600.0 eV  44.10 Ry    6.64 a.u.  11.24 11.29 31.48*2*pi/ulx,y,z
   ENINI  =  600.0     initial cutoff
   ENAUG  =  605.4 eV  augmentation charge cutoff
   NELM   =    600;   NELMIN=  2; NELMDL= -5     # of ELM steps 
   EDIFF  = 0.1E-05   stopping-criterion for ELM
   LREAL  =      T    real-space projection
   NLSPLINE    = F    spline interpolate recip. space projectors
   LCOMPAT=      F    compatible to vasp.4.4
   GGA_COMPAT  = T    GGA compatible to vasp.4.4-vasp.4.6
   LMAXPAW     = -100 max onsite density
   LMAXMIX     =    2 max onsite mixed and CHGCAR
   VOSKOWN=      0    Vosko Wilk Nusair interpolation
   ROPT   =   -0.00050  -0.00050  -0.00050
 Ionic relaxation
   EDIFFG = 0.1E-04   stopping-criterion for IOM
   NSW    =      0    number of steps for IOM
   NBLOCK =      1;   KBLOCK =      1    inner block; outer block 
   IBRION =     -1    ionic relax: 0-MD 1-quasi-New 2-CG
   NFREE  =      0    steps in history (QN), initial steepest desc. (CG)
   ISIF   =      2    stress and relaxation
   IWAVPR =     10    prediction:  0-non 1-charg 2-wave 3-comb
   ISYM   =      0    0-nonsym 1-usesym 2-fastsym
   LCORR  =      T    Harris-Foulkes like correction to forces

   POTIM  = 0.5000    time-step for ionic-motion
   TEIN   =    0.0    initial temperature
   TEBEG  =    0.0;   TEEND  =   0.0 temperature during run
   SMASS  =  -3.00    Nose mass-parameter (am)
   estimated Nose-frequenzy (Omega)   =  0.10E-29 period in steps =****** mass=  -0.723E-27a.u.
   SCALEE = 1.0000    scale energy and forces
   NPACO  =    256;   APACO  = 16.0  distance and # of slots for P.C.
   PSTRESS=    0.0 pullay stress

  Mass of Ions in am
   POMASS =   7.01 58.93 16.00
  Ionic Valenz
   ZVAL   =   1.00  9.00  6.00
  Atomic Wigner-Seitz radii
   RWIGS  =  -1.00 -1.00 -1.00
  virtual crystal weights 
   VCA    =   1.00  1.00  1.00
   NELECT =     258.0000    total number of electrons
   NUPDOWN=       6.0000    fix difference up-down

 DOS related values:
   EMIN   =  10.00;   EMAX   =-10.00  energy-range for DOS
   EFERMI =   0.00
   ISMEAR =     0;   SIGMA  =   0.05  broadening in eV -4-tet -1-fermi 0-gaus

 Electronic relaxation 2 (details)
   IALGO  =     58    algorithm
   LDIAG  =      T    sub-space diagonalisation (order eigenvalues)
   LSUBROT=      F    optimize rotation matrix (better conditioning)
   TURBO    =      0    0=normal 1=particle mesh
   IRESTART =      0    0=no restart 2=restart with 2 vectors
   NREBOOT  =      0    no. of reboots
   NMIN     =      0    reboot dimension
   EREF     =   0.00    reference energy to select bands
   IMIX   =      4    mixing-type and parameters
     AMIX     =   0.40;   BMIX     =  1.00
     AMIX_MAG =   1.60;   BMIX_MAG =  1.00
     AMIN     =   0.10
     WC   =   100.;   INIMIX=   1;  MIXPRE=   1;  MAXMIX= -45

 Intra band minimization:
   WEIMIN = 0.0000     energy-eigenvalue tresh-hold
   EBREAK =  0.16E-08  absolut break condition
   DEPER  =   0.30     relativ break condition  

   TIME   =   0.40     timestep for ELM

  volume/ion in A,a.u.               =      10.20        68.86
  Fermi-wavevector in a.u.,A,eV,Ry     =   1.382287  2.612144 25.996886  1.910717
  Thomas-Fermi vector in A             =   2.506992
 
 Write flags
   LWAVE        =      F    write WAVECAR
   LDOWNSAMPLE  =      F    k-point downsampling of WAVECAR
   LCHARG       =      F    write CHGCAR
   LVTOT        =      F    write LOCPOT, total local potential
   LVHAR        =      F    write LOCPOT, Hartree potential only
   LELF         =      F    write electronic localiz. function (ELF)
   LORBIT       =     11    0 simple, 1 ext, 2 COOP (PROOUT), +10 PAW based schemes


 Dipole corrections
   LMONO  =      F    monopole corrections only (constant potential shift)
   LDIPOL =      F    correct potential (dipole corrections)
   IDIPOL =      0    1-x, 2-y, 3-z, 4-all directions 
   EPSILON=  1.0000000 bulk dielectric constant

 LDA+U is selected, type is set to LDAUTYPE =  2
   angular momentum for each species LDAUL =    -1    2   -1
   U (eV)           for each species LDAUU =   0.0  5.1  0.0
   J (eV)           for each species LDAUJ =   0.0  0.0  0.0
 Exchange correlation treatment:
   GGA     =    --    GGA type
   LEXCH   =     8    internal setting for exchange type
   VOSKOWN=      0    Vosko Wilk Nusair interpolation
   LHFCALC =     F    Hartree Fock is set to
   LHFONE  =     F    Hartree Fock one center treatment
   AEXX    =    0.0000 exact exchange contribution

 Linear response parameters
   LEPSILON=     F    determine dielectric tensor
   LRPA    =     F    only Hartree local field effects (RPA)
   LNABLA  =     F    use nabla operator in PAW spheres
   LVEL    =     F    velocity operator in full k-point grid
   LINTERFAST=   F  fast interpolation
   KINTER  =     0    interpolate to denser k-point grid
   CSHIFT  =0.1000    complex shift for real part using Kramers Kronig
   OMEGAMAX=  -1.0    maximum frequency
   DEG_THRESHOLD= 0.2000000E-02 threshold for treating states as degnerate
   RTIME   =   -0.100 relaxation time in fs
  (WPLASMAI=    0.000 imaginary part of plasma frequency in eV, 0.658/RTIME)
   DFIELD  = 0.0000000 0.0000000 0.0000000 field for delta impulse in time
 
 Orbital magnetization related:
   ORBITALMAG=     F  switch on orbital magnetization
   LCHIMAG   =     F  perturbation theory with respect to B field
   DQ        =  0.001000  dq finite difference perturbation B field
   LLRAUG    =     F  two centre corrections for induced B field



--------------------------------------------------------------------------------------------------------


 Static calculation
 charge density and potential will be updated during run
 spin polarized calculation
 Conjugate gradient for all bands (Freysoldt, et al. PRB 79, 241103 (2009))
 preconditioned conjugated gradient                                        
 perform sub-space diagonalisation
    before iterative eigenvector-optimisation
 modified Broyden-mixing scheme, WC =      100.0
 initial mixing is a Kerker type mixing with AMIX =  0.4000 and BMIX =      1.0000
 Hartree-type preconditioning will be used
 using additional bands           31
 real space projection scheme for non local part
 use partial core corrections
 no Harris-corrections to forces 
 use gradient corrections 
 use of overlap-Matrix (Vanderbilt PP)
 Gauss-broadening in eV      SIGMA  =   0.05


--------------------------------------------------------------------------------------------------------


  energy-cutoff  :      600.00
  volume of cell :      428.60
      direct lattice vectors                 reciprocal lattice vectors
     5.625804901  0.000000000  0.000000000     0.177752343  0.102485128  0.022223675
    -2.822909117  4.896112442  0.000000000     0.000000000  0.204243675  0.032172361
    -0.532256544 -2.451025486 15.560140610     0.000000000  0.000000000  0.064266771

  length of vectors
     5.625804901  5.651613303 15.760989777     0.206380688  0.206762036  0.064266771


 
 k-points in units of 2pi/SCALE and weight: read from INCAR                         
   0.01481270  0.02556073  0.02059970       0.028
   0.04443809  0.04264159  0.02430364       0.028
   0.07406348  0.05972244  0.02800759       0.028
  -0.07406348 -0.02568183  0.00948786       0.028
  -0.04443809 -0.00860098  0.01319180       0.028
  -0.01481270  0.00847988  0.01689575       0.028
   0.01481270  0.05960135  0.02596176       0.028
   0.04443809  0.07668220  0.02966570       0.028
   0.07406348  0.09376306  0.03336965       0.028
  -0.07406348  0.00835878  0.01484992       0.028
  -0.04443809  0.02543964  0.01855386       0.028
  -0.01481270  0.04252049  0.02225781       0.028
   0.01481270  0.09364196  0.03132382       0.028
   0.04443809  0.11072281  0.03502776       0.028
   0.07406348  0.12780367  0.03873171       0.028
  -0.07406348  0.04239939  0.02021198       0.028
  -0.04443809  0.05948025  0.02391592       0.028
  -0.01481270  0.07656110  0.02761987       0.028
   0.01481270 -0.07656110  0.00451352       0.028
   0.04443809 -0.05948025  0.00821746       0.028
   0.07406348 -0.04239939  0.01192141       0.028
  -0.07406348 -0.12780367 -0.00659832       0.028
  -0.04443809 -0.11072281 -0.00289438       0.028
  -0.01481270 -0.09364196  0.00080957       0.028
   0.01481270 -0.04252049  0.00987558       0.028
   0.04443809 -0.02543964  0.01357952       0.028
   0.07406348 -0.00835878  0.01728347       0.028
  -0.07406348 -0.09376306 -0.00123626       0.028
  -0.04443809 -0.07668220  0.00246768       0.028
  -0.01481270 -0.05960135  0.00617163       0.028
   0.01481270 -0.00847988  0.01523764       0.028
   0.04443809  0.00860098  0.01894158       0.028
   0.07406348  0.02568183  0.02264553       0.028
  -0.07406348 -0.05972244  0.00412580       0.028
  -0.04443809 -0.04264159  0.00782974       0.028
  -0.01481270 -0.02556073  0.01153369       0.028
 
 k-points in reciprocal lattice and weights: read from INCAR                         
   0.08333333  0.08333333  0.25000000       0.028
   0.25000000  0.08333333  0.25000000       0.028
   0.41666667  0.08333333  0.25000000       0.028
  -0.41666667  0.08333333  0.25000000       0.028
  -0.25000000  0.08333333  0.25000000       0.028
  -0.08333333  0.08333333  0.25000000       0.028
   0.08333333  0.25000000  0.25000000       0.028
   0.25000000  0.25000000  0.25000000       0.028
   0.41666667  0.25000000  0.25000000       0.028
  -0.41666667  0.25000000  0.25000000       0.028
  -0.25000000  0.25000000  0.25000000       0.028
  -0.08333333  0.25000000  0.25000000       0.028
   0.08333333  0.41666667  0.25000000       0.028
   0.25000000  0.41666667  0.25000000       0.028
   0.41666667  0.41666667  0.25000000       0.028
  -0.41666667  0.41666667  0.25000000       0.028
  -0.25000000  0.41666667  0.25000000       0.028
  -0.08333333  0.41666667  0.25000000       0.028
   0.08333333 -0.41666667  0.25000000       0.028
   0.25000000 -0.41666667  0.25000000       0.028
   0.41666667 -0.41666667  0.25000000       0.028
  -0.41666667 -0.41666667  0.25000000       0.028
  -0.25000000 -0.41666667  0.25000000       0.028
  -0.08333333 -0.41666667  0.25000000       0.028
   0.08333333 -0.25000000  0.25000000       0.028
   0.25000000 -0.25000000  0.25000000       0.028
   0.41666667 -0.25000000  0.25000000       0.028
  -0.41666667 -0.25000000  0.25000000       0.028
  -0.25000000 -0.25000000  0.25000000       0.028
  -0.08333333 -0.25000000  0.25000000       0.028
   0.08333333 -0.08333333  0.25000000       0.028
   0.25000000 -0.08333333  0.25000000       0.028
   0.41666667 -0.08333333  0.25000000       0.028
  -0.41666667 -0.08333333  0.25000000       0.028
  -0.25000000 -0.08333333  0.25000000       0.028
  -0.08333333 -0.08333333  0.25000000       0.028
 
 position of ions in fractional coordinates (direct lattice) 
   0.40016116  0.45191700  0.00358480
   0.73890385  0.08080814  0.35651027
   0.99324097  0.47534978  0.66945285
   0.09754662  0.99055157  0.66986735
   0.50390758  0.47555795  0.66922406
   0.51587534  0.93326619  0.66668679
   0.38003425  0.01653840  0.15293756
   0.39328966  0.54485081  0.17103895
   0.90054920  0.03655994  0.16685325
   0.88477288  0.50073564  0.15644395
   0.82145089  0.06716295  0.51570551
   0.80971924  0.57092987  0.52102551
   0.30834532  0.07648510  0.51223444
   0.33105702  0.58392073  0.51904868
   0.30468403  0.42608879  0.82520914
   0.30768106  0.94093859  0.81783772
   0.80555511  0.43665297  0.82579396
   0.79194746  0.93072263  0.81909090
   0.24754112  0.74649357  0.22741761
   0.25218092  0.20755677  0.21774610
   0.75182847  0.72046986  0.23088352
   0.73064503  0.21837735  0.22227435
   0.53837226  0.81364730  0.09757496
   0.54689918  0.32552451  0.09890335
   0.02771021  0.82851916  0.10295408
   0.06931293  0.33152687  0.10093032
   0.18172806  0.28631943  0.58400949
   0.15835378  0.75035568  0.57996775
   0.66109536  0.25108295  0.57908022
   0.67470554  0.76940144  0.58723829
   0.96566869  0.38534531  0.45192265
   0.98050385  0.89362185  0.45547595
   0.46102666  0.37026155  0.45294193
   0.49708833  0.90818233  0.45285646
   0.16790711  0.62666319  0.88088985
   0.16860879  0.13619984  0.88611473
   0.66695212  0.63824678  0.88263789
   0.66720534  0.13649302  0.88483586
   0.95955464  0.24795364  0.75286403
   0.94019863  0.73799336  0.75132162
   0.44793530  0.24163726  0.75555035
   0.44004006  0.72728291  0.76188065
 
 position of ions in cartesian coordinates  (Angst):
   0.97359997  2.20385003  0.05578000
   3.73905993 -0.47817001  5.54734993
   3.88959002  0.68651998 10.41678047
  -2.60400009  3.20798993 10.42323017
   1.13622999  0.68809998 10.41322041
  -0.08716000  2.93530989 10.37374020
   2.00991011 -0.29387999  2.37972999
   0.58346999  2.24843001  2.66139007
   4.87430000 -0.22995999  2.59626007
   3.48076010  2.06820989  2.43428993
   4.15723991 -0.93516999  8.02445030
   2.66632009  1.51829004  8.10723019
   1.24614000 -0.88102001  7.97043991
  -0.06216000  1.58674002  8.07647038
   0.07206000  0.06357000 12.84037018
  -1.36053002  2.60240006 12.72566986
   2.85973001  0.11386000 12.84947014
   1.39203000  2.54930997 12.74516964
  -0.83570999  3.09751010  3.53865004
   0.71691000  0.48252001  3.38815999
   2.07293010  2.96160007  3.59258008
   3.37570000  0.52440000  3.45862007
   0.67998999  3.74454999  1.51828003
   2.10518003  1.35139000  1.53894997
  -2.23774004  3.80417991  1.60197997
  -0.59965003  1.37581003  1.57049000
  -0.09673000 -0.02957000  9.08726978
  -1.53601003  2.25231004  9.02437973
   2.70218992 -0.19001000  9.01056957
   1.31124997  2.32773995  9.13751030
   4.10433006  0.77902001  7.03198004
   2.75108004  3.25888991  7.08726978
   1.30735004  0.70266998  7.04784012
  -0.00823000  3.33660007  7.04651022
  -1.29325998  0.90912998 13.70676994
   0.09244000 -1.50504005 13.78806972
   1.48064005  0.96156001 13.73396969
   2.89730001 -1.50047004 13.76817036
   4.29759979 -0.63128001 11.71467018
   2.80619001  1.77179003 11.69067001
   1.43572998 -0.66878998 11.75646973
   0.01701000  1.69347000 11.85496998
 


--------------------------------------------------------------------------------------------------------


 k-point  1 :   0.0833 0.0833 0.2500  plane waves:   14308
 k-point  2 :   0.2500 0.0833 0.2500  plane waves:   14306
 k-point  3 :   0.4167 0.0833 0.2500  plane waves:   14304
 k-point  4 :  -0.4167 0.0833 0.2500  plane waves:   14303
 k-point  5 :  -0.2500 0.0833 0.2500  plane waves:   14284
 k-point  6 :  -0.0833 0.0833 0.2500  plane waves:   14335
 k-point  7 :   0.0833 0.2500 0.2500  plane waves:   14295
 k-point  8 :   0.2500 0.2500 0.2500  plane waves:   14289
 k-point  9 :   0.4167 0.2500 0.2500  plane waves:   14329
 k-point 10 :  -0.4167 0.2500 0.2500  plane waves:   14322
 k-point 11 :  -0.2500 0.2500 0.2500  plane waves:   14301
 k-point 12 :  -0.0833 0.2500 0.2500  plane waves:   14300
 k-point 13 :   0.0833 0.4167 0.2500  plane waves:   14323
 k-point 14 :   0.2500 0.4167 0.2500  plane waves:   14325
 k-point 15 :   0.4167 0.4167 0.2500  plane waves:   14323
 k-point 16 :  -0.4167 0.4167 0.2500  plane waves:   14298
 k-point 17 :  -0.2500 0.4167 0.2500  plane waves:   14297
 k-point 18 :  -0.0833 0.4167 0.2500  plane waves:   14276
 k-point 19 :   0.0833-0.4167 0.2500  plane waves:   14300
 k-point 20 :   0.2500-0.4167 0.2500  plane waves:   14291
 k-point 21 :   0.4167-0.4167 0.2500  plane waves:   14298
 k-point 22 :  -0.4167-0.4167 0.2500  plane waves:   14317
 k-point 23 :  -0.2500-0.4167 0.2500  plane waves:   14304
 k-point 24 :  -0.0833-0.4167 0.2500  plane waves:   14292
 k-point 25 :   0.0833-0.2500 0.2500  plane waves:   14301
 k-point 26 :   0.2500-0.2500 0.2500  plane waves:   14309
 k-point 27 :   0.4167-0.2500 0.2500  plane waves:   14285
 k-point 28 :  -0.4167-0.2500 0.2500  plane waves:   14304
 k-point 29 :  -0.2500-0.2500 0.2500  plane waves:   14300
 k-point 30 :  -0.0833-0.2500 0.2500  plane waves:   14291
 k-point 31 :   0.0833-0.0833 0.2500  plane waves:   14321
 k-point 32 :   0.2500-0.0833 0.2500  plane waves:   14315
 k-point 33 :   0.4167-0.0833 0.2500  plane waves:   14295
 k-point 34 :  -0.4167-0.0833 0.2500  plane waves:   14325
 k-point 35 :  -0.2500-0.0833 0.2500  plane waves:   14288
 k-point 36 :  -0.0833-0.0833 0.2500  plane waves:   14323

 maximum and minimum number of plane-waves per node :      3598     3553

 maximum number of plane-waves:     14335
 maximum index in each direction: 
   IXMAX=   11   IYMAX=   11   IZMAX=   31
   IXMIN=  -11   IYMIN=  -11   IZMIN=  -31


 real space projection operators:
  total allocation   :       7372.60 KBytes
  max/ min on nodes  :       1849.20       1836.82


 parallel 3D FFT for wavefunctions:
    minimum data exchange during FFTs selected (reduces bandwidth)
 parallel 3D FFT for charge:
    minimum data exchange during FFTs selected (reduces bandwidth)


 total amount of memory used by VASP MPI-rank0   169603. kBytes
=======================================================================

   base      :      30000. kBytes
   nonlr-proj:       4222. kBytes
   fftplans  :       1801. kBytes
   grid      :       4952. kBytes
   one-center:        342. kBytes
   wavefun   :     128286. kBytes
 
     INWAV:  cpu time    0.0000: real time    0.0002
 Broyden mixing: mesh for mixing (old mesh)
   NGX = 23   NGY = 23   NGZ = 63
  (NGX  = 72   NGY  = 72   NGZ  =192)
  gives a total of  33327 points

 initial charge density was supplied:
 charge density of overlapping atoms calculated
 number of electron     258.0000000 magnetization       6.0000000
 keeping initial charge density in first step


--------------------------------------------------------------------------------------------------------


 Maximum index for non-local projection operator          675
 Maximum index for augmentation-charges          961 (set IRDMAX)


--------------------------------------------------------------------------------------------------------


 First call to EWALD:  gamma=   0.235
 Maximum number of real-space cells 4x 4x 2
 Maximum number of reciprocal cells 2x 2x 5

    FEWALD:  cpu time    0.0052: real time    0.0052


--------------------------------------- Iteration      1(   1)  ---------------------------------------


    POTLOK:  cpu time    0.0705: real time    0.0762
    SETDIJ:  cpu time    0.0177: real time    0.0183
    TRIAL :  cpu time   21.5551: real time   21.6512
    CORREC:  cpu time    0.0039: real time    0.0039
    --------------------------------------------
      LOOP:  cpu time   21.8619: real time   21.9657

 eigenvalue-minimisations  : 23040
 total energy-change (2. order) : 0.3467206E+04  (-0.1391786E+05)
 number of electron     258.0000000 magnetization       6.0000000
 augmentation part      258.0000000 magnetization       6.0000000

 Free energy of the ion-electron system (eV)
  ---------------------------------------------------
  alpha Z        PSCENC =       684.01423601
  Ewald energy   TEWEN  =    -11430.36014627
  -Hartree energ DENC   =     -9278.04464820
  -exchange      EXHF   =         0.00000000
  -V(xc)+E(xc)   XCENC  =       841.28191441
  PAW double counting   =     17015.18481625   -17491.61297812
  entropy T*S    EENTRO =        -0.00427910
  eigenvalues    EBANDS =      2957.87573790
  atomic energy  EATOM  =     20168.87094289
  ---------------------------------------------------
  free energy    TOTEN  =      3467.20559576 eV

  energy without entropy =     3467.20987486  energy(sigma->0) =     3467.20773531


--------------------------------------------------------------------------------------------------------




--------------------------------------- Iteration      1(   2)  ---------------------------------------


    TRIAL :  cpu time   22.8112: real time   22.8929
    CORREC:  cpu time    0.0044: real time    0.0044
    --------------------------------------------
      LOOP:  cpu time   22.8197: real time   22.9015

 eigenvalue-minimisations  : 24880
 total energy-change (2. order) :-0.3040960E+04  (-0.2803487E+04)
 number of electron     258.0000000 magnetization       6.0000000
 augmentation part      258.0000000 magnetization       6.0000000

 Free energy of the ion-electron system (eV)
  ---------------------------------------------------
  alpha Z        PSCENC =       684.01423601
  Ewald energy   TEWEN  =    -11430.36014627
  -Hartree energ DENC   =     -9278.04464820
  -exchange      EXHF   =         0.00000000
  -V(xc)+E(xc)   XCENC  =       841.28191441
  PAW double counting   =     17015.18481625   -17491.61297812
  entropy T*S    EENTRO =        -0.02301387
  eigenvalues    EBANDS =       -83.06598265
  atomic energy  EATOM  =     20168.87094289
  ---------------------------------------------------
  free energy    TOTEN  =       426.24514044 eV

  energy without entropy =      426.26815431  energy(sigma->0) =      426.25664738


--------------------------------------------------------------------------------------------------------




--------------------------------------- Iteration      1(   3)  ---------------------------------------


    TRIAL :  cpu time   24.2942: real time   24.4325
    CORREC:  cpu time    0.0045: real time    0.0045
    --------------------------------------------
      LOOP:  cpu time   24.3027: real time   24.4410

 eigenvalue-minimisations  : 27184
 total energy-change (2. order) :-0.6421708E+03  (-0.5936514E+03)
 number of electron     258.0000000 magnetization       6.0000000
 augmentation part      258.0000000 magnetization       6.0000000

 Free energy of the ion-electron system (eV)
  ---------------------------------------------------
  alpha Z        PSCENC =       684.01423601
  Ewald energy   TEWEN  =    -11430.36014627
  -Hartree energ DENC   =     -9278.04464820
  -exchange      EXHF   =         0.00000000
  -V(xc)+E(xc)   XCENC  =       841.28191441
  PAW double counting   =     17015.18481625   -17491.61297812
  entropy T*S    EENTRO =        -0.02546792
  eigenvalues    EBANDS =      -725.23429981
  atomic energy  EATOM  =     20168.87094289
  ---------------------------------------------------
  free energy    TOTEN  =      -215.92563077 eV

  energy without entropy =     -215.90016285  energy(sigma->0) =     -215.91289681


--------------------------------------------------------------------------------------------------------




--------------------------------------- Iteration      1(   4)  ---------------------------------------


    TRIAL :  cpu time   23.1183: real time   23.1768
    CORREC:  cpu time    0.0044: real time    0.0044
    --------------------------------------------
      LOOP:  cpu time   23.1268: real time   23.1853

 eigenvalue-minimisations  : 25216
 total energy-change (2. order) :-0.5267497E+02  (-0.5130182E+02)
 number of electron     258.0000000 magnetization       6.0000000
 augmentation part      258.0000000 magnetization       6.0000000

 Free energy of the ion-electron system (eV)
  ---------------------------------------------------
  alpha Z        PSCENC =       684.01423601
  Ewald energy   TEWEN  =    -11430.36014627
  -Hartree energ DENC   =     -9278.04464820
  -exchange      EXHF   =         0.00000000
  -V(xc)+E(xc)   XCENC  =       841.28191441
  PAW double counting   =     17015.18481625   -17491.61297812
  entropy T*S    EENTRO =        -0.01276067
  eigenvalues    EBANDS =      -777.92197234
  atomic energy  EATOM  =     20168.87094289
  ---------------------------------------------------
  free energy    TOTEN  =      -268.60059605 eV

  energy without entropy =     -268.58783538  energy(sigma->0) =     -268.59421572


--------------------------------------------------------------------------------------------------------




--------------------------------------- Iteration      1(   5)  ---------------------------------------


    TRIAL :  cpu time   25.9938: real time   26.0603
    CORREC:  cpu time    0.0059: real time    0.0059
    CHARGE:  cpu time    0.4413: real time    0.4419
    --------------------------------------------
      LOOP:  cpu time   26.4450: real time   26.5121

 eigenvalue-minimisations  : 29360
 total energy-change (2. order) :-0.1950131E+01  (-0.1945941E+01)
 number of electron     257.9999956 magnetization       5.9999995
 augmentation part       68.0589803 magnetization       4.2952605

 Free energy of the ion-electron system (eV)
  ---------------------------------------------------
  alpha Z        PSCENC =       684.01423601
  Ewald energy   TEWEN  =    -11430.36014627
  -Hartree energ DENC   =     -9278.04464820
  -exchange      EXHF   =         0.00000000
  -V(xc)+E(xc)   XCENC  =       841.28191441
  PAW double counting   =     17015.18481625   -17491.61297812
  entropy T*S    EENTRO =        -0.01286593
  eigenvalues    EBANDS =      -779.87199770
  atomic energy  EATOM  =     20168.87094289
  ---------------------------------------------------
  free energy    TOTEN  =      -270.55072667 eV

  energy without entropy =     -270.53786074  energy(sigma->0) =     -270.54429370


--------------------------------------------------------------------------------------------------------




--------------------------------------- Iteration      1(   6)  ---------------------------------------


    POTLOK:  cpu time    0.0510: real time    0.0510
    SETDIJ:  cpu time    0.0126: real time    0.0126
    TRIAL :  cpu time   12.2809: real time   12.3117
    CORREC:  cpu time    4.1885: real time    4.2023
    CHARGE:  cpu time    0.4459: real time    0.4464
    --------------------------------------------
      LOOP:  cpu time   16.9830: real time   17.0282

 eigenvalue-minimisations  :     0
 total energy-change (2. order) : 0.4170589E+03  (-0.6044136E+02)
 number of electron     257.9999950 magnetization       6.0000001
 augmentation part       69.0580739 magnetization       4.3615216

 Free energy of the ion-electron system (eV)
  ---------------------------------------------------
  alpha Z        PSCENC =       684.01423601
  Ewald energy   TEWEN  =    -11430.36014627
  -Hartree energ DENC   =     -9253.19079995
  -exchange      EXHF   =         0.00000000
  -V(xc)+E(xc)   XCENC  =       877.12970030
  PAW double counting   =     23630.80174537   -23841.01653505
  entropy T*S    EENTRO =        -0.04225078
  eigenvalues    EBANDS =      -689.72806770
  atomic energy  EATOM  =     20168.87094289
  ---------------------------------------------------
  free energy    TOTEN  =       146.50820967 eV

  energy without entropy =      146.55046045  energy(sigma->0) =      146.52933506


--------------------------------------------------------------------------------------------------------




--------------------------------------- Iteration      1(   7)  ---------------------------------------


    POTLOK:  cpu time    0.0496: real time    0.0496
    SETDIJ:  cpu time    0.0125: real time    0.0126
    TRIAL :  cpu time   12.1601: real time   12.1937
    CORREC:  cpu time    4.2103: real time    4.2272
    CHARGE:  cpu time    0.4315: real time    0.4424
    --------------------------------------------
      LOOP:  cpu time   16.8673: real time   16.9288

 eigenvalue-minimisations  :     0
 total energy-change (2. order) :-0.6916393E+02  (-0.2271867E+02)
 number of electron     257.9999953 magnetization       5.9999998
 augmentation part       69.3733114 magnetization       4.2783024

 Free energy of the ion-electron system (eV)
  ---------------------------------------------------
  alpha Z        PSCENC =       684.01423601
  Ewald energy   TEWEN  =    -11430.36014627
  -Hartree energ DENC   =     -8707.44172186
  -exchange      EXHF   =         0.00000000
  -V(xc)+E(xc)   XCENC  =       870.40183536
  PAW double counting   =     23466.13883754   -23716.41634566
  entropy T*S    EENTRO =        -0.05581093
  eigenvalues    EBANDS =     -1257.82110668
  atomic energy  EATOM  =     20168.87094289
  ---------------------------------------------------
  free energy    TOTEN  =        77.34428056 eV

  energy without entropy =       77.40009149  energy(sigma->0) =       77.37218602


--------------------------------------------------------------------------------------------------------




--------------------------------------- Iteration      1(   8)  ---------------------------------------


    POTLOK:  cpu time    0.0487: real time    0.0488
    SETDIJ:  cpu time    0.0125: real time    0.0125
    TRIAL :  cpu time   12.1224: real time   12.2133
    CORREC:  cpu time    4.2394: real time    4.2482
    CHARGE:  cpu time    0.4377: real time    0.4383
    --------------------------------------------
      LOOP:  cpu time   16.8650: real time   16.9655

 eigenvalue-minimisations  :     0
 total energy-change (2. order) :-0.9888418E+02  (-0.9959866E+02)
 number of electron     257.9999956 magnetization       5.9999996
 augmentation part       71.4567148 magnetization       4.3097151

 Free energy of the ion-electron system (eV)
  ---------------------------------------------------
  alpha Z        PSCENC =       684.01423601
  Ewald energy   TEWEN  =    -11430.36014627
  -Hartree energ DENC   =     -8825.56371996
  -exchange      EXHF   =         0.00000000
  -V(xc)+E(xc)   XCENC  =       867.50454230
  PAW double counting   =     23366.90241829   -23626.08606573
  entropy T*S    EENTRO =        -0.02249602
  eigenvalues    EBANDS =     -1226.76629952
  atomic energy  EATOM  =     20168.87094289
  ---------------------------------------------------
  free energy    TOTEN  =       -21.53990293 eV

  energy without entropy =      -21.51740691  energy(sigma->0) =      -21.52865492


--------------------------------------------------------------------------------------------------------




--------------------------------------- Iteration      1(   9)  ---------------------------------------


    POTLOK:  cpu time    0.0487: real time    0.0487
    SETDIJ:  cpu time    0.0122: real time    0.0122
    TRIAL :  cpu time   12.1333: real time   12.1601
    CORREC:  cpu time    5.0516: real time    5.0618
    CHARGE:  cpu time    0.5530: real time    0.5560
    --------------------------------------------
      LOOP:  cpu time   17.8029: real time   17.8430

 eigenvalue-minimisations  :     0
 total energy-change (2. order) :-0.2937772E+02  (-0.1732139E+03)
 number of electron     257.9999956 magnetization       5.9999998
 augmentation part       75.7261671 magnetization       3.8426407

 Free energy of the ion-electron system (eV)
  ---------------------------------------------------
  alpha Z        PSCENC =       684.01423601
  Ewald energy   TEWEN  =    -11430.36014627
  -Hartree energ DENC   =     -9256.38779741
  -exchange      EXHF   =         0.00000000
  -V(xc)+E(xc)   XCENC  =       863.06440364
  PAW double counting   =     23502.62172358   -23842.46115920
  entropy T*S    EENTRO =        -0.03058532
  eigenvalues    EBANDS =      -740.25733039
  atomic energy  EATOM  =     20168.87094289
  ---------------------------------------------------
  free energy    TOTEN  =       -50.91762316 eV

  energy without entropy =      -50.88703784  energy(sigma->0) =      -50.90233050


--------------------------------------------------------------------------------------------------------




--------------------------------------- Iteration      1(  10)  ---------------------------------------


    POTLOK:  cpu time    0.0664: real time    0.0665
    SETDIJ:  cpu time    0.0168: real time    0.0168
    TRIAL :  cpu time   13.1796: real time   13.2197
    CORREC:  cpu time    4.2103: real time    4.2191
    CHARGE:  cpu time    0.6511: real time    0.6526
    --------------------------------------------
      LOOP:  cpu time   18.1285: real time   18.1789

 eigenvalue-minimisations  :     0
 total energy-change (2. order) :-0.1326451E+03  (-0.3230353E+02)
 number of electron     257.9999957 magnetization       5.9999997
 augmentation part       76.8375585 magnetization       3.8204788

 Free energy of the ion-electron system (eV)
  ---------------------------------------------------
  alpha Z        PSCENC =       684.01423601
  Ewald energy   TEWEN  =    -11430.36014627
  -Hartree energ DENC   =     -9163.51685720
  -exchange      EXHF   =         0.00000000
  -V(xc)+E(xc)   XCENC  =       849.58898239
  PAW double counting   =     23596.67558574   -24107.85261395
  entropy T*S    EENTRO =        -0.02842437
  eigenvalues    EBANDS =      -780.95223813
  atomic energy  EATOM  =     20168.87094289
  ---------------------------------------------------
  free energy    TOTEN  =      -183.56269384 eV

  energy without entropy =     -183.53426947  energy(sigma->0) =     -183.54848166


--------------------------------------------------------------------------------------------------------




--------------------------------------- Iteration      1(  11)  ---------------------------------------


    POTLOK:  cpu time    0.0484: real time    0.0485
    SETDIJ:  cpu time    0.0125: real time    0.0125
    TRIAL :  cpu time   11.9673: real time   12.0238
    CORREC:  cpu time    4.3528: real time    4.3649
    CHARGE:  cpu time    0.4361: real time    0.4369
    --------------------------------------------
      LOOP:  cpu time   16.8176: real time   16.8870

 eigenvalue-minimisations  :     0
 total energy-change (2. order) :-0.4152144E+01  (-0.3602226E+02)
 number of electron     257.9999956 magnetization       5.9999998
 augmentation part       76.3680395 magnetization       3.7767815

 Free energy of the ion-electron system (eV)
  ---------------------------------------------------
  alpha Z        PSCENC =       684.01423601
  Ewald energy   TEWEN  =    -11430.36014627
  -Hartree energ DENC   =     -9230.46616643
  -exchange      EXHF   =         0.00000000
  -V(xc)+E(xc)   XCENC  =       847.98473160
  PAW double counting   =     23828.18620873   -24386.27449978
  entropy T*S    EENTRO =        -0.01958986
  eigenvalues    EBANDS =      -669.64172054
  atomic energy  EATOM  =     20168.87094289
  ---------------------------------------------------
  free energy    TOTEN  =      -187.71483817 eV

  energy without entropy =     -187.69524830  energy(sigma->0) =     -187.70504323


--------------------------------------------------------------------------------------------------------




--------------------------------------- Iteration      1(  12)  ---------------------------------------


    POTLOK:  cpu time    0.0491: real time    0.0492
    SETDIJ:  cpu time    0.0124: real time    0.0125
    TRIAL :  cpu time   12.0037: real time   12.0448
    CORREC:  cpu time    4.2832: real time    4.2935
    CHARGE:  cpu time    0.4403: real time    0.4417
    --------------------------------------------
      LOOP:  cpu time   16.7929: real time   16.8458

 eigenvalue-minimisations  :     0
 total energy-change (2. order) :-0.2828326E+00  (-0.2782281E+01)
 number of electron     257.9999956 magnetization       5.9999998
 augmentation part       76.2148440 magnetization       3.7942899

 Free energy of the ion-electron system (eV)
  ---------------------------------------------------
  alpha Z        PSCENC =       684.01423601
  Ewald energy   TEWEN  =    -11430.36014627
  -Hartree energ DENC   =     -9294.92492993
  -exchange      EXHF   =         0.00000000
  -V(xc)+E(xc)   XCENC  =       848.63177953
  PAW double counting   =     23730.58915945   -24265.01625985
  entropy T*S    EENTRO =        -0.02983448
  eigenvalues    EBANDS =      -629.78286278
  atomic energy  EATOM  =     20168.87094289
  ---------------------------------------------------
  free energy    TOTEN  =      -187.99767081 eV

  energy without entropy =     -187.96783633  energy(sigma->0) =     -187.98275357


--------------------------------------------------------------------------------------------------------




--------------------------------------- Iteration      1(  13)  ---------------------------------------


    POTLOK:  cpu time    0.0486: real time    0.0487
    SETDIJ:  cpu time    0.0125: real time    0.0125
    TRIAL :  cpu time   12.0853: real time   12.2117
    CORREC:  cpu time    4.1622: real time    4.1785
    CHARGE:  cpu time    0.4398: real time    0.4410
    --------------------------------------------
      LOOP:  cpu time   16.7527: real time   16.8967

 eigenvalue-minimisations  :     0
 total energy-change (2. order) :-0.1228709E+02  (-0.1556502E+02)
 number of electron     257.9999956 magnetization       5.9999998
 augmentation part       75.9758533 magnetization       3.8503590

 Free energy of the ion-electron system (eV)
  ---------------------------------------------------
  alpha Z        PSCENC =       684.01423601
  Ewald energy   TEWEN  =    -11430.36014627
  -Hartree energ DENC   =     -9248.09504624
  -exchange      EXHF   =         0.00000000
  -V(xc)+E(xc)   XCENC  =       848.59828797
  PAW double counting   =     23687.20022357   -24214.01243896
  entropy T*S    EENTRO =        -0.02864944
  eigenvalues    EBANDS =      -696.47098615
  atomic energy  EATOM  =     20168.87094289
  ---------------------------------------------------
  free energy    TOTEN  =      -200.28476166 eV

  energy without entropy =     -200.25611222  energy(sigma->0) =     -200.27043694


--------------------------------------------------------------------------------------------------------




--------------------------------------- Iteration      1(  14)  ---------------------------------------


    POTLOK:  cpu time    0.0488: real time    0.0489
    SETDIJ:  cpu time    0.0125: real time    0.0126
    TRIAL :  cpu time   12.2006: real time   12.2377
    CORREC:  cpu time    4.2298: real time    4.2405
    CHARGE:  cpu time    0.4386: real time    0.4391
    --------------------------------------------
      LOOP:  cpu time   16.9344: real time   16.9829

 eigenvalue-minimisations  :     0
 total energy-change (2. order) :-0.3601122E+01  (-0.2306019E+02)
 number of electron     257.9999956 magnetization       5.9999998
 augmentation part       75.8131652 magnetization       3.8085453

 Free energy of the ion-electron system (eV)
  ---------------------------------------------------
  alpha Z        PSCENC =       684.01423601
  Ewald energy   TEWEN  =    -11430.36014627
  -Hartree energ DENC   =     -9183.64845306
  -exchange      EXHF   =         0.00000000
  -V(xc)+E(xc)   XCENC  =       848.67720187
  PAW double counting   =     23633.01375479   -24148.71761900
  entropy T*S    EENTRO =        -0.01933137
  eigenvalues    EBANDS =      -775.70715160
  atomic energy  EATOM  =     20168.87094289
  ---------------------------------------------------
  free energy    TOTEN  =      -203.88588381 eV

  energy without entropy =     -203.86655244  energy(sigma->0) =     -203.87621812


--------------------------------------------------------------------------------------------------------




--------------------------------------- Iteration      1(  15)  ---------------------------------------


    POTLOK:  cpu time    0.0486: real time    0.0491
    SETDIJ:  cpu time    0.0125: real time    0.0125
    TRIAL :  cpu time   12.2086: real time   12.2414
    CORREC:  cpu time    4.2344: real time    4.2425
    CHARGE:  cpu time    0.4348: real time    0.4373
    --------------------------------------------
      LOOP:  cpu time   16.9431: real time   16.9870

 eigenvalue-minimisations  :     0
 total energy-change (2. order) : 0.1100245E+02  (-0.6520757E+01)
 number of electron     257.9999956 magnetization       5.9999998
 augmentation part       75.6540367 magnetization       3.8426789

 Free energy of the ion-electron system (eV)
  ---------------------------------------------------
  alpha Z        PSCENC =       684.01423601
  Ewald energy   TEWEN  =    -11430.36014627
  -Hartree energ DENC   =     -9308.76855786
  -exchange      EXHF   =         0.00000000
  -V(xc)+E(xc)   XCENC  =       849.27208738
  PAW double counting   =     23622.52278503   -24127.34569555
  entropy T*S    EENTRO =        -0.02629050
  eigenvalues    EBANDS =      -651.06975512
  atomic energy  EATOM  =     20168.87094289
  ---------------------------------------------------
  free energy    TOTEN  =      -192.88343485 eV

  energy without entropy =     -192.85714435  energy(sigma->0) =     -192.87028960


--------------------------------------------------------------------------------------------------------




--------------------------------------- Iteration      1(  16)  ---------------------------------------


    POTLOK:  cpu time    0.0488: real time    0.0488
    SETDIJ:  cpu time    0.0124: real time    0.0124
    TRIAL :  cpu time   12.1453: real time   12.2009
    CORREC:  cpu time    4.1781: real time    4.1922
    CHARGE:  cpu time    0.4386: real time    0.4397
    --------------------------------------------
      LOOP:  cpu time   16.8275: real time   16.8982

 eigenvalue-minimisations  :     0
 total energy-change (2. order) :-0.1758434E+02  (-0.3928522E+01)
 number of electron     257.9999956 magnetization       5.9999998
 augmentation part       75.6377421 magnetization       3.8473119

 Free energy of the ion-electron system (eV)
  ---------------------------------------------------
  alpha Z        PSCENC =       684.01423601
  Ewald energy   TEWEN  =    -11430.36014627
  -Hartree energ DENC   =     -9212.67043481
  -exchange      EXHF   =         0.00000000
  -V(xc)+E(xc)   XCENC  =       849.17658268
  PAW double counting   =     23582.18087730   -24077.47570568
  entropy T*S    EENTRO =        -0.02673868
  eigenvalues    EBANDS =      -774.17783291
  atomic energy  EATOM  =     20168.87094289
  ---------------------------------------------------
  free energy    TOTEN  =      -210.46777129 eV

  energy without entropy =     -210.44103261  energy(sigma->0) =     -210.45440195


--------------------------------------------------------------------------------------------------------




--------------------------------------- Iteration      1(  17)  ---------------------------------------


    POTLOK:  cpu time    0.0488: real time    0.0490
    SETDIJ:  cpu time    0.0124: real time    0.0124
    TRIAL :  cpu time   12.1225: real time   12.1763
    CORREC:  cpu time    4.1864: real time    4.2018
    CHARGE:  cpu time    0.4338: real time    0.4350
    --------------------------------------------
      LOOP:  cpu time   16.8066: real time   16.8770

 eigenvalue-minimisations  :     0
 total energy-change (2. order) :-0.3503657E+01  (-0.2957661E+01)
 number of electron     257.9999956 magnetization       5.9999998
 augmentation part       75.5613543 magnetization       3.8658805

 Free energy of the ion-electron system (eV)
  ---------------------------------------------------
  alpha Z        PSCENC =       684.01423601
  Ewald energy   TEWEN  =    -11430.36014627
  -Hartree energ DENC   =     -9216.96550559
  -exchange      EXHF   =         0.00000000
  -V(xc)+E(xc)   XCENC  =       849.18755804
  PAW double counting   =     23577.61869898   -24070.71361284
  entropy T*S    EENTRO =        -0.02414187
  eigenvalues    EBANDS =      -775.59686087
  atomic energy  EATOM  =     20168.87094289
  ---------------------------------------------------
  free energy    TOTEN  =      -213.97142833 eV

  energy without entropy =     -213.94728646  energy(sigma->0) =     -213.95935740


--------------------------------------------------------------------------------------------------------




--------------------------------------- Iteration      1(  18)  ---------------------------------------


    POTLOK:  cpu time    0.0488: real time    0.0489
    SETDIJ:  cpu time    0.0143: real time    0.0143
    TRIAL :  cpu time   12.1282: real time   12.1990
    CORREC:  cpu time    4.3260: real time    4.3418
    CHARGE:  cpu time    0.4305: real time    0.4316
    --------------------------------------------
      LOOP:  cpu time   16.9520: real time   17.0398

 eigenvalue-minimisations  :     0
 total energy-change (2. order) :-0.3140213E+01  (-0.2682723E+01)
 number of electron     257.9999956 magnetization       5.9999998
 augmentation part       75.5702176 magnetization       3.8392455

 Free energy of the ion-electron system (eV)
  ---------------------------------------------------
  alpha Z        PSCENC =       684.01423601
  Ewald energy   TEWEN  =    -11430.36014627
  -Hartree energ DENC   =     -9218.05637945
  -exchange      EXHF   =         0.00000000
  -V(xc)+E(xc)   XCENC  =       849.61174833
  PAW double counting   =     23613.97773305   -24091.40855163
  entropy T*S    EENTRO =        -0.01862992
  eigenvalues    EBANDS =      -793.73708207
  atomic energy  EATOM  =     20168.87094289
  ---------------------------------------------------
  free energy    TOTEN  =      -217.11164102 eV

  energy without entropy =     -217.09301110  energy(sigma->0) =     -217.10232606


--------------------------------------------------------------------------------------------------------




--------------------------------------- Iteration      1(  19)  ---------------------------------------


    POTLOK:  cpu time    0.0510: real time    0.0512
    SETDIJ:  cpu time    0.0126: real time    0.0126
    TRIAL :  cpu time   11.9556: real time   12.0685
    CORREC:  cpu time    4.3059: real time    4.3179
    CHARGE:  cpu time    0.4302: real time    0.4317
    --------------------------------------------
      LOOP:  cpu time   16.7594: real time   16.8860

 eigenvalue-minimisations  :     0
 total energy-change (2. order) :-0.1656190E+01  (-0.6516917E+00)
 number of electron     257.9999956 magnetization       5.9999998
 augmentation part       75.5919403 magnetization       3.8329349

 Free energy of the ion-electron system (eV)
  ---------------------------------------------------
  alpha Z        PSCENC =       684.01423601
  Ewald energy   TEWEN  =    -11430.36014627
  -Hartree energ DENC   =     -9293.53882924
  -exchange      EXHF   =         0.00000000
  -V(xc)+E(xc)   XCENC  =       849.91913993
  PAW double counting   =     23706.76487461   -24172.09399546
  entropy T*S    EENTRO =        -0.01965732
  eigenvalues    EBANDS =      -732.32542380
  atomic energy  EATOM  =     20168.87094289
  ---------------------------------------------------
  free energy    TOTEN  =      -218.76783126 eV

  energy without entropy =     -218.74817394  energy(sigma->0) =     -218.75800260


--------------------------------------------------------------------------------------------------------




--------------------------------------- Iteration      1(  20)  ---------------------------------------


    POTLOK:  cpu time    0.0487: real time    0.0489
    SETDIJ:  cpu time    0.0125: real time    0.0125
    TRIAL :  cpu time   11.9554: real time   12.0174
    CORREC:  cpu time    4.3476: real time    4.3587
    CHARGE:  cpu time    0.4269: real time    0.4284
    --------------------------------------------
      LOOP:  cpu time   16.7955: real time   16.8703

 eigenvalue-minimisations  :     0
 total energy-change (2. order) :-0.7130375E+00  (-0.2440029E+00)
 number of electron     257.9999955 magnetization       5.9999998
 augmentation part       75.6665712 magnetization       3.8205149

 Free energy of the ion-electron system (eV)
  ---------------------------------------------------
  alpha Z        PSCENC =       684.01423601
  Ewald energy   TEWEN  =    -11430.36014627
  -Hartree energ DENC   =     -9286.44778978
  -exchange      EXHF   =         0.00000000
  -V(xc)+E(xc)   XCENC  =       850.00185626
  PAW double counting   =     23747.43219487   -24208.35758305
  entropy T*S    EENTRO =        -0.01926502
  eigenvalues    EBANDS =      -744.61492241
  atomic energy  EATOM  =     20168.87094289
  ---------------------------------------------------
  free energy    TOTEN  =      -219.48086881 eV

  energy without entropy =     -219.46160378  energy(sigma->0) =     -219.47123630


--------------------------------------------------------------------------------------------------------




--------------------------------------- Iteration      1(  21)  ---------------------------------------


    POTLOK:  cpu time    0.0485: real time    0.0486
    SETDIJ:  cpu time    0.0125: real time    0.0126
    TRIAL :  cpu time   12.1886: real time   12.2386
    CORREC:  cpu time    4.1794: real time    4.1988
    CHARGE:  cpu time    0.4284: real time    0.4302
    --------------------------------------------
      LOOP:  cpu time   16.8618: real time   16.9331

 eigenvalue-minimisations  :     0
 total energy-change (2. order) :-0.2380234E+00  (-0.3797446E+00)
 number of electron     257.9999955 magnetization       5.9999998
 augmentation part       75.8508927 magnetization       3.7835508

 Free energy of the ion-electron system (eV)
  ---------------------------------------------------
  alpha Z        PSCENC =       684.01423601
  Ewald energy   TEWEN  =    -11430.36014627
  -Hartree energ DENC   =     -9276.23083336
  -exchange      EXHF   =         0.00000000
  -V(xc)+E(xc)   XCENC  =       850.13987903
  PAW double counting   =     23738.66242329   -24199.76735258
  entropy T*S    EENTRO =        -0.01535627
  eigenvalues    EBANDS =      -755.02877618
  atomic energy  EATOM  =     20168.87094289
  ---------------------------------------------------
  free energy    TOTEN  =      -219.71889220 eV

  energy without entropy =     -219.70353593  energy(sigma->0) =     -219.71121407


--------------------------------------------------------------------------------------------------------




--------------------------------------- Iteration      1(  22)  ---------------------------------------


    POTLOK:  cpu time    0.0487: real time    0.0488
    SETDIJ:  cpu time    0.0124: real time    0.0124
    TRIAL :  cpu time   12.1473: real time   12.2011
    CORREC:  cpu time    4.1967: real time    4.2184
    CHARGE:  cpu time    0.4236: real time    0.4258
    --------------------------------------------
      LOOP:  cpu time   16.8329: real time   16.9107

 eigenvalue-minimisations  :     0
 total energy-change (2. order) :-0.3128890E+00  (-0.3892927E+00)
 number of electron     257.9999954 magnetization       5.9999999
 augmentation part       76.0545044 magnetization       3.7385349

 Free energy of the ion-electron system (eV)
  ---------------------------------------------------
  alpha Z        PSCENC =       684.01423601
  Ewald energy   TEWEN  =    -11430.36014627
  -Hartree energ DENC   =     -9283.86789121
  -exchange      EXHF   =         0.00000000
  -V(xc)+E(xc)   XCENC  =       850.49971734
  PAW double counting   =     23709.95170491   -24172.67536041
  entropy T*S    EENTRO =        -0.01241438
  eigenvalues    EBANDS =      -746.44962821
  atomic energy  EATOM  =     20168.87094289
  ---------------------------------------------------
  free energy    TOTEN  =      -220.03178122 eV

  energy without entropy =     -220.01936683  energy(sigma->0) =     -220.02557402


--------------------------------------------------------------------------------------------------------




--------------------------------------- Iteration      1(  23)  ---------------------------------------


    POTLOK:  cpu time    0.0507: real time    0.0509
    SETDIJ:  cpu time    0.0125: real time    0.0126
    TRIAL :  cpu time   12.1347: real time   12.1891
    CORREC:  cpu time    4.1743: real time    4.1867
    CHARGE:  cpu time    0.4307: real time    0.4342
    --------------------------------------------
      LOOP:  cpu time   16.8073: real time   16.8779

 eigenvalue-minimisations  :     0
 total energy-change (2. order) :-0.3869998E+00  (-0.9274190E-01)
 number of electron     257.9999954 magnetization       5.9999999
 augmentation part       76.0690814 magnetization       3.7342652

 Free energy of the ion-electron system (eV)
  ---------------------------------------------------
  alpha Z        PSCENC =       684.01423601
  Ewald energy   TEWEN  =    -11430.36014627
  -Hartree energ DENC   =     -9282.05169530
  -exchange      EXHF   =         0.00000000
  -V(xc)+E(xc)   XCENC  =       850.94826063
  PAW double counting   =     23661.53723376   -24125.90134790
  entropy T*S    EENTRO =        -0.01296134
  eigenvalues    EBANDS =      -747.46385044
  atomic energy  EATOM  =     20168.87094289
  ---------------------------------------------------
  free energy    TOTEN  =      -220.41878101 eV

  energy without entropy =     -220.40581967  energy(sigma->0) =     -220.41230034


--------------------------------------------------------------------------------------------------------




--------------------------------------- Iteration      1(  24)  ---------------------------------------


    POTLOK:  cpu time    0.0486: real time    0.0487
    SETDIJ:  cpu time    0.0123: real time    0.0123
    TRIAL :  cpu time   12.1106: real time   12.2168
    CORREC:  cpu time    4.1958: real time    4.2094
    CHARGE:  cpu time    0.4255: real time    0.4263
    --------------------------------------------
      LOOP:  cpu time   16.7970: real time   16.9176

 eigenvalue-minimisations  :     0
 total energy-change (2. order) :-0.9557469E-01  (-0.8470022E-01)
 number of electron     257.9999954 magnetization       5.9999999
 augmentation part       76.0475816 magnetization       3.7378859

 Free energy of the ion-electron system (eV)
  ---------------------------------------------------
  alpha Z        PSCENC =       684.01423601
  Ewald energy   TEWEN  =    -11430.36014627
  -Hartree energ DENC   =     -9273.23125159
  -exchange      EXHF   =         0.00000000
  -V(xc)+E(xc)   XCENC  =       851.04585480
  PAW double counting   =     23647.69282941   -24111.68049744
  entropy T*S    EENTRO =        -0.01170165
  eigenvalues    EBANDS =      -756.85336216
  atomic energy  EATOM  =     20168.87094289
  ---------------------------------------------------
  free energy    TOTEN  =      -220.51435570 eV

  energy without entropy =     -220.50265404  energy(sigma->0) =     -220.50850487


--------------------------------------------------------------------------------------------------------




--------------------------------------- Iteration      1(  25)  ---------------------------------------


    POTLOK:  cpu time    0.0487: real time    0.0488
    SETDIJ:  cpu time    0.0125: real time    0.0125
    TRIAL :  cpu time   12.1575: real time   12.2186
    CORREC:  cpu time    4.1715: real time    4.1816
    CHARGE:  cpu time    0.4229: real time    0.4236
    --------------------------------------------
      LOOP:  cpu time   16.8175: real time   16.8893

 eigenvalue-minimisations  :     0
 total energy-change (2. order) :-0.8334362E-01  (-0.1599126E+00)
 number of electron     257.9999953 magnetization       6.0000000
 augmentation part       75.9836608 magnetization       3.7617599

 Free energy of the ion-electron system (eV)
  ---------------------------------------------------
[...]
   20        1.582   3.393   0.000   4.975
   21        1.581   3.312   0.000   4.893
   22        1.576   3.393   0.000   4.969
   23        1.571   3.389   0.000   4.960
   24        1.571   3.423   0.000   4.994
   25        1.581   3.374   0.000   4.955
   26        1.576   3.396   0.000   4.972
   27        1.555   3.468   0.000   5.024
   28        1.552   3.496   0.000   5.047
   29        1.556   3.468   0.000   5.024
   30        1.551   3.492   0.000   5.043
   31        1.566   3.382   0.000   4.948
   32        1.578   3.403   0.000   4.980
   33        1.581   3.355   0.000   4.937
   34        1.571   3.395   0.000   4.965
   35        1.580   3.367   0.000   4.947
   36        1.572   3.383   0.000   4.955
   37        1.576   3.389   0.000   4.965
   38        1.581   3.354   0.000   4.935
   39        1.564   3.430   0.000   4.993
   40        1.556   3.459   0.000   5.015
   41        1.559   3.485   0.000   5.044
   42        1.557   3.502   0.000   5.059
--------------------------------------------------
tot         43.532  91.239  87.542 222.314
 


 magnetization (x)
 
# of ion       s       p       d       tot
------------------------------------------
    1        0.000  -0.000   0.000   0.000
    2        0.000  -0.000   0.000  -0.000
    3       -0.000  -0.001   0.000  -0.001
    4        0.001  -0.001   0.000  -0.000
    5        0.000   0.000   0.000   0.000
    6        0.000  -0.001   0.000  -0.000
    7        0.012   0.017   1.276   1.305
    8        0.006   0.009  -0.031  -0.016
    9        0.015   0.018   1.416   1.448
   10        0.014   0.020   1.480   1.514
   11        0.001   0.001  -0.139  -0.137
   12        0.003   0.003  -0.023  -0.017
   13        0.011   0.002   1.387   1.400
   14        0.001   0.001  -0.022  -0.020
   15        0.011   0.012   1.274   1.297
   16        0.003   0.005   0.004   0.012
   17        0.014   0.011   1.673   1.697
   18        0.003   0.004  -0.012  -0.005
   19        0.000  -0.167   0.000  -0.167
   20        0.001  -0.125   0.000  -0.124
   21       -0.000  -0.247   0.000  -0.248
   22        0.001  -0.136   0.000  -0.135
   23        0.000  -0.089   0.000  -0.089
   24        0.001  -0.061   0.000  -0.060
   25        0.000  -0.182   0.000  -0.182
   26        0.001  -0.109   0.000  -0.108
   27        0.000  -0.058   0.000  -0.057
   28        0.001  -0.022   0.000  -0.022
   29        0.000  -0.029   0.000  -0.029
   30       -0.000  -0.007   0.000  -0.007
   31       -0.000  -0.002   0.000  -0.002
   32        0.001  -0.045   0.000  -0.044
   33        0.000  -0.122   0.000  -0.122
   34       -0.001  -0.133   0.000  -0.133
   35        0.002  -0.135   0.000  -0.133
   36        0.000  -0.063   0.000  -0.062
   37        0.001  -0.118   0.000  -0.117
   38        0.000  -0.141   0.000  -0.141
   39        0.001  -0.090   0.000  -0.089
   40        0.001  -0.038   0.000  -0.038
   41        0.002  -0.041   0.000  -0.039
   42        0.000  -0.025   0.000  -0.025
--------------------------------------------------
tot          0.109  -2.088   8.282   6.304
 
    FORLOC:  cpu time    0.0052: real time    0.0052
    FORNL :  cpu time    4.0695: real time    4.1037
    STRESS:  cpu time   12.0619: real time   12.3146
    FORCOR:  cpu time    0.0515: real time    0.0530
    OFIELD:  cpu time    0.0004: real time    0.0004

  DFT-D2 method for vdW energy calculation
  -------------------------------------------------------------------

  Parameters of vdW forcefield:
         C6(Jnm^6/mol)     R0(A)
   -----------------------------
   Li       1.610          0.825
   Co      10.800          1.562
   O        0.700          1.342

  IVDW =   1
  VDW_RADIUS =    50.000 A
  VDW_S6 =     0.750
  VDW_SR =     1.000
  VDW_D =    20.000
  LVDW_EWALD = F

  Number of pair interactions contributing to vdW energy: 1103379
  Edisp (eV):   -8.90505
    FORVDW:  cpu time    0.1677: real time    0.1723

  FORCE on cell =-STRESS in cart. coord.  units (eV):
  Direction    XX          YY          ZZ          XY          YZ          ZX
  --------------------------------------------------------------------------------------
  Alpha Z   684.01424   684.01424   684.01424
  Ewald     960.50066   741.50448-13132.43704    28.10926    76.76596    37.13916
  Hartree  6864.50771  6755.05666 -4356.45373    11.19712    36.18104    14.07188
  E(xc)   -1283.91942 -1284.22571 -1285.59868     0.07118     0.02692     0.05651
  Local  -12704.96374-12390.00720 12559.78303   -34.00456  -113.13550   -47.59287
  n-local  -589.66760  -596.78493  -601.63293     1.85503     3.44100     1.41294
  augment  2018.04198  2024.82447  2002.68231    -3.25062    -0.21245    -2.33329
  Kinetic  4061.35248  4065.84579  4131.81894    -2.31082     0.73349    -0.55827
  Fock        0.00000     0.00000     0.00000     0.00000     0.00000     0.00000
  vdW        -6.66110    -5.68143   -11.23645    -0.13309    -0.10000    -0.01902
  -------------------------------------------------------------------------------------
  Total       3.20521    -5.45363    -9.06032     1.53352     3.70045     2.17704
  in kB      11.98169   -20.38668   -33.86916     5.73259    13.83296     8.13817
  external pressure =      -14.09 kB  Pullay stress =        0.00 kB


 VOLUME and BASIS-vectors are now :
 -----------------------------------------------------------------------------
  energy-cutoff  :      600.00
  volume of cell :      428.60
      direct lattice vectors                 reciprocal lattice vectors
     5.625804901  0.000000000  0.000000000     0.177752343  0.102485128  0.022223675
    -2.822909117  4.896112442  0.000000000     0.000000000  0.204243675  0.032172361
    -0.532256544 -2.451025486 15.560140610     0.000000000  0.000000000  0.064266771

  length of vectors
     5.625804901  5.651613303 15.760989777     0.206380688  0.206762036  0.064266771


 FORCES acting on ions:
    Electron-Ion                     Ewald-Force                    Non-Local-Force
 -----------------------------------------------------------------------------------------------
   0.519E+00 -.136E+01 -.319E+00   -.325E+00 0.117E+01 0.108E+01   -.229E+00 0.157E+00 -.745E+00
   -.109E+01 0.115E+01 0.430E+02   0.830E+00 -.593E+00 -.421E+02   0.114E+00 -.463E+00 -.139E+01
   -.169E+01 -.131E+01 0.510E+01   0.146E+01 0.992E+00 -.520E+01   0.447E+00 0.418E+00 -.545E+00
   0.122E+01 -.372E+01 0.643E+01   -.148E+01 0.321E+01 -.660E+01   -.630E+00 0.658E+00 -.300E+00
   -.384E+01 -.972E+00 0.320E+01   0.367E+01 0.902E+00 -.361E+01   0.688E+00 0.569E+00 0.681E-01
   0.231E+01 -.659E+01 0.668E+00   -.180E+01 0.619E+01 -.133E+01   -.270E+00 0.106E+01 0.196E+00
   -.382E+02 0.142E+02 0.296E+02   0.394E+02 -.144E+02 -.288E+02   0.182E+00 -.158E+00 0.327E+00
   -.293E+02 -.190E+01 -.172E+03   0.308E+02 0.211E+01 0.173E+03   0.119E+01 -.117E+01 -.193E+01
   0.422E+02 0.209E+02 -.115E+03   -.423E+02 -.230E+02 0.114E+03   0.487E-01 -.386E+00 -.589E-01
   -.131E+02 -.310E+02 -.346E+02   0.126E+02 0.332E+02 0.360E+02   0.390E+00 0.126E+01 0.477E+00
   -.189E+02 -.120E+02 0.294E+03   0.186E+02 0.140E+02 -.294E+03   0.446E+00 0.263E+00 0.172E+01
   -.416E+01 -.983E+01 0.312E+03   0.565E+01 0.888E+01 -.316E+03   -.425E+00 0.368E+00 0.610E+00
   -.244E+02 0.386E+02 0.318E+03   0.266E+02 -.380E+02 -.319E+03   0.391E+00 -.499E+00 0.229E+01
   0.162E+02 -.257E+02 0.349E+03   -.176E+02 0.246E+02 -.352E+03   0.417E+00 0.458E+00 0.792E+00
   0.465E+01 0.111E+02 -.279E+03   -.565E+01 -.106E+02 0.280E+03   0.357E+00 0.485E+00 -.102E+01
   0.213E+02 0.154E+02 -.232E+03   -.219E+02 -.166E+02 0.236E+03   0.121E+00 -.114E+00 -.118E+01
   -.154E+02 -.123E+02 -.270E+03   0.163E+02 0.129E+02 0.271E+03   0.118E-01 -.178E+00 -.193E+01
   -.343E+02 -.342E+02 -.233E+03   0.356E+02 0.346E+02 0.235E+03   0.637E+00 0.864E+00 -.109E+01
   0.206E+02 0.102E+02 -.430E+03   -.259E+02 -.838E+01 0.454E+03   0.530E+01 -.265E+01 -.251E+02
   -.434E+01 -.195E+02 -.429E+03   0.795E+01 0.209E+02 0.454E+03   -.440E+01 -.597E+00 -.237E+02
   -.204E+02 0.516E+01 -.410E+03   0.253E+02 -.711E+01 0.431E+03   -.512E+01 0.263E+01 -.213E+02
   0.188E+01 0.363E+00 -.425E+03   -.662E+01 -.142E-01 0.447E+03   0.555E+01 -.766E+00 -.216E+02
   -.200E+02 -.864E+01 0.327E+03   0.229E+02 0.100E+02 -.346E+03   -.327E+01 -.770E+00 0.202E+02
   0.250E+02 -.225E+02 0.327E+03   -.300E+02 0.243E+02 -.345E+03   0.393E+01 -.167E+01 0.177E+02
   0.230E+02 0.262E+02 0.330E+03   -.274E+02 -.281E+02 -.354E+03   0.439E+01 0.127E+01 0.230E+02
   0.878E+01 0.797E+01 0.338E+03   -.719E+01 -.100E+02 -.361E+03   -.316E+01 0.191E+01 0.227E+02
   0.556E+01 0.103E+02 -.173E+03   -.838E+01 -.105E+02 0.186E+03   0.294E+01 -.468E+00 -.121E+02
   -.927E+01 -.282E+02 -.154E+03   0.990E+01 0.293E+02 0.164E+03   -.115E+00 0.603E+00 -.845E+01
   0.153E+01 0.851E+01 -.171E+03   -.103E+01 -.103E+02 0.183E+03   -.871E+00 0.239E+01 -.111E+02
   -.332E+00 -.186E+02 -.180E+03   0.215E+01 0.213E+02 0.194E+03   -.188E+01 -.224E+01 -.138E+02
   -.937E+01 -.229E+02 0.573E+03   0.101E+02 0.270E+02 -.590E+03   -.510E+00 -.485E+01 0.183E+02
   0.666E+01 0.468E+02 0.592E+03   -.802E+01 -.535E+02 -.618E+03   0.227E+00 0.538E+01 0.252E+02
   0.357E+01 -.303E+02 0.598E+03   -.355E+01 0.331E+02 -.624E+03   -.276E+00 -.215E+01 0.265E+02
   0.296E+02 0.413E+02 0.582E+03   -.341E+02 -.457E+02 -.602E+03   0.336E+01 0.252E+01 0.203E+02
   0.204E+02 -.257E+02 -.535E+03   -.222E+02 0.301E+02 0.558E+03   0.143E+01 -.393E+01 -.227E+02
   0.140E+02 0.380E+02 -.539E+03   -.162E+02 -.447E+02 0.560E+03   0.182E+01 0.685E+01 -.217E+02
   -.110E+02 -.159E+02 -.545E+03   0.118E+02 0.194E+02 0.568E+03   -.170E+01 -.411E+01 -.226E+02
   0.169E+01 0.816E+01 -.546E+03   -.221E+01 -.105E+02 0.572E+03   -.128E+00 0.227E+01 -.267E+02
   0.144E+02 0.916E+01 0.213E+03   -.144E+02 -.100E+02 -.228E+03   -.212E+00 -.136E+00 0.152E+02
   -.649E+01 0.114E+02 0.201E+03   0.512E+01 -.129E+02 -.213E+03   0.174E+01 0.104E+01 0.128E+02
   -.182E+02 -.165E+01 0.226E+03   0.210E+02 0.360E+01 -.241E+03   -.264E+01 -.233E+01 0.137E+02
   0.805E+01 0.355E+01 0.212E+03   -.929E+01 -.666E+01 -.226E+03   0.146E+01 0.309E+01 0.119E+02
 -----------------------------------------------------------------------------------------------
   -.118E+02 -.692E+01 0.698E+01   -.391E-13 -.109E-12 0.284E-12   0.117E+02 0.688E+01 -.700E+01
 
 
 POSITION                                       TOTAL-FORCE (eV/Angst)
 -----------------------------------------------------------------------------------
      0.97360      2.20385      0.05578        -0.065932     -0.031265     -0.000677
      3.73906     -0.47817      5.54735        -0.107490      0.134741     -0.357800
      3.88959      0.68652     10.41678         0.227528      0.104617     -0.503220
     -2.60400      3.20799     10.42323        -0.791385      0.054785     -0.438337
      1.13623      0.68810     10.41322         0.488325      0.393410     -0.364956
     -0.08716      2.93531     10.37374         0.258227      0.562144     -0.372109
      2.00991     -0.29388      2.37973         1.068083     -0.304426      1.183914
      0.58347      2.24843      2.66139         2.403535     -0.810142     -0.645460
      4.87430     -0.22996      2.59626         0.173533     -2.290990     -0.999143
      3.48076      2.06821      2.43429        -0.302885      3.092499      1.713561
      4.15724     -0.93517      8.02445        -0.022391      2.139091      1.072987
      2.66632      1.51829      8.10723         1.055792     -0.642973     -2.269421
      1.24614     -0.88102      7.97044         2.284102      0.207384      0.442093
     -0.06216      1.58674      8.07647        -0.943007     -0.747497     -2.205214
      0.07206      0.06357     12.84037        -0.619664      0.946550     -0.602700
     -1.36053      2.60240     12.72567        -0.313718     -1.179280      1.847868
      2.85973      0.11386     12.84947         0.871292      0.317922     -0.768100
      1.39203      2.54931     12.74517         1.663830      1.013029      0.856502
     -0.83571      3.09751      3.53865         0.060099     -0.817877     -0.929202
      0.71691      0.48252      3.38816        -0.817112      0.806756      1.641444
      2.07293      2.96160      3.59258        -0.310342      0.704856     -0.713528
      3.37570      0.52440      3.45862         0.838289     -0.426866      0.210714
      0.67999      3.74455      1.51828        -0.366281      0.723301      0.705362
      2.10518      1.35139      1.53895        -1.007757      0.122198     -0.882481
     -2.23774      3.80418      1.60198        -0.031189     -0.696155     -0.929456
     -0.59965      1.37581      1.57049        -1.561952     -0.151597     -0.242350
     -0.09673     -0.02957      9.08727         0.069498     -0.631493      0.295256
     -1.53601      2.25231      9.02438         0.508036      1.715032      1.553515
      2.70219     -0.19001      9.01057        -0.448065      0.546180      1.191339
      1.31125      2.32774      9.13751         0.051703      0.532063      0.415853
      4.10433      0.77902      7.03198         0.219777     -0.648146      0.911779
      2.75108      3.25889      7.08727        -1.167090     -1.287277     -0.388335
      1.30735      0.70267      7.04784        -0.247517      0.670211      0.780343
     -0.00823      3.33660      7.04651        -1.225175     -1.982929     -0.308644
     -1.29326      0.90913     13.70677        -0.346714      0.413464      0.544644
      0.09244     -1.50504     13.78807        -0.359124      0.120268     -0.654673
      1.48064      0.96156     13.73397        -0.924154     -0.590372      0.764429
      2.89730     -1.50047     13.76817        -0.650688     -0.078405     -0.623491
      4.29760     -0.63128     11.71467        -0.235496     -1.095820      0.658560
      2.80619      1.77179     11.69067         0.279514     -0.490072      0.553384
      1.43573     -0.66879     11.75647         0.229631     -0.396986     -0.436421
      0.01701      1.69347     11.85497         0.114333     -0.019931     -1.707829
 -----------------------------------------------------------------------------------
    total drift:                               -0.012953     -0.039838     -0.023381


--------------------------------------------------------------------------------------------------------



  FREE ENERGIE OF THE ION-ELECTRON SYSTEM (eV)
  ---------------------------------------------------
  free  energy   TOTEN  =      -232.02027133 eV

  energy  without entropy=     -232.01187993  energy(sigma->0) =     -232.01607563
 


--------------------------------------------------------------------------------------------------------


    POTLOK:  cpu time    0.0634: real time    0.0634


--------------------------------------------------------------------------------------------------------


     LOOP+:  cpu time 2946.0853: real time 2956.4313
    4ORBIT:  cpu time    0.0000: real time    0.0000
 


 total charge     
 
# of ion       s       p       d       tot
------------------------------------------
    1        0.056   0.107   0.000   0.163
    2        0.057   0.111   0.000   0.168
    3        0.102   0.213   0.000   0.315
    4        0.098   0.203   0.000   0.300
    5        0.101   0.212   0.000   0.313
    6        0.094   0.197   0.000   0.291
    7        0.479   0.782   7.243   8.503
    8        0.441   0.685   7.385   8.511
    9        0.454   0.713   7.202   8.368
   10        0.449   0.696   7.189   8.334
   11        0.450   0.705   7.406   8.560
   12        0.424   0.660   7.353   8.437
   13        0.465   0.719   7.253   8.437
   14        0.418   0.642   7.335   8.395
   15        0.476   0.768   7.255   8.499
   16        0.424   0.657   7.358   8.440
   17        0.442   0.672   7.210   8.324
   18        0.426   0.658   7.354   8.438
   19        1.584   3.334   0.000   4.918
   20        1.582   3.393   0.000   4.975
   21        1.581   3.312   0.000   4.893
   22        1.576   3.393   0.000   4.969
   23        1.571   3.389   0.000   4.960
   24        1.571   3.423   0.000   4.994
   25        1.581   3.374   0.000   4.955
   26        1.576   3.396   0.000   4.972
   27        1.555   3.468   0.000   5.024
   28        1.552   3.496   0.000   5.047
   29        1.556   3.468   0.000   5.024
   30        1.551   3.492   0.000   5.043
   31        1.566   3.382   0.000   4.948
   32        1.578   3.403   0.000   4.980
   33        1.581   3.355   0.000   4.937
   34        1.571   3.395   0.000   4.965
   35        1.580   3.367   0.000   4.947
   36        1.572   3.383   0.000   4.955
   37        1.576   3.389   0.000   4.965
   38        1.581   3.354   0.000   4.935
   39        1.564   3.430   0.000   4.993
   40        1.556   3.459   0.000   5.015
   41        1.559   3.485   0.000   5.044
   42        1.557   3.502   0.000   5.059
--------------------------------------------------
tot         43.532  91.239  87.542 222.314
 


 magnetization (x)
 
# of ion       s       p       d       tot
------------------------------------------
    1        0.000  -0.000   0.000   0.000
    2        0.000  -0.000   0.000  -0.000
    3       -0.000  -0.001   0.000  -0.001
    4        0.001  -0.001   0.000  -0.000
    5        0.000   0.000   0.000   0.000
    6        0.000  -0.001   0.000  -0.000
    7        0.012   0.017   1.276   1.305
    8        0.006   0.009  -0.031  -0.016
    9        0.015   0.018   1.416   1.448
   10        0.014   0.020   1.480   1.514
   11        0.001   0.001  -0.139  -0.137
   12        0.003   0.003  -0.023  -0.017
   13        0.011   0.002   1.387   1.400
   14        0.001   0.001  -0.022  -0.020
   15        0.011   0.012   1.274   1.297
   16        0.003   0.005   0.004   0.012
   17        0.014   0.011   1.673   1.697
   18        0.003   0.004  -0.012  -0.005
   19        0.000  -0.167   0.000  -0.167
   20        0.001  -0.125   0.000  -0.124
   21       -0.000  -0.247   0.000  -0.248
   22        0.001  -0.136   0.000  -0.135
   23        0.000  -0.089   0.000  -0.089
   24        0.001  -0.061   0.000  -0.060
   25        0.000  -0.182   0.000  -0.182
   26        0.001  -0.109   0.000  -0.108
   27        0.000  -0.058   0.000  -0.057
   28        0.001  -0.022   0.000  -0.022
   29        0.000  -0.029   0.000  -0.029
   30       -0.000  -0.007   0.000  -0.007
   31       -0.000  -0.002   0.000  -0.002
   32        0.001  -0.045   0.000  -0.044
   33        0.000  -0.122   0.000  -0.122
   34       -0.001  -0.133   0.000  -0.133
   35        0.002  -0.135   0.000  -0.133
   36        0.000  -0.063   0.000  -0.062
   37        0.001  -0.118   0.000  -0.117
   38        0.000  -0.141   0.000  -0.141
   39        0.001  -0.090   0.000  -0.089
   40        0.001  -0.038   0.000  -0.038
   41        0.002  -0.041   0.000  -0.039
   42        0.000  -0.025   0.000  -0.025
--------------------------------------------------
tot          0.109  -2.088   8.282   6.304
 

 total amount of memory used by VASP MPI-rank0   169603. kBytes
=======================================================================

   base      :      30000. kBytes
   nonlr-proj:       4222. kBytes
   fftplans  :       1801. kBytes
   grid      :       4952. kBytes
   one-center:        342. kBytes
   wavefun   :     128286. kBytes
 
  
  
 General timing and accounting informations for this job:
 ========================================================
  
                  Total CPU time used (sec):     2972.392
                            User time (sec):     2736.587
                          System time (sec):      235.805
                         Elapsed time (sec):     2983.221
  
                   Maximum memory used (kb):      819112.
                   Average memory used (kb):           0.
  
                          Minor page faults:       343877
                          Major page faults:           65
                 Voluntary context switches:          594
