 vasp.5.4.4.18Apr17-6-g9f103f2a35 (build Nov 22 2021 14:44:17) complex          
  
 executed on             LinuxIFC date 2022.08.08  10:57:57
 running on   64 total cores
 distrk:  each k-point on   64 cores,    1 groups
 distr:  one band on NCORES_PER_BAND=   4 cores,   16 groups


--------------------------------------------------------------------------------------------------------


 INCAR:
 POTCAR:    PAW_PBE Li 17Jan2003                  
 POTCAR:    PAW_PBE Co 02Aug2007                  
 POTCAR:    PAW_PBE O 08Apr2002                   
 POTCAR:    PAW_PBE Li 17Jan2003                  
   VRHFIN =Li: s1p0                                                             
   LEXCH  = PE                                                                  
   EATOM  =     5.3001 eV,    0.3895 Ry                                         
                                                                                
   TITEL  = PAW_PBE Li 17Jan2003                                                
   LULTRA =        F    use ultrasoft PP ?                                      
   IUNSCR =        1    unscreen: 0-lin 1-nonlin 2-no                           
   RPACOR =    1.500    partial core radius                                     
   POMASS =    7.010; ZVAL   =    1.000    mass and valenz                      
   RCORE  =    2.050    outmost cutoff radius                                   
   RWIGS  =    2.600; RWIGS  =    1.376    wigner-seitz radius (au A)           
   ENMAX  =  140.000; ENMIN  =  100.000 eV                                      
   ICORE  =        2    local potential                                         
   LCOR   =        T    correct aug charges                                     
   LPAW   =        T    paw PP                                                  
   EAUG   =  331.638                                                            
   DEXC   =    0.000                                                            
   RMAX   =    2.098    core radius for proj-oper                               
   RAUG   =    1.300    factor for augmentation sphere                          
   RDEP   =    2.094    radius for radial grids                                 
   RDEPT  =    1.810    core radius for aug-charge                              
                                                                                
   Atomic configuration                                                         
    4 entries                                                                   
     n  l   j            E        occ.                                          
     1  0  0.50       -51.8549   2.0000                                         
     2  0  0.50        -2.8742   1.0000                                         
     2  1  0.50        -1.3606   0.0000                                         
     3  2  1.50        -1.3606   0.0000                                         
   Description                                                                  
     l       E           TYP  RCUT    TYP  RCUT                                 
     0     -2.8742052     23  2.050                                             
     0     27.2116520     23  2.050                                             
     1     -1.3605826     23  2.050                                             
     2     -1.3605826     23  2.050                                             
  local pseudopotential read in
  partial core-charges read in
  partial kinetic energy density read in
  atomic valenz-charges read in
  non local Contribution for L=           0  read in
    real space projection operators read in
  non local Contribution for L=           0  read in
    real space projection operators read in
  non local Contribution for L=           1  read in
    real space projection operators read in
    PAW grid and wavefunctions read in
 
   number of l-projection  operators is LMAX  =           3
   number of lm-projection operators is LMMAX =           5
 
 POTCAR:    PAW_PBE Co 02Aug2007                  
   VRHFIN =Co: d8 s1                                                            
   LEXCH  = PE                                                                  
   EATOM  =   813.3670 eV,   59.7808 Ry                                         
                                                                                
   TITEL  = PAW_PBE Co 02Aug2007                                                
   LULTRA =        F    use ultrasoft PP ?                                      
   IUNSCR =        1    unscreen: 0-lin 1-nonlin 2-no                           
   RPACOR =    2.000    partial core radius                                     
   POMASS =   58.933; ZVAL   =    9.000    mass and valenz                      
   RCORE  =    2.300    outmost cutoff radius                                   
   RWIGS  =    2.460; RWIGS  =    1.302    wigner-seitz radius (au A)           
   ENMAX  =  267.968; ENMIN  =  200.976 eV                                      
   RCLOC  =    1.203    cutoff for local pot                                    
   LCOR   =        T    correct aug charges                                     
   LPAW   =        T    paw PP                                                  
   EAUG   =  477.818                                                            
   DEXC   =    0.000                                                            
   RMAX   =    2.360    core radius for proj-oper                               
   RAUG   =    1.300    factor for augmentation sphere                          
   RDEP   =    2.393    radius for radial grids                                 
   RDEPT  =    1.864    core radius for aug-charge                              
                                                                                
   Atomic configuration                                                         
    9 entries                                                                   
     n  l   j            E        occ.                                          
     1  0  0.50     -7587.6674   2.0000                                         
     2  0  0.50      -893.6084   2.0000                                         
     2  1  1.50      -764.5805   6.0000                                         
     3  0  0.50       -97.5973   2.0000                                         
     3  1  1.50       -60.9648   6.0000                                         
     3  2  2.50        -4.2382   8.0000                                         
     4  0  0.50        -4.3746   1.0000                                         
     4  1  1.50        -4.0817   0.0000                                         
     4  3  2.50        -1.3606   0.0000                                         
   Description                                                                  
     l       E           TYP  RCUT    TYP  RCUT                                 
     2     -4.2382362     23  2.300                                             
     2     -5.5988188     23  2.300                                             
     0     -4.3745797     23  2.300                                             
     0      5.7660125     23  2.300                                             
     1     -2.7211652     23  2.300                                             
     1     16.9860234     23  2.300                                             
  local pseudopotential read in
  partial core-charges read in
  partial kinetic energy density read in
  atomic valenz-charges read in
  non local Contribution for L=           2  read in
    real space projection operators read in
  non local Contribution for L=           2  read in
    real space projection operators read in
  non local Contribution for L=           0  read in
    real space projection operators read in
  non local Contribution for L=           0  read in
    real space projection operators read in
  non local Contribution for L=           1  read in
    real space projection operators read in
  non local Contribution for L=           1  read in
    real space projection operators read in
    PAW grid and wavefunctions read in
 
   number of l-projection  operators is LMAX  =           6
   number of lm-projection operators is LMMAX =          18
 
 POTCAR:    PAW_PBE O 08Apr2002                   
   VRHFIN =O: s2p4                                                              
   LEXCH  = PE                                                                  
   EATOM  =   432.3788 eV,   31.7789 Ry                                         
                                                                                
   TITEL  = PAW_PBE O 08Apr2002                                                 
   LULTRA =        F    use ultrasoft PP ?                                      
   IUNSCR =        1    unscreen: 0-lin 1-nonlin 2-no                           
   RPACOR =    1.200    partial core radius                                     
   POMASS =   16.000; ZVAL   =    6.000    mass and valenz                      
   RCORE  =    1.520    outmost cutoff radius                                   
   RWIGS  =    1.550; RWIGS  =    0.820    wigner-seitz radius (au A)           
   ENMAX  =  400.000; ENMIN  =  300.000 eV                                      
   ICORE  =        2    local potential                                         
   LCOR   =        T    correct aug charges                                     
   LPAW   =        T    paw PP                                                  
   EAUG   =  605.392                                                            
   DEXC   =    0.000                                                            
   RMAX   =    1.553    core radius for proj-oper                               
   RAUG   =    1.300    factor for augmentation sphere                          
   RDEP   =    1.550    radius for radial grids                                 
   RDEPT  =    1.329    core radius for aug-charge                              
                                                                                
   Atomic configuration                                                         
    4 entries                                                                   
     n  l   j            E        occ.                                          
     1  0  0.50      -514.6923   2.0000                                         
     2  0  0.50       -23.9615   2.0000                                         
     2  1  0.50        -9.0305   4.0000                                         
     3  2  1.50        -9.5241   0.0000                                         
   Description                                                                  
     l       E           TYP  RCUT    TYP  RCUT                                 
     0    -23.9615318     23  1.200                                             
     0     -9.5240782     23  1.200                                             
     1     -9.0304911     23  1.520                                             
     1      8.1634956     23  1.520                                             
     2     -9.5240782      7  1.500                                             
  local pseudopotential read in
  partial core-charges read in
  partial kinetic energy density read in
  kinetic energy density of atom read in
  atomic valenz-charges read in
  non local Contribution for L=           0  read in
    real space projection operators read in
  non local Contribution for L=           0  read in
    real space projection operators read in
  non local Contribution for L=           1  read in
    real space projection operators read in
  non local Contribution for L=           1  read in
    real space projection operators read in
    PAW grid and wavefunctions read in
 
   number of l-projection  operators is LMAX  =           4
   number of lm-projection operators is LMMAX =           8
 
 Optimization of the real space projectors (new method)

 maximal supplied QI-value         = 18.33
 optimisation between [QCUT,QGAM] = [ 12.46, 24.93] = [ 43.51,174.03] Ry 
 Optimized for a Real-space Cutoff    1.13 Angstroem

   l    n(q)    QCUT    max X(q) W(low)/X(q) W(high)/X(q)  e(spline) 
   0      8    12.465    33.825    0.12E-03    0.29E-03    0.99E-07
   0      8    12.465     8.944    0.86E-04    0.22E-03    0.72E-07
   1      8    12.465     4.214    0.27E-03    0.11E-03    0.82E-07
 Optimization of the real space projectors (new method)

 maximal supplied QI-value         = 16.25
 optimisation between [QCUT,QGAM] = [ 12.51, 25.03] = [ 43.85,175.40] Ry 
 Optimized for a Real-space Cutoff    1.31 Angstroem

   l    n(q)    QCUT    max X(q) W(low)/X(q) W(high)/X(q)  e(spline) 
   2      9    12.514    65.824    0.30E-03    0.46E-03    0.43E-06
   2      9    12.514    61.429    0.31E-03    0.46E-03    0.44E-06
   0     10    12.514    56.174    0.90E-04    0.33E-03    0.30E-06
   0     10    12.514    31.263    0.81E-04    0.30E-03    0.28E-06
   1      9    12.514    19.828    0.38E-03    0.65E-04    0.24E-06
   1      9    12.514    15.139    0.32E-03    0.60E-04    0.20E-06
 Optimization of the real space projectors (new method)

 maximal supplied QI-value         = 24.76
 optimisation between [QCUT,QGAM] = [ 12.38, 25.00] = [ 42.90,175.06] Ry 
 Optimized for a Real-space Cutoff    1.13 Angstroem

   l    n(q)    QCUT    max X(q) W(low)/X(q) W(high)/X(q)  e(spline) 
   0      8    12.378    20.381    0.16E-03    0.54E-05    0.27E-06
   0      8    12.378    15.268    0.17E-03    0.61E-05    0.29E-06
   1      8    12.378     5.964    0.38E-03    0.23E-03    0.28E-06
   1      8    12.378     5.382    0.33E-03    0.20E-03    0.25E-06
  PAW_PBE Li 17Jan2003                  :
 energy of atom  1       EATOM=   -5.3001
 kinetic energy error for atom=    0.0000 (will be added to EATOM!!)
  PAW_PBE Co 02Aug2007                  :
 energy of atom  2       EATOM= -813.3670
 kinetic energy error for atom=    0.0018 (will be added to EATOM!!)
  PAW_PBE O 08Apr2002                   :
 energy of atom  3       EATOM= -432.3788
 kinetic energy error for atom=    0.0168 (will be added to EATOM!!)
 
 
 POSCAR: Li6 Co12 O24                            
  positions in cartesian coordinates
  No initial velocities read in
 exchange correlation table for  LEXCH =        8
   RHO(1)=    0.500       N(1)  =     2000
   RHO(2)=  100.500       N(2)  =     4000
 


--------------------------------------------------------------------------------------------------------


 ion  position               nearest neighbor table
   1  0.492  0.011  0.994-  23 1.84  36 1.98  38 2.01  25 2.09  37 2.11  24 2.25  16 2.56   9 2.61
                            17 2.65  15 2.66   8 2.74  10 2.85
   2  0.833  0.658  0.341-  34 1.97  33 2.01  32 2.06  19 2.14  22 2.18  20 2.21  14 2.75  12 2.78
                            11 2.80   8 2.98   9 3.05  10 3.09
   3  0.143  0.349  0.667-  40 1.95  29 2.00  39 2.07  28 2.14  27 2.19  42 2.23  12 2.68   4 2.69
                            11 2.74   6 2.75  14 2.81  17 2.82   5 2.85   5 2.86  16 2.92   6 2.96
   4  0.195  0.845  0.679-  41 1.92  28 2.04  40 2.04  39 2.06  30 2.14  27 2.17   6 2.64   5 2.65
                             3 2.69  16 2.77  15 2.81  18 2.82  12 2.87  13 2.91  11 2.93   3 3.04
   5  0.636  0.334  0.673-  30 1.96  42 1.96  41 2.00  27 2.05  40 2.18  29 2.18   4 2.65  15 2.71
                             6 2.77  14 2.78  18 2.83   3 2.85   3 2.86  13 2.90  17 2.92  12 2.93
   6  0.665  0.865  0.690-  41 1.78  39 1.99  42 2.04  29 2.18  30 2.24  28 2.27  17 2.60   4 2.64
                            16 2.66  18 2.73   3 2.75   5 2.77   5 2.94   3 2.96  11 2.97  14 3.05
   7  0.156  0.312  0.160-  24 1.91  20 1.93  25 1.95  19 1.99  23 2.00  22 2.03  10 2.81   9 2.81
                             8 2.84   8 2.86  10 2.87   9 2.89
   8  0.145  0.807  0.152-  19 1.81  20 1.82  23 1.88  26 1.89  24 1.92  21 1.97  10 2.73   1 2.74
                             9 2.81   7 2.84   7 2.86   9 2.87  10 2.98   2 2.98
   9  0.659  0.304  0.155-  25 1.79  21 1.82  20 1.87  23 1.89  22 1.94  26 2.00   1 2.61   8 2.81
                             7 2.81  10 2.84  10 2.86   8 2.87   7 2.89   2 3.05
  10  0.669  0.810  0.148-  25 1.79  26 1.80  24 1.86  22 1.90  21 1.95  19 1.96   8 2.73   7 2.81
                             9 2.84   1 2.85   9 2.86   7 2.87   8 2.98   2 3.09
  11  0.004  0.001  0.508-  34 1.76  27 1.83  32 1.90  29 1.91  31 1.96  30 2.05   3 2.74   2 2.80
                            12 2.82  13 2.83  14 2.83  14 2.84  12 2.88  13 2.89   4 2.93   6 2.97
  12  0.010  0.509  0.504-  28 1.89  31 1.92  32 1.93  29 1.94  30 1.99  33 2.01   3 2.68   2 2.78
                            13 2.80  14 2.82  11 2.82   4 2.87  11 2.88  13 2.88  14 2.89   5 2.93
  13  0.501  0.004  0.494-  32 1.86  33 1.86  28 1.88  27 1.95  29 1.97  34 1.98  12 2.80  11 2.83
                            14 2.84  14 2.85  12 2.88  11 2.89   5 2.90   4 2.91   6 3.09
  14  0.501  0.504  0.505-  31 1.86  33 1.88  27 1.91  28 1.92  34 1.95  30 2.04   2 2.75   5 2.78
                             3 2.81  12 2.82  11 2.83  11 2.84  13 2.84  13 2.85  12 2.89   6 3.05
  15  0.344  0.196  0.843-  37 1.85  42 1.89  36 1.93  35 1.94  39 1.98  41 2.01   1 2.66   5 2.71
                            18 2.76  16 2.78   4 2.81  17 2.83  17 2.87  16 2.91  18 2.92   3 3.01
  16  0.337  0.681  0.846-  36 1.75  35 1.82  38 1.88  42 1.96  41 2.02  40 2.02   1 2.56   6 2.66
                             4 2.77  15 2.78  17 2.82  18 2.83  17 2.85  18 2.88  15 2.91   3 2.92
  17  0.836  0.187  0.843-  37 1.88  35 1.89  40 1.92  41 1.97  39 2.01  38 2.03   6 2.60   1 2.65
                             3 2.82  18 2.82  16 2.82  15 2.83  16 2.85  15 2.87  18 2.88   5 2.92
  18  0.832  0.680  0.841-  37 1.81  38 1.86  36 1.91  42 1.94  40 1.97  39 2.03   6 2.73  15 2.76
                            17 2.82   4 2.82   5 2.83  16 2.83  17 2.88  16 2.88  15 2.92
  19  0.994  0.960  0.229-   8 1.81  10 1.96   7 1.99   2 2.14
  20  0.986  0.496  0.223-   8 1.82   9 1.87   7 1.93   2 2.21
  21  0.497  0.985  0.221-   9 1.82  10 1.95   8 1.97
  22  0.517  0.501  0.230-  10 1.90   9 1.94   7 2.03   2 2.18
  23  0.331  0.135  0.084-   1 1.84   8 1.88   9 1.89   7 2.00
  24  0.331  0.642  0.088-  10 1.86   7 1.91   8 1.92   1 2.25
  25  0.811  0.135  0.091-   9 1.79  10 1.79   7 1.95   1 2.09
  26  0.822  0.647  0.079-  10 1.80   8 1.89   9 2.00
  27  0.327  0.167  0.573-  11 1.83  14 1.91  13 1.95   5 2.05   4 2.17   3 2.19
  28  0.341  0.691  0.572-  13 1.88  12 1.89  14 1.92   4 2.04   3 2.14   6 2.27
  29  0.830  0.171  0.575-  11 1.91  12 1.94  13 1.97   3 2.00   6 2.18   5 2.18
  30  0.834  0.660  0.593-   5 1.96  12 1.99  14 2.04  11 2.05   4 2.14   6 2.24
  31  0.180  0.338  0.434-  14 1.86  12 1.92  11 1.96
  32  0.169  0.841  0.430-  13 1.86  11 1.90  12 1.93   2 2.06
  33  0.659  0.336  0.430-  13 1.86  14 1.88  12 2.01   2 2.01
  34  0.710  0.844  0.435-  11 1.76  14 1.95   2 1.97  13 1.98
  35  0.164  0.363  0.913-  16 1.82  17 1.89  15 1.94
  36  0.178  0.844  0.904-  16 1.75  18 1.91  15 1.93   1 1.98
  37  0.673  0.365  0.908-  18 1.81  15 1.85  17 1.88   1 2.11
  38  0.663  0.831  0.916-  18 1.86  16 1.88   1 2.01  17 2.03
  39  0.017  0.024  0.760-  15 1.98   6 1.99  17 2.01  18 2.03   4 2.06   3 2.07
  40  0.999  0.505  0.763-  17 1.92   3 1.95  18 1.97  16 2.02   4 2.04   5 2.18
  41  0.508  0.015  0.762-   6 1.78   4 1.92  17 1.97   5 2.00  15 2.01  16 2.02
  42  0.501  0.511  0.765-  15 1.89  18 1.94   5 1.96  16 1.96   6 2.04   3 2.23
 

IMPORTANT INFORMATION: All symmetrisations will be switched off!
NOSYMM: (Re-)initialisation of all symmetry stuff for point group C_1.

 
 

Automatic generation of k-mesh.
 generate k-points for:    6    6    2
Space group operators:
 irot       det(A)        alpha          n_x          n_y          n_z        tau_x        tau_y        tau_z
    1     1.000000     0.000000     1.000000     0.000000     0.000000     0.000000     0.000000     0.000000
 
 Subroutine IBZKPT returns following result:
 ===========================================
 
 Found     36 irreducible k-points:
 
 Following reciprocal coordinates:
            Coordinates               Weight
  0.083333  0.083333  0.250000      2.000000
  0.250000  0.083333  0.250000      2.000000
  0.416667  0.083333  0.250000      2.000000
 -0.416667  0.083333  0.250000      2.000000
 -0.250000  0.083333  0.250000      2.000000
 -0.083333  0.083333  0.250000      2.000000
  0.083333  0.250000  0.250000      2.000000
  0.250000  0.250000  0.250000      2.000000
  0.416667  0.250000  0.250000      2.000000
 -0.416667  0.250000  0.250000      2.000000
 -0.250000  0.250000  0.250000      2.000000
 -0.083333  0.250000  0.250000      2.000000
  0.083333  0.416667  0.250000      2.000000
  0.250000  0.416667  0.250000      2.000000
  0.416667  0.416667  0.250000      2.000000
 -0.416667  0.416667  0.250000      2.000000
 -0.250000  0.416667  0.250000      2.000000
 -0.083333  0.416667  0.250000      2.000000
  0.083333 -0.416667  0.250000      2.000000
  0.250000 -0.416667  0.250000      2.000000
  0.416667 -0.416667  0.250000      2.000000
 -0.416667 -0.416667  0.250000      2.000000
 -0.250000 -0.416667  0.250000      2.000000
 -0.083333 -0.416667  0.250000      2.000000
  0.083333 -0.250000  0.250000      2.000000
  0.250000 -0.250000  0.250000      2.000000
  0.416667 -0.250000  0.250000      2.000000
 -0.416667 -0.250000  0.250000      2.000000
 -0.250000 -0.250000  0.250000      2.000000
 -0.083333 -0.250000  0.250000      2.000000
  0.083333 -0.083333  0.250000      2.000000
  0.250000 -0.083333  0.250000      2.000000
  0.416667 -0.083333  0.250000      2.000000
 -0.416667 -0.083333  0.250000      2.000000
 -0.250000 -0.083333  0.250000      2.000000
 -0.083333 -0.083333  0.250000      2.000000
 
 Following cartesian coordinates:
            Coordinates               Weight
  0.014611  0.025484  0.018464      2.000000
  0.043832  0.042547  0.018058      2.000000
  0.073054  0.059610  0.017651      2.000000
 -0.073054 -0.025707  0.019684      2.000000
 -0.043832 -0.008643  0.019278      2.000000
 -0.014611  0.008420  0.018871      2.000000
  0.014611  0.059387  0.019015      2.000000
  0.043832  0.076451  0.018609      2.000000
  0.073054  0.093514  0.018202      2.000000
 -0.073054  0.008197  0.020235      2.000000
 -0.043832  0.025261  0.019829      2.000000
 -0.014611  0.042324  0.019422      2.000000
  0.014611  0.093291  0.019566      2.000000
  0.043832  0.110355  0.019160      2.000000
  0.073054  0.127418  0.018753      2.000000
 -0.073054  0.042101  0.020786      2.000000
 -0.043832  0.059164  0.020380      2.000000
 -0.014611  0.076228  0.019973      2.000000
  0.014611 -0.076228  0.016811      2.000000
  0.043832 -0.059164  0.016405      2.000000
  0.073054 -0.042101  0.015998      2.000000
 -0.073054 -0.127418  0.018031      2.000000
 -0.043832 -0.110355  0.017625      2.000000
 -0.014611 -0.093291  0.017218      2.000000
  0.014611 -0.042324  0.017362      2.000000
  0.043832 -0.025261  0.016956      2.000000
  0.073054 -0.008197  0.016549      2.000000
 -0.073054 -0.093514  0.018582      2.000000
 -0.043832 -0.076451  0.018176      2.000000
 -0.014611 -0.059387  0.017769      2.000000
  0.014611 -0.008420  0.017913      2.000000
  0.043832  0.008643  0.017507      2.000000
  0.073054  0.025707  0.017100      2.000000
 -0.073054 -0.059610  0.019133      2.000000
 -0.043832 -0.042547  0.018727      2.000000
 -0.014611 -0.025484  0.018320      2.000000
 


--------------------------------------------------------------------------------------------------------




 Dimension of arrays:
   k-points           NKPTS =     36   k-points in BZ     NKDIM =     36   number of bands    NBANDS=    160
   number of dos      NEDOS =    301   number of ions     NIONS =     42
   non local maximal  LDIM  =      6   non local SUM 2l+1 LMDIM =     18
   total plane-waves  NPLWV = 108864
   max r-space proj   IRMAX =   2719   max aug-charges    IRDMAX=  11464
   dimension x,y,z NGX =    36 NGY =   36 NGZ =   84
   dimension x,y,z NGXF=    72 NGYF=   72 NGZF=  168
   support grid    NGXF=    72 NGYF=   72 NGZF=  168
   ions per type =               6  12  24
   NGX,Y,Z   is equivalent  to a cutoff of  10.49, 10.51, 10.27 a.u.
   NGXF,Y,Z  is equivalent  to a cutoff of  20.99, 21.03, 20.54 a.u.

 SYSTEM =  LiCoO2                                  
 POSCAR =  Li6 Co12 O24                            

 Startparameter for this run:
   NWRITE =      2    write-flag & timer
   PREC   = normal    normal or accurate (medium, high low for compatibility)
   ISTART =      0    job   : 0-new  1-cont  2-samecut
   ICHARG =      2    charge: 1-file 2-atom 10-const
   ISPIN  =      2    spin polarized calculation?
   LNONCOLLINEAR =      F non collinear calculations
   LSORBIT =      F    spin-orbit coupling
   INIWAV =      1    electr: 0-lowe 1-rand  2-diag
   LASPH  =      F    aspherical Exc in radial PAW
   METAGGA=      F    non-selfconsistent MetaGGA calc.

 Electronic Relaxation 1
   ENCUT  =  600.0 eV  44.10 Ry    6.64 a.u.  11.39 11.37 27.16*2*pi/ulx,y,z
   ENINI  =  600.0     initial cutoff
   ENAUG  =  605.4 eV  augmentation charge cutoff
   NELM   =    600;   NELMIN=  2; NELMDL= -5     # of ELM steps 
   EDIFF  = 0.1E-05   stopping-criterion for ELM
   LREAL  =      T    real-space projection
   NLSPLINE    = F    spline interpolate recip. space projectors
   LCOMPAT=      F    compatible to vasp.4.4
   GGA_COMPAT  = T    GGA compatible to vasp.4.4-vasp.4.6
   LMAXPAW     = -100 max onsite density
   LMAXMIX     =    2 max onsite mixed and CHGCAR
   VOSKOWN=      0    Vosko Wilk Nusair interpolation
   ROPT   =   -0.00050  -0.00050  -0.00050
 Ionic relaxation
   EDIFFG = 0.1E-04   stopping-criterion for IOM
   NSW    =      0    number of steps for IOM
   NBLOCK =      1;   KBLOCK =      1    inner block; outer block 
   IBRION =     -1    ionic relax: 0-MD 1-quasi-New 2-CG
   NFREE  =      0    steps in history (QN), initial steepest desc. (CG)
   ISIF   =      2    stress and relaxation
   IWAVPR =     10    prediction:  0-non 1-charg 2-wave 3-comb
   ISYM   =      0    0-nonsym 1-usesym 2-fastsym
   LCORR  =      T    Harris-Foulkes like correction to forces

   POTIM  = 0.5000    time-step for ionic-motion
   TEIN   =    0.0    initial temperature
   TEBEG  =    0.0;   TEEND  =   0.0 temperature during run
   SMASS  =  -3.00    Nose mass-parameter (am)
   estimated Nose-frequenzy (Omega)   =  0.10E-29 period in steps =****** mass=  -0.743E-27a.u.
   SCALEE = 1.0000    scale energy and forces
   NPACO  =    256;   APACO  = 16.0  distance and # of slots for P.C.
   PSTRESS=    0.0 pullay stress

  Mass of Ions in am
   POMASS =   7.01 58.93 16.00
  Ionic Valenz
   ZVAL   =   1.00  9.00  6.00
  Atomic Wigner-Seitz radii
   RWIGS  =  -1.00 -1.00 -1.00
  virtual crystal weights 
   VCA    =   1.00  1.00  1.00
   NELECT =     258.0000    total number of electrons
   NUPDOWN=       6.0000    fix difference up-down

 DOS related values:
   EMIN   =  10.00;   EMAX   =-10.00  energy-range for DOS
   EFERMI =   0.00
   ISMEAR =     0;   SIGMA  =   0.05  broadening in eV -4-tet -1-fermi 0-gaus

 Electronic relaxation 2 (details)
   IALGO  =     58    algorithm
   LDIAG  =      T    sub-space diagonalisation (order eigenvalues)
   LSUBROT=      F    optimize rotation matrix (better conditioning)
   TURBO    =      0    0=normal 1=particle mesh
   IRESTART =      0    0=no restart 2=restart with 2 vectors
   NREBOOT  =      0    no. of reboots
   NMIN     =      0    reboot dimension
   EREF     =   0.00    reference energy to select bands
   IMIX   =      4    mixing-type and parameters
     AMIX     =   0.40;   BMIX     =  1.00
     AMIX_MAG =   1.60;   BMIX_MAG =  1.00
     AMIN     =   0.10
     WC   =   100.;   INIMIX=   1;  MIXPRE=   1;  MAXMIX= -45

 Intra band minimization:
   WEIMIN = 0.0000     energy-eigenvalue tresh-hold
   EBREAK =  0.16E-08  absolut break condition
   DEPER  =   0.30     relativ break condition  

   TIME   =   0.40     timestep for ELM

  volume/ion in A,a.u.               =       9.07        61.23
  Fermi-wavevector in a.u.,A,eV,Ry     =   1.437465  2.716415 28.113800  2.066306
  Thomas-Fermi vector in A             =   2.556540
 
 Write flags
   LWAVE        =      F    write WAVECAR
   LDOWNSAMPLE  =      F    k-point downsampling of WAVECAR
   LCHARG       =      F    write CHGCAR
   LVTOT        =      F    write LOCPOT, total local potential
   LVHAR        =      F    write LOCPOT, Hartree potential only
   LELF         =      F    write electronic localiz. function (ELF)
   LORBIT       =     11    0 simple, 1 ext, 2 COOP (PROOUT), +10 PAW based schemes


 Dipole corrections
   LMONO  =      F    monopole corrections only (constant potential shift)
   LDIPOL =      F    correct potential (dipole corrections)
   IDIPOL =      0    1-x, 2-y, 3-z, 4-all directions 
   EPSILON=  1.0000000 bulk dielectric constant

 LDA+U is selected, type is set to LDAUTYPE =  2
   angular momentum for each species LDAUL =    -1    2   -1
   U (eV)           for each species LDAUU =   0.0  5.1  0.0
   J (eV)           for each species LDAUJ =   0.0  0.0  0.0
 Exchange correlation treatment:
   GGA     =    --    GGA type
   LEXCH   =     8    internal setting for exchange type
   VOSKOWN=      0    Vosko Wilk Nusair interpolation
   LHFCALC =     F    Hartree Fock is set to
   LHFONE  =     F    Hartree Fock one center treatment
   AEXX    =    0.0000 exact exchange contribution

 Linear response parameters
   LEPSILON=     F    determine dielectric tensor
   LRPA    =     F    only Hartree local field effects (RPA)
   LNABLA  =     F    use nabla operator in PAW spheres
   LVEL    =     F    velocity operator in full k-point grid
   LINTERFAST=   F  fast interpolation
   KINTER  =     0    interpolate to denser k-point grid
   CSHIFT  =0.1000    complex shift for real part using Kramers Kronig
   OMEGAMAX=  -1.0    maximum frequency
   DEG_THRESHOLD= 0.2000000E-02 threshold for treating states as degnerate
   RTIME   =   -0.100 relaxation time in fs
  (WPLASMAI=    0.000 imaginary part of plasma frequency in eV, 0.658/RTIME)
   DFIELD  = 0.0000000 0.0000000 0.0000000 field for delta impulse in time
 
 Orbital magnetization related:
   ORBITALMAG=     F  switch on orbital magnetization
   LCHIMAG   =     F  perturbation theory with respect to B field
   DQ        =  0.001000  dq finite difference perturbation B field
   LLRAUG    =     F  two centre corrections for induced B field



--------------------------------------------------------------------------------------------------------


 Static calculation
 charge density and potential will be updated during run
 spin polarized calculation
 Conjugate gradient for all bands (Freysoldt, et al. PRB 79, 241103 (2009))
 preconditioned conjugated gradient                                        
 perform sub-space diagonalisation
    before iterative eigenvector-optimisation
 modified Broyden-mixing scheme, WC =      100.0
 initial mixing is a Kerker type mixing with AMIX =  0.4000 and BMIX =      1.0000
 Hartree-type preconditioning will be used
 using additional bands           31
 real space projection scheme for non local part
 use partial core corrections
 no Harris-corrections to forces 
 use gradient corrections 
 use of overlap-Matrix (Vanderbilt PP)
 Gauss-broadening in eV      SIGMA  =   0.05


--------------------------------------------------------------------------------------------------------


  energy-cutoff  :      600.00
  volume of cell :      381.11
      direct lattice vectors                 reciprocal lattice vectors
     5.703577042  0.000000000  0.000000000     0.175328569  0.102380333 -0.002439847
    -2.870546818  4.915874481  0.000000000     0.000000000  0.203422606  0.003306061
     0.318150342 -0.220910192 13.592650414     0.000000000  0.000000000  0.073569169

  length of vectors
     5.703577042  5.692614597 13.598167752     0.203046282  0.203449470  0.073569169


 
 k-points in units of 2pi/SCALE and weight: read from INCAR                         
   0.01461071  0.02548358  0.01846448       0.028
   0.04383214  0.04254697  0.01805784       0.028
   0.07305357  0.05961036  0.01765119       0.028
  -0.07305357 -0.02570659  0.01968440       0.028
  -0.04383214 -0.00864320  0.01927776       0.028
  -0.01461071  0.00842019  0.01887112       0.028
   0.01461071  0.05938735  0.01901549       0.028
   0.04383214  0.07645073  0.01860885       0.028
   0.07305357  0.09351412  0.01820220       0.028
  -0.07305357  0.00819718  0.02023541       0.028
  -0.04383214  0.02526057  0.01982877       0.028
  -0.01461071  0.04232396  0.01942213       0.028
   0.01461071  0.09329111  0.01956650       0.028
   0.04383214  0.11035450  0.01915986       0.028
   0.07305357  0.12741789  0.01875321       0.028
  -0.07305357  0.04210095  0.02078642       0.028
  -0.04383214  0.05916434  0.02037978       0.028
  -0.01461071  0.07622772  0.01997314       0.028
   0.01461071 -0.07622772  0.01681145       0.028
   0.04383214 -0.05916434  0.01640481       0.028
   0.07305357 -0.04210095  0.01599816       0.028
  -0.07305357 -0.12741789  0.01803137       0.028
  -0.04383214 -0.11035450  0.01762473       0.028
  -0.01461071 -0.09329111  0.01721809       0.028
   0.01461071 -0.04232396  0.01736246       0.028
   0.04383214 -0.02526057  0.01695582       0.028
   0.07305357 -0.00819718  0.01654917       0.028
  -0.07305357 -0.09351412  0.01858238       0.028
  -0.04383214 -0.07645073  0.01817574       0.028
  -0.01461071 -0.05938735  0.01776910       0.028
   0.01461071 -0.00842019  0.01791347       0.028
   0.04383214  0.00864320  0.01750683       0.028
   0.07305357  0.02570659  0.01710018       0.028
  -0.07305357 -0.05961036  0.01913339       0.028
  -0.04383214 -0.04254697  0.01872675       0.028
  -0.01461071 -0.02548358  0.01832011       0.028
 
 k-points in reciprocal lattice and weights: read from INCAR                         
   0.08333333  0.08333333  0.25000000       0.028
   0.25000000  0.08333333  0.25000000       0.028
   0.41666667  0.08333333  0.25000000       0.028
  -0.41666667  0.08333333  0.25000000       0.028
  -0.25000000  0.08333333  0.25000000       0.028
  -0.08333333  0.08333333  0.25000000       0.028
   0.08333333  0.25000000  0.25000000       0.028
   0.25000000  0.25000000  0.25000000       0.028
   0.41666667  0.25000000  0.25000000       0.028
  -0.41666667  0.25000000  0.25000000       0.028
  -0.25000000  0.25000000  0.25000000       0.028
  -0.08333333  0.25000000  0.25000000       0.028
   0.08333333  0.41666667  0.25000000       0.028
   0.25000000  0.41666667  0.25000000       0.028
   0.41666667  0.41666667  0.25000000       0.028
  -0.41666667  0.41666667  0.25000000       0.028
  -0.25000000  0.41666667  0.25000000       0.028
  -0.08333333  0.41666667  0.25000000       0.028
   0.08333333 -0.41666667  0.25000000       0.028
   0.25000000 -0.41666667  0.25000000       0.028
   0.41666667 -0.41666667  0.25000000       0.028
  -0.41666667 -0.41666667  0.25000000       0.028
  -0.25000000 -0.41666667  0.25000000       0.028
  -0.08333333 -0.41666667  0.25000000       0.028
   0.08333333 -0.25000000  0.25000000       0.028
   0.25000000 -0.25000000  0.25000000       0.028
   0.41666667 -0.25000000  0.25000000       0.028
  -0.41666667 -0.25000000  0.25000000       0.028
  -0.25000000 -0.25000000  0.25000000       0.028
  -0.08333333 -0.25000000  0.25000000       0.028
   0.08333333 -0.08333333  0.25000000       0.028
   0.25000000 -0.08333333  0.25000000       0.028
   0.41666667 -0.08333333  0.25000000       0.028
  -0.41666667 -0.08333333  0.25000000       0.028
  -0.25000000 -0.08333333  0.25000000       0.028
  -0.08333333 -0.08333333  0.25000000       0.028
 
 position of ions in fractional coordinates (direct lattice) 
   0.49186011  0.01134310  0.99380324
   0.83330435  0.65812607  0.34102178
   0.14345481  0.34906678  0.66709652
   0.19485762  0.84494372  0.67881460
   0.63589889  0.33374018  0.67301004
   0.66528150  0.86461804  0.68961828
   0.15630143  0.31159834  0.15983122
   0.14538240  0.80720315  0.15204982
   0.65927656  0.30383407  0.15513163
   0.66877035  0.80986428  0.14807487
   0.00370419  0.00074470  0.50781194
   0.00975501  0.50890397  0.50417760
   0.50060016  0.00438303  0.49448341
   0.50111148  0.50439640  0.50499866
   0.34389676  0.19592339  0.84348674
   0.33667089  0.68099723  0.84634854
   0.83646354  0.18729103  0.84300853
   0.83229037  0.67984650  0.84079410
   0.99389083  0.95983235  0.22907674
   0.98586765  0.49643288  0.22254232
   0.49659831  0.98478836  0.22056994
   0.51688813  0.50092790  0.23022368
   0.33120060  0.13515501  0.08376733
   0.33122168  0.64156055  0.08782393
   0.81105113  0.13473147  0.09149871
   0.82207403  0.64683053  0.07884555
   0.32702923  0.16688230  0.57295891
   0.34141909  0.69142692  0.57234974
   0.82995522  0.17059514  0.57500414
   0.83378652  0.66003689  0.59299399
   0.18033798  0.33842613  0.43352618
   0.16931153  0.84130465  0.43012067
   0.65935735  0.33579759  0.43025973
   0.71005766  0.84432998  0.43510940
   0.16419513  0.36346002  0.91346570
   0.17756781  0.84390141  0.90377668
   0.67290963  0.36492816  0.90806576
   0.66303036  0.83088578  0.91589349
   0.01659625  0.02412441  0.75986799
   0.99882216  0.50493894  0.76300938
   0.50827813  0.01515799  0.76155270
   0.50134927  0.51079856  0.76506931
 
 position of ions in cartesian coordinates  (Angst):
   3.08897996 -0.16378000 13.50841999
   2.97213006  3.15992999  4.63538980
   0.02843000  1.56860006  9.06760979
  -1.09809995  4.00368023  9.22688961
   2.88299990  1.49195004  9.14799023
   1.53196001  4.09801006  9.37374020
   0.04787000  1.49646997  2.17252994
  -1.43954003  3.93452001  2.06676006
   2.93741989  1.45933998  2.10864997
   1.53673995  3.94847989  2.01272988
   0.18054999 -0.10852000  6.90251017
  -1.24478996  2.39033008  6.85310984
   2.99994993 -0.08769000  6.72134018
   1.57089996  2.36799002  6.86427021
   1.66738999  0.77679998 11.46522045
   0.23466000  3.16072989 11.50411987
   4.50141001  0.73447001 11.45872021
   3.06299996  3.15630007 11.42862034
   2.98637009  4.66780996  3.11375999
   4.26874018  2.39123988  3.02494001
   0.07568000  4.79236984  2.99813008
   1.58342004  2.41163993  3.12934995
   1.52770996  0.64590001  1.13862002
   0.07546000  3.13442993  1.19376004
   4.26824999  0.64210999  1.24371004
   2.85709000  3.16231990  1.07172000
   1.56848001  0.69379997  7.78803015
   0.14463000  3.27253008  7.77974987
   4.42694998  0.71160001  7.81583023
   3.04956007  3.11366010  8.06035995
   0.19503000  1.56789005  5.89276981
  -1.31247997  4.04073000  5.84647989
   2.93366003  1.55569005  5.84837008
   1.76461005  4.05450010  5.91428995
   0.18379000  1.58492994 12.41641998
  -1.12214994  3.94885993 12.28472042
   3.07934999  1.59334004 12.34302044
   1.68794000  3.88220000 12.44941998
   0.26716000 -0.04927000 10.32861996
   4.49015999  2.31365991 10.37131977
   3.09777999 -0.09372000 10.35151958
   1.63662004  2.34201002 10.39931965
 


--------------------------------------------------------------------------------------------------------


 k-point  1 :   0.0833 0.0833 0.2500  plane waves:   12739
 k-point  2 :   0.2500 0.0833 0.2500  plane waves:   12718
 k-point  3 :   0.4167 0.0833 0.2500  plane waves:   12710
 k-point  4 :  -0.4167 0.0833 0.2500  plane waves:   12706
 k-point  5 :  -0.2500 0.0833 0.2500  plane waves:   12735
 k-point  6 :  -0.0833 0.0833 0.2500  plane waves:   12757
 k-point  7 :   0.0833 0.2500 0.2500  plane waves:   12714
 k-point  8 :   0.2500 0.2500 0.2500  plane waves:   12718
 k-point  9 :   0.4167 0.2500 0.2500  plane waves:   12711
 k-point 10 :  -0.4167 0.2500 0.2500  plane waves:   12696
 k-point 11 :  -0.2500 0.2500 0.2500  plane waves:   12730
 k-point 12 :  -0.0833 0.2500 0.2500  plane waves:   12739
 k-point 13 :   0.0833 0.4167 0.2500  plane waves:   12717
 k-point 14 :   0.2500 0.4167 0.2500  plane waves:   12712
 k-point 15 :   0.4167 0.4167 0.2500  plane waves:   12698
 k-point 16 :  -0.4167 0.4167 0.2500  plane waves:   12718
 k-point 17 :  -0.2500 0.4167 0.2500  plane waves:   12701
 k-point 18 :  -0.0833 0.4167 0.2500  plane waves:   12709
 k-point 19 :   0.0833-0.4167 0.2500  plane waves:   12722
 k-point 20 :   0.2500-0.4167 0.2500  plane waves:   12700
 k-point 21 :   0.4167-0.4167 0.2500  plane waves:   12692
 k-point 22 :  -0.4167-0.4167 0.2500  plane waves:   12699
 k-point 23 :  -0.2500-0.4167 0.2500  plane waves:   12713
 k-point 24 :  -0.0833-0.4167 0.2500  plane waves:   12717
 k-point 25 :   0.0833-0.2500 0.2500  plane waves:   12736
 k-point 26 :   0.2500-0.2500 0.2500  plane waves:   12732
 k-point 27 :   0.4167-0.2500 0.2500  plane waves:   12709
 k-point 28 :  -0.4167-0.2500 0.2500  plane waves:   12711
 k-point 29 :  -0.2500-0.2500 0.2500  plane waves:   12721
 k-point 30 :  -0.0833-0.2500 0.2500  plane waves:   12712
 k-point 31 :   0.0833-0.0833 0.2500  plane waves:   12737
 k-point 32 :   0.2500-0.0833 0.2500  plane waves:   12743
 k-point 33 :   0.4167-0.0833 0.2500  plane waves:   12719
 k-point 34 :  -0.4167-0.0833 0.2500  plane waves:   12712
 k-point 35 :  -0.2500-0.0833 0.2500  plane waves:   12715
 k-point 36 :  -0.0833-0.0833 0.2500  plane waves:   12746

 maximum and minimum number of plane-waves per node :      3207     3131

 maximum number of plane-waves:     12757
 maximum index in each direction: 
   IXMAX=   11   IYMAX=   11   IZMAX=   26
   IXMIN=  -11   IYMIN=  -11   IZMIN=  -27


 real space projection operators:
  total allocation   :       7254.09 KBytes
  max/ min on nodes  :       1822.51       1807.43


 parallel 3D FFT for wavefunctions:
    minimum data exchange during FFTs selected (reduces bandwidth)
 parallel 3D FFT for charge:
    minimum data exchange during FFTs selected (reduces bandwidth)


 total amount of memory used by VASP MPI-rank0   155422. kBytes
=======================================================================

   base      :      30000. kBytes
   nonlr-proj:       4152. kBytes
   fftplans  :       1577. kBytes
   grid      :       4337. kBytes
   one-center:        342. kBytes
   wavefun   :     115014. kBytes
 
     INWAV:  cpu time    0.0000: real time    0.0002
 Broyden mixing: mesh for mixing (old mesh)
   NGX = 23   NGY = 23   NGZ = 55
  (NGX  = 72   NGY  = 72   NGZ  =168)
  gives a total of  29095 points

 initial charge density was supplied:
 charge density of overlapping atoms calculated
 number of electron     258.0000000 magnetization       6.0000000
 keeping initial charge density in first step


--------------------------------------------------------------------------------------------------------


 Maximum index for non-local projection operator          665
 Maximum index for augmentation-charges          915 (set IRDMAX)


--------------------------------------------------------------------------------------------------------


 First call to EWALD:  gamma=   0.244
 Maximum number of real-space cells 4x 4x 2
 Maximum number of reciprocal cells 2x 2x 5

    FEWALD:  cpu time    0.0054: real time    0.0054


--------------------------------------- Iteration      1(   1)  ---------------------------------------


    POTLOK:  cpu time    0.0727: real time    0.0849
    SETDIJ:  cpu time    0.0219: real time    0.0229
    TRIAL :  cpu time   25.0948: real time   25.5427
    CORREC:  cpu time    0.0040: real time    0.0041
    --------------------------------------------
      LOOP:  cpu time   25.4225: real time   25.8848

 eigenvalue-minimisations  : 23040
 total energy-change (2. order) : 0.3488331E+04  (-0.1400102E+05)
 number of electron     258.0000000 magnetization       6.0000000
 augmentation part      258.0000000 magnetization       6.0000000

 Free energy of the ion-electron system (eV)
  ---------------------------------------------------
  alpha Z        PSCENC =       769.24106914
  Ewald energy   TEWEN  =    -14560.31608973
  -Hartree energ DENC   =     -6565.63485281
  -exchange      EXHF   =         0.00000000
  -V(xc)+E(xc)   XCENC  =       842.90321285
  PAW double counting   =     17015.18481625   -17491.61297812
  entropy T*S    EENTRO =        -0.00725560
  eigenvalues    EBANDS =      3309.70167215
  atomic energy  EATOM  =     20168.87094289
  ---------------------------------------------------
  free energy    TOTEN  =      3488.33053702 eV

  energy without entropy =     3488.33779261  energy(sigma->0) =     3488.33416481


--------------------------------------------------------------------------------------------------------




--------------------------------------- Iteration      1(   2)  ---------------------------------------


    TRIAL :  cpu time   25.9113: real time   26.2100
    CORREC:  cpu time    0.0045: real time    0.0045
    --------------------------------------------
      LOOP:  cpu time   25.9294: real time   26.2282

 eigenvalue-minimisations  : 24848
 total energy-change (2. order) :-0.3088225E+04  (-0.2848001E+04)
 number of electron     258.0000000 magnetization       6.0000000
 augmentation part      258.0000000 magnetization       6.0000000

 Free energy of the ion-electron system (eV)
  ---------------------------------------------------
  alpha Z        PSCENC =       769.24106914
  Ewald energy   TEWEN  =    -14560.31608973
  -Hartree energ DENC   =     -6565.63485281
  -exchange      EXHF   =         0.00000000
  -V(xc)+E(xc)   XCENC  =       842.90321285
  PAW double counting   =     17015.18481625   -17491.61297812
  entropy T*S    EENTRO =        -0.02311536
  eigenvalues    EBANDS =       221.49290504
  atomic energy  EATOM  =     20168.87094289
  ---------------------------------------------------
  free energy    TOTEN  =       400.10591014 eV

  energy without entropy =      400.12902550  energy(sigma->0) =      400.11746782


--------------------------------------------------------------------------------------------------------




--------------------------------------- Iteration      1(   3)  ---------------------------------------


    TRIAL :  cpu time   26.8847: real time   26.9356
    CORREC:  cpu time    0.0046: real time    0.0046
    --------------------------------------------
      LOOP:  cpu time   26.8933: real time   26.9442

 eigenvalue-minimisations  : 25456
 total energy-change (2. order) :-0.6220674E+03  (-0.5653289E+03)
 number of electron     258.0000000 magnetization       6.0000000
 augmentation part      258.0000000 magnetization       6.0000000

 Free energy of the ion-electron system (eV)
  ---------------------------------------------------
  alpha Z        PSCENC =       769.24106914
  Ewald energy   TEWEN  =    -14560.31608973
  -Hartree energ DENC   =     -6565.63485281
  -exchange      EXHF   =         0.00000000
  -V(xc)+E(xc)   XCENC  =       842.90321285
  PAW double counting   =     17015.18481625   -17491.61297812
  entropy T*S    EENTRO =        -0.02411121
  eigenvalues    EBANDS =      -400.57346031
  atomic energy  EATOM  =     20168.87094289
  ---------------------------------------------------
  free energy    TOTEN  =      -221.96145106 eV

  energy without entropy =     -221.93733985  energy(sigma->0) =     -221.94939545


--------------------------------------------------------------------------------------------------------




--------------------------------------- Iteration      1(   4)  ---------------------------------------


    TRIAL :  cpu time   26.3801: real time   26.4284
    CORREC:  cpu time    0.0042: real time    0.0042
    --------------------------------------------
      LOOP:  cpu time   26.3884: real time   26.4366

 eigenvalue-minimisations  : 25312
 total energy-change (2. order) :-0.4985899E+02  (-0.4883887E+02)
 number of electron     258.0000000 magnetization       6.0000000
 augmentation part      258.0000000 magnetization       6.0000000

 Free energy of the ion-electron system (eV)
  ---------------------------------------------------
  alpha Z        PSCENC =       769.24106914
  Ewald energy   TEWEN  =    -14560.31608973
  -Hartree energ DENC   =     -6565.63485281
  -exchange      EXHF   =         0.00000000
  -V(xc)+E(xc)   XCENC  =       842.90321285
  PAW double counting   =     17015.18481625   -17491.61297812
  entropy T*S    EENTRO =        -0.01796548
  eigenvalues    EBANDS =      -450.43859294
  atomic energy  EATOM  =     20168.87094289
  ---------------------------------------------------
  free energy    TOTEN  =      -271.82043795 eV

  energy without entropy =     -271.80247247  energy(sigma->0) =     -271.81145521


--------------------------------------------------------------------------------------------------------




--------------------------------------- Iteration      1(   5)  ---------------------------------------


    TRIAL :  cpu time   31.8500: real time   31.9874
    CORREC:  cpu time    0.0052: real time    0.0053
    CHARGE:  cpu time    0.4440: real time    0.4450
    --------------------------------------------
      LOOP:  cpu time   32.3035: real time   32.4420

 eigenvalue-minimisations  : 28864
 total energy-change (2. order) :-0.1720707E+01  (-0.1717748E+01)
 number of electron     258.0000029 magnetization       5.9999995
 augmentation part       67.8611474 magnetization       4.2639851

 Free energy of the ion-electron system (eV)
  ---------------------------------------------------
  alpha Z        PSCENC =       769.24106914
  Ewald energy   TEWEN  =    -14560.31608973
  -Hartree energ DENC   =     -6565.63485281
  -exchange      EXHF   =         0.00000000
  -V(xc)+E(xc)   XCENC  =       842.90321285
  PAW double counting   =     17015.18481625   -17491.61297812
  entropy T*S    EENTRO =        -0.01779826
  eigenvalues    EBANDS =      -452.15946693
  atomic energy  EATOM  =     20168.87094289
  ---------------------------------------------------
  free energy    TOTEN  =      -273.54114472 eV

  energy without entropy =     -273.52334647  energy(sigma->0) =     -273.53224559


--------------------------------------------------------------------------------------------------------




--------------------------------------- Iteration      1(   6)  ---------------------------------------


    POTLOK:  cpu time    0.0463: real time    0.0465
    SETDIJ:  cpu time    0.0134: real time    0.0134
    TRIAL :  cpu time   14.4249: real time   14.4540
    CORREC:  cpu time    4.7342: real time    4.8871
    CHARGE:  cpu time    0.4927: real time    0.4932
    --------------------------------------------
      LOOP:  cpu time   19.7157: real time   19.8985

 eigenvalue-minimisations  :     0
 total energy-change (2. order) : 0.4278111E+03  (-0.9724410E+02)
 number of electron     258.0000023 magnetization       6.0000003
 augmentation part       69.1504338 magnetization       4.3377385

 Free energy of the ion-electron system (eV)
  ---------------------------------------------------
  alpha Z        PSCENC =       769.24106914
  Ewald energy   TEWEN  =    -14560.31608973
  -Hartree energ DENC   =     -6325.01191777
  -exchange      EXHF   =         0.00000000
  -V(xc)+E(xc)   XCENC  =       877.32725833
  PAW double counting   =     23470.92295071   -23676.77204899
  entropy T*S    EENTRO =        -0.03243064
  eigenvalues    EBANDS =      -569.97436529
  atomic energy  EATOM  =     20168.87094289
  ---------------------------------------------------
  free energy    TOTEN  =       154.27000103 eV

  energy without entropy =      154.30243167  energy(sigma->0) =      154.28621635


--------------------------------------------------------------------------------------------------------




--------------------------------------- Iteration      1(   7)  ---------------------------------------


    POTLOK:  cpu time    0.0451: real time    0.0451
    SETDIJ:  cpu time    0.0129: real time    0.0129
    TRIAL :  cpu time   14.0539: real time   14.1337
    CORREC:  cpu time    4.5502: real time    4.5970
    CHARGE:  cpu time    0.4553: real time    0.4557
    --------------------------------------------
      LOOP:  cpu time   19.1217: real time   19.2488

 eigenvalue-minimisations  :     0
 total energy-change (2. order) :-0.4439720E+02  (-0.5453745E+03)
 number of electron     258.0000020 magnetization       6.0000003
 augmentation part       62.2986858 magnetization       2.9832942

 Free energy of the ion-electron system (eV)
  ---------------------------------------------------
  alpha Z        PSCENC =       769.24106914
  Ewald energy   TEWEN  =    -14560.31608973
  -Hartree energ DENC   =     -6407.23062889
  -exchange      EXHF   =         0.00000000
  -V(xc)+E(xc)   XCENC  =       870.55203386
  PAW double counting   =     23343.39714611   -23600.78262587
  entropy T*S    EENTRO =        -0.06781928
  eigenvalues    EBANDS =      -473.82661132
  atomic energy  EATOM  =     20168.87094289
  ---------------------------------------------------
  free energy    TOTEN  =       109.87280555 eV

  energy without entropy =      109.94062483  energy(sigma->0) =      109.90671519


--------------------------------------------------------------------------------------------------------




--------------------------------------- Iteration      1(   8)  ---------------------------------------


    POTLOK:  cpu time    0.0450: real time    0.0453
    SETDIJ:  cpu time    0.0130: real time    0.0129
    TRIAL :  cpu time   14.0891: real time   14.2553
    CORREC:  cpu time    4.8520: real time    4.8768
    CHARGE:  cpu time    0.5251: real time    0.5258
    --------------------------------------------
      LOOP:  cpu time   19.5282: real time   19.7207

 eigenvalue-minimisations  :     0
 total energy-change (2. order) : 0.1651983E+04  (-0.1140546E+05)
 number of electron     258.0000052 magnetization       6.0000000
 augmentation part       76.8454195 magnetization       2.3392447

 Free energy of the ion-electron system (eV)
  ---------------------------------------------------
  alpha Z        PSCENC =       769.24106914
  Ewald energy   TEWEN  =    -14560.31608973
  -Hartree energ DENC   =     -6480.78875265
  -exchange      EXHF   =         0.00000000
  -V(xc)+E(xc)   XCENC  =       833.65394733
  PAW double counting   =     44986.63707573   -45107.98333999
  entropy T*S    EENTRO =        -0.02601329
  eigenvalues    EBANDS =      1152.60904010
  atomic energy  EATOM  =     20168.87094289
  ---------------------------------------------------
  free energy    TOTEN  =      1761.85607353 eV

  energy without entropy =     1761.88208681  energy(sigma->0) =     1761.86908017


--------------------------------------------------------------------------------------------------------




--------------------------------------- Iteration      1(   9)  ---------------------------------------


    POTLOK:  cpu time    0.0457: real time    0.0457
    SETDIJ:  cpu time    0.0137: real time    0.0137
    TRIAL :  cpu time   14.1985: real time   14.2288
    CORREC:  cpu time    4.6602: real time    4.8034
    CHARGE:  cpu time    0.4764: real time    0.4766
    --------------------------------------------
      LOOP:  cpu time   19.3986: real time   19.5723

 eigenvalue-minimisations  :     0
 total energy-change (2. order) : 0.3158960E+04  (-0.7575644E+04)
 number of electron     258.0000031 magnetization       6.0000002
 augmentation part       78.3122751 magnetization       2.2799598

 Free energy of the ion-electron system (eV)
  ---------------------------------------------------
  alpha Z        PSCENC =       769.24106914
  Ewald energy   TEWEN  =    -14560.31608973
  -Hartree energ DENC   =    -11570.66031157
  -exchange      EXHF   =         0.00000000
  -V(xc)+E(xc)   XCENC  =       865.42144203
  PAW double counting   =     35580.48421356   -36256.85860551
  entropy T*S    EENTRO =        -0.03505773
  eigenvalues    EBANDS =      9924.65990594
  atomic energy  EATOM  =     20168.87094289
  ---------------------------------------------------
  free energy    TOTEN  =      4920.81655345 eV

  energy without entropy =     4920.85161118  energy(sigma->0) =     4920.83408231


--------------------------------------------------------------------------------------------------------




--------------------------------------- Iteration      1(  10)  ---------------------------------------


    POTLOK:  cpu time    0.0457: real time    0.0457
    SETDIJ:  cpu time    0.0130: real time    0.0130
    TRIAL :  cpu time   14.2535: real time   14.2785
    CORREC:  cpu time    4.7391: real time    4.7505
    CHARGE:  cpu time    0.4536: real time    0.4541
    --------------------------------------------
      LOOP:  cpu time   19.5093: real time   19.5463

 eigenvalue-minimisations  :     0
 total energy-change (2. order) : 0.1273354E+03  (-0.1684748E+05)
 number of electron     258.0000018 magnetization       6.0000001
 augmentation part       78.0920673 magnetization       1.8524879

 Free energy of the ion-electron system (eV)
  ---------------------------------------------------
  alpha Z        PSCENC =       769.24106914
  Ewald energy   TEWEN  =    -14560.31608973
  -Hartree energ DENC   =    -11576.20877371
  -exchange      EXHF   =         0.00000000
  -V(xc)+E(xc)   XCENC  =       852.97461623
  PAW double counting   =     55891.54275350   -56635.09182221
  entropy T*S    EENTRO =        -0.01312360
  eigenvalues    EBANDS =     10137.17426986
  atomic energy  EATOM  =     20168.87094289
  ---------------------------------------------------
  free energy    TOTEN  =      5048.15190824 eV

  energy without entropy =     5048.16503184  energy(sigma->0) =     5048.15847004


--------------------------------------------------------------------------------------------------------




--------------------------------------- Iteration      1(  11)  ---------------------------------------


    POTLOK:  cpu time    0.0461: real time    0.0461
    SETDIJ:  cpu time    0.0131: real time    0.0131
    TRIAL :  cpu time   14.7178: real time   14.7409
    CORREC:  cpu time    4.6947: real time    4.7028
    CHARGE:  cpu time    0.4537: real time    0.4544
    --------------------------------------------
      LOOP:  cpu time   19.9299: real time   19.9621

 eigenvalue-minimisations  :     0
 total energy-change (2. order) : 0.1375229E+04  (-0.1769256E+05)
 number of electron     258.0000032 magnetization       6.0000001
 augmentation part       81.4454405 magnetization       1.8859090

 Free energy of the ion-electron system (eV)
  ---------------------------------------------------
  alpha Z        PSCENC =       769.24106914
  Ewald energy   TEWEN  =    -14560.31608973
  -Hartree energ DENC   =     -9949.40985177
  -exchange      EXHF   =         0.00000000
  -V(xc)+E(xc)   XCENC  =       825.14199293
  PAW double counting   =     92102.48505123   -93030.48135880
  entropy T*S    EENTRO =        -0.01009921
  eigenvalues    EBANDS =     10097.86269552
  atomic energy  EATOM  =     20168.87094289
  ---------------------------------------------------
  free energy    TOTEN  =      6423.38132779 eV

  energy without entropy =     6423.39142700  energy(sigma->0) =     6423.38637740


--------------------------------------------------------------------------------------------------------




--------------------------------------- Iteration      1(  12)  ---------------------------------------


    POTLOK:  cpu time    0.0460: real time    0.0460
    SETDIJ:  cpu time    0.0130: real time    0.0130
    TRIAL :  cpu time   14.5027: real time   14.5362
    CORREC:  cpu time    4.6762: real time    4.8565
    CHARGE:  cpu time    0.4570: real time    0.4572
    --------------------------------------------
      LOOP:  cpu time   19.6994: real time   19.9140

 eigenvalue-minimisations  :     0
 total energy-change (2. order) :-0.3685451E+04  (-0.2256026E+04)
 number of electron     258.0000035 magnetization       6.0000001
 augmentation part       78.6626444 magnetization       1.9398080

 Free energy of the ion-electron system (eV)
  ---------------------------------------------------
  alpha Z        PSCENC =       769.24106914
  Ewald energy   TEWEN  =    -14560.31608973
  -Hartree energ DENC   =     -6114.25403811
  -exchange      EXHF   =         0.00000000
  -V(xc)+E(xc)   XCENC  =       786.72677699
  PAW double counting   =     92254.95532481   -93272.46099533
  entropy T*S    EENTRO =        -0.01098222
  eigenvalues    EBANDS =      2705.17752951
  atomic energy  EATOM  =     20168.87094289
  ---------------------------------------------------
  free energy    TOTEN  =      2737.93042095 eV

  energy without entropy =     2737.94140318  energy(sigma->0) =     2737.93591206


--------------------------------------------------------------------------------------------------------




--------------------------------------- Iteration      1(  13)  ---------------------------------------


    POTLOK:  cpu time    0.0460: real time    0.0460
    SETDIJ:  cpu time    0.0130: real time    0.0130
    TRIAL :  cpu time   14.3221: real time   14.3633
    CORREC:  cpu time    4.6005: real time    4.6139
    CHARGE:  cpu time    0.4755: real time    0.4759
    --------------------------------------------
      LOOP:  cpu time   19.4616: real time   19.5171

 eigenvalue-minimisations  :     0
 total energy-change (2. order) :-0.1171408E+04  (-0.2274013E+03)
 number of electron     258.0000033 magnetization       6.0000001
 augmentation part       77.0926610 magnetization       2.0602355

 Free energy of the ion-electron system (eV)
  ---------------------------------------------------
  alpha Z        PSCENC =       769.24106914
  Ewald energy   TEWEN  =    -14560.31608973
  -Hartree energ DENC   =     -5479.66747159
  -exchange      EXHF   =         0.00000000
  -V(xc)+E(xc)   XCENC  =       781.36461672
  PAW double counting   =     75582.96199145   -76475.13988890
  entropy T*S    EENTRO =        -0.01211551
  eigenvalues    EBANDS =       779.21871445
  atomic energy  EATOM  =     20168.87094289
  ---------------------------------------------------
  free energy    TOTEN  =      1566.52290220 eV

  energy without entropy =     1566.53501770  energy(sigma->0) =     1566.52895995


--------------------------------------------------------------------------------------------------------




--------------------------------------- Iteration      1(  14)  ---------------------------------------


    POTLOK:  cpu time    0.0458: real time    0.0459
    SETDIJ:  cpu time    0.0130: real time    0.0130
    TRIAL :  cpu time   14.5055: real time   14.6903
    CORREC:  cpu time    4.6377: real time    4.6428
    CHARGE:  cpu time    0.4364: real time    0.4368
    --------------------------------------------
      LOOP:  cpu time   19.6426: real time   19.8330

 eigenvalue-minimisations  :     0
 total energy-change (2. order) :-0.2202306E+03  (-0.4620678E+03)
 number of electron     258.0000028 magnetization       6.0000001
 augmentation part       71.1708410 magnetization       2.4703760

 Free energy of the ion-electron system (eV)
  ---------------------------------------------------
  alpha Z        PSCENC =       769.24106914
  Ewald energy   TEWEN  =    -14560.31608973
  -Hartree energ DENC   =     -5531.77439752
  -exchange      EXHF   =         0.00000000
  -V(xc)+E(xc)   XCENC  =       784.71797910
  PAW double counting   =     68032.93716579   -68841.41544257
  entropy T*S    EENTRO =        -0.01318480
  eigenvalues    EBANDS =       524.04317253
  atomic energy  EATOM  =     20168.87094289
  ---------------------------------------------------
  free energy    TOTEN  =      1346.29228412 eV

  energy without entropy =     1346.30546892  energy(sigma->0) =     1346.29887652


--------------------------------------------------------------------------------------------------------




--------------------------------------- Iteration      1(  15)  ---------------------------------------


    POTLOK:  cpu time    0.0454: real time    0.0454
    SETDIJ:  cpu time    0.0133: real time    0.0133
    TRIAL :  cpu time   14.2772: real time   14.3064
    CORREC:  cpu time    4.7141: real time    4.7255
    CHARGE:  cpu time    0.7201: real time    0.7340
    --------------------------------------------
      LOOP:  cpu time   19.7746: real time   19.8290

 eigenvalue-minimisations  :     0
 total energy-change (2. order) :-0.4477588E+03  (-0.5279343E+03)
 number of electron     258.0000030 magnetization       6.0000001
 augmentation part       69.2214296 magnetization       2.7837712

 Free energy of the ion-electron system (eV)
  ---------------------------------------------------
  alpha Z        PSCENC =       769.24106914
  Ewald energy   TEWEN  =    -14560.31608973
  -Hartree energ DENC   =     -5675.64786395
  -exchange      EXHF   =         0.00000000
  -V(xc)+E(xc)   XCENC  =       808.27633174
  PAW double counting   =     41914.27839316   -42446.41248437
  entropy T*S    EENTRO =        -0.00993556
  eigenvalues    EBANDS =       -79.74362555
  atomic energy  EATOM  =     20168.87094289
  ---------------------------------------------------
  free energy    TOTEN  =       898.53348852 eV

  energy without entropy =      898.54342408  energy(sigma->0) =      898.53845630


--------------------------------------------------------------------------------------------------------




--------------------------------------- Iteration      1(  16)  ---------------------------------------


    POTLOK:  cpu time    0.0450: real time    0.0458
    SETDIJ:  cpu time    0.0127: real time    0.0129
    TRIAL :  cpu time   13.9192: real time   14.0459
    CORREC:  cpu time    4.7593: real time    4.7981
    CHARGE:  cpu time    0.4290: real time    0.4297
    --------------------------------------------
      LOOP:  cpu time   19.1660: real time   19.3371

 eigenvalue-minimisations  :     0
 total energy-change (2. order) :-0.3045080E+03  (-0.3575926E+03)
 number of electron     258.0000033 magnetization       6.0000001
 augmentation part       78.3724622 magnetization       3.4680576

 Free energy of the ion-electron system (eV)
  ---------------------------------------------------
  alpha Z        PSCENC =       769.24106914
  Ewald energy   TEWEN  =    -14560.31608973
  -Hartree energ DENC   =     -5726.53168884
  -exchange      EXHF   =         0.00000000
  -V(xc)+E(xc)   XCENC  =       831.19842725
  PAW double counting   =     30493.16795868   -30875.34176086
  entropy T*S    EENTRO =        -0.00958058
  eigenvalues    EBANDS =      -506.25338876
  atomic energy  EATOM  =     20168.87094289
  ---------------------------------------------------
  free energy    TOTEN  =       594.02553421 eV

  energy without entropy =      594.03511479  energy(sigma->0) =      594.03032450


--------------------------------------------------------------------------------------------------------




--------------------------------------- Iteration      1(  17)  ---------------------------------------


    POTLOK:  cpu time    0.0450: real time    0.0472
    SETDIJ:  cpu time    0.0129: real time    0.0129
    TRIAL :  cpu time   13.8238: real time   14.1256
    CORREC:  cpu time    4.8790: real time    4.8935
    CHARGE:  cpu time    0.4246: real time    0.4250
    --------------------------------------------
      LOOP:  cpu time   19.1895: real time   19.5089

 eigenvalue-minimisations  :     0
 total energy-change (2. order) :-0.3599307E+03  (-0.6808390E+02)
 number of electron     258.0000033 magnetization       6.0000001
 augmentation part       79.3673397 magnetization       3.6949686

 Free energy of the ion-electron system (eV)
  ---------------------------------------------------
  alpha Z        PSCENC =       769.24106914
  Ewald energy   TEWEN  =    -14560.31608973
  -Hartree energ DENC   =     -6567.08618211
  -exchange      EXHF   =         0.00000000
  -V(xc)+E(xc)   XCENC  =       859.57867368
  PAW double counting   =     29395.22547804   -29978.49556701
  entropy T*S    EENTRO =        -0.01235682
  eigenvalues    EBANDS =       147.08607947
  atomic energy  EATOM  =     20168.87094289
  ---------------------------------------------------
  free energy    TOTEN  =       234.09482378 eV

  energy without entropy =      234.10718060  energy(sigma->0) =      234.10100219


--------------------------------------------------------------------------------------------------------




--------------------------------------- Iteration      1(  18)  ---------------------------------------


    POTLOK:  cpu time    0.0449: real time    0.0451
    SETDIJ:  cpu time    0.0129: real time    0.0130
    TRIAL :  cpu time   14.0446: real time   14.0933
    CORREC:  cpu time    4.7076: real time    4.7224
    CHARGE:  cpu time    0.4275: real time    0.4288
    --------------------------------------------
      LOOP:  cpu time   19.2415: real time   19.3067

 eigenvalue-minimisations  :     0
 total energy-change (2. order) :-0.6881764E+02  (-0.1163916E+03)
 number of electron     258.0000036 magnetization       6.0000001
 augmentation part       79.2697761 magnetization       3.9935388

 Free energy of the ion-electron system (eV)
  ---------------------------------------------------
  alpha Z        PSCENC =       769.24106914
  Ewald energy   TEWEN  =    -14560.31608973
  -Hartree energ DENC   =     -6716.72606406
  -exchange      EXHF   =         0.00000000
  -V(xc)+E(xc)   XCENC  =       860.17088302
  PAW double counting   =     29037.06137461   -29646.65577118
  entropy T*S    EENTRO =        -0.01423540
  eigenvalues    EBANDS =       253.64319267
  atomic energy  EATOM  =     20168.87094289
  ---------------------------------------------------
  free energy    TOTEN  =       165.27718054 eV

  energy without entropy =      165.29141594  energy(sigma->0) =      165.28429824


--------------------------------------------------------------------------------------------------------




--------------------------------------- Iteration      1(  19)  ---------------------------------------


    POTLOK:  cpu time    0.0449: real time    0.0449
    SETDIJ:  cpu time    0.0130: real time    0.0130
    TRIAL :  cpu time   14.7988: real time   14.8483
    CORREC:  cpu time    4.8505: real time    4.8700
    CHARGE:  cpu time    0.4331: real time    0.4334
    --------------------------------------------
      LOOP:  cpu time   20.1448: real time   20.2141

 eigenvalue-minimisations  :     0
 total energy-change (2. order) :-0.1154262E+03  (-0.5586587E+02)
 number of electron     258.0000033 magnetization       6.0000001
 augmentation part       78.2894387 magnetization       4.1192417

 Free energy of the ion-electron system (eV)
  ---------------------------------------------------
  alpha Z        PSCENC =       769.24106914
  Ewald energy   TEWEN  =    -14560.31608973
  -Hartree energ DENC   =     -6696.98073003
  -exchange      EXHF   =         0.00000000
  -V(xc)+E(xc)   XCENC  =       852.49335512
  PAW double counting   =     27529.55168867   -28147.16152517
  entropy T*S    EENTRO =        -0.01557626
  eigenvalues    EBANDS =       134.16650712
  atomic energy  EATOM  =     20168.87094289
  ---------------------------------------------------
  free energy    TOTEN  =        49.85098261 eV

  energy without entropy =       49.86655887  energy(sigma->0) =       49.85877074


--------------------------------------------------------------------------------------------------------




--------------------------------------- Iteration      1(  20)  ---------------------------------------


    POTLOK:  cpu time    0.0450: real time    0.0450
    SETDIJ:  cpu time    0.0129: real time    0.0129
    TRIAL :  cpu time   14.2491: real time   14.2824
    CORREC:  cpu time    4.9257: real time    4.9344
    CHARGE:  cpu time    0.4450: real time    0.4451
    --------------------------------------------
      LOOP:  cpu time   19.6823: real time   19.7250

 eigenvalue-minimisations  :     0
 total energy-change (2. order) :-0.5483922E+02  (-0.3889894E+02)
 number of electron     258.0000030 magnetization       6.0000001
 augmentation part       77.0620381 magnetization       4.2126092

 Free energy of the ion-electron system (eV)
  ---------------------------------------------------
  alpha Z        PSCENC =       769.24106914
  Ewald energy   TEWEN  =    -14560.31608973
  -Hartree energ DENC   =     -6503.53451782
  -exchange      EXHF   =         0.00000000
  -V(xc)+E(xc)   XCENC  =       845.35293725
  PAW double counting   =     26554.09845948   -27139.66613554
  entropy T*S    EENTRO =        -0.01560119
  eigenvalues    EBANDS =      -139.01932732
  atomic energy  EATOM  =     20168.87094289
  ---------------------------------------------------
  free energy    TOTEN  =        -4.98823791 eV

  energy without entropy =       -4.97263672  energy(sigma->0) =       -4.98043732


--------------------------------------------------------------------------------------------------------




--------------------------------------- Iteration      1(  21)  ---------------------------------------


    POTLOK:  cpu time    0.0453: real time    0.0453
    SETDIJ:  cpu time    0.0126: real time    0.0129
    TRIAL :  cpu time   14.1586: real time   14.3513
    CORREC:  cpu time    4.7700: real time    4.8316
    CHARGE:  cpu time    0.4283: real time    0.4492
    --------------------------------------------
      LOOP:  cpu time   19.4192: real time   19.6954

 eigenvalue-minimisations  :     0
 total energy-change (2. order) :-0.3912890E+02  (-0.2830451E+02)
 number of electron     258.0000030 magnetization       6.0000001
 augmentation part       75.8544294 magnetization       4.3348077

 Free energy of the ion-electron system (eV)
  ---------------------------------------------------
  alpha Z        PSCENC =       769.24106914
  Ewald energy   TEWEN  =    -14560.31608973
  -Hartree energ DENC   =     -6376.91831308
  -exchange      EXHF   =         0.00000000
  -V(xc)+E(xc)   XCENC  =       840.31157026
  PAW double counting   =     25905.38410507   -26451.71827675
  entropy T*S    EENTRO =        -0.01485604
  eigenvalues    EBANDS =      -338.95654007
  atomic energy  EATOM  =     20168.87094289
  ---------------------------------------------------
  free energy    TOTEN  =       -44.11713347 eV

  energy without entropy =      -44.10227743  energy(sigma->0) =      -44.10970545


--------------------------------------------------------------------------------------------------------




--------------------------------------- Iteration      1(  22)  ---------------------------------------


    POTLOK:  cpu time    0.0454: real time    0.0474
    SETDIJ:  cpu time    0.0128: real time    0.0129
    TRIAL :  cpu time   13.8527: real time   14.1965
    CORREC:  cpu time    4.8739: real time    4.8832
    CHARGE:  cpu time    0.4271: real time    0.4276
    --------------------------------------------
      LOOP:  cpu time   19.2125: real time   19.5726

 eigenvalue-minimisations  :     0
 total energy-change (2. order) :-0.2898253E+02  (-0.2367245E+02)
 number of electron     258.0000032 magnetization       6.0000001
 augmentation part       75.1514584 magnetization       4.4320066

 Free energy of the ion-electron system (eV)
  ---------------------------------------------------
  alpha Z        PSCENC =       769.24106914
  Ewald energy   TEWEN  =    -14560.31608973
  -Hartree energ DENC   =     -6369.47056901
  -exchange      EXHF   =         0.00000000
  -V(xc)+E(xc)   XCENC  =       839.65580480
  PAW double counting   =     25242.43424353   -25742.27314137
  entropy T*S    EENTRO =        -0.01702217
  eigenvalues    EBANDS =      -421.22706744
  atomic energy  EATOM  =     20168.87094289
  ---------------------------------------------------
  free energy    TOTEN  =       -73.09966323 eV

  energy without entropy =      -73.08264106  energy(sigma->0) =      -73.09115215


--------------------------------------------------------------------------------------------------------




--------------------------------------- Iteration      1(  23)  ---------------------------------------


    POTLOK:  cpu time    0.0449: real time    0.0457
    SETDIJ:  cpu time    0.0129: real time    0.0131
    TRIAL :  cpu time   15.0010: real time   15.1326
    CORREC:  cpu time    5.0680: real time    5.0758
    CHARGE:  cpu time    0.4287: real time    0.4300
    --------------------------------------------
      LOOP:  cpu time   20.5562: real time   20.7020

 eigenvalue-minimisations  :     0
 total energy-change (2. order) :-0.2458411E+02  (-0.1593636E+02)
 number of electron     258.0000031 magnetization       6.0000001
 augmentation part       75.0882329 magnetization       4.4948376

 Free energy of the ion-electron system (eV)
  ---------------------------------------------------
  alpha Z        PSCENC =       769.24106914
  Ewald energy   TEWEN  =    -14560.31608973
  -Hartree energ DENC   =     -6329.94847128
  -exchange      EXHF   =         0.00000000
  -V(xc)+E(xc)   XCENC  =       840.89769990
  PAW double counting   =     24871.29856955   -25341.24708076
  entropy T*S    EENTRO =        -0.01815024
  eigenvalues    EBANDS =      -516.46339279
  atomic energy  EATOM  =     20168.87094289
  ---------------------------------------------------
  free energy    TOTEN  =       -97.68377525 eV

  energy without entropy =      -97.66562501  energy(sigma->0) =      -97.67470013


--------------------------------------------------------------------------------------------------------




--------------------------------------- Iteration      1(  24)  ---------------------------------------


    POTLOK:  cpu time    0.0813: real time    0.0842
    SETDIJ:  cpu time    0.0131: real time    0.0131
    TRIAL :  cpu time   13.8522: real time   14.2618
    CORREC:  cpu time    4.6198: real time    4.7253
    CHARGE:  cpu time    0.4372: real time    0.4378
    --------------------------------------------
      LOOP:  cpu time   19.0077: real time   19.5263

 eigenvalue-minimisations  :     0
 total energy-change (2. order) :-0.1904499E+02  (-0.1053856E+02)
 number of electron     258.0000030 magnetization       6.0000001
 augmentation part       75.4694050 magnetization       4.5489730

 Free energy of the ion-electron system (eV)
  ---------------------------------------------------
  alpha Z        PSCENC =       769.24106914
  Ewald energy   TEWEN  =    -14560.31608973
  -Hartree energ DENC   =     -6310.71851955
  -exchange      EXHF   =         0.00000000
  -V(xc)+E(xc)   XCENC  =       843.28551696
  PAW double counting   =     24735.95710829   -25197.90199752
  entropy T*S    EENTRO =        -0.01968285
  eigenvalues    EBANDS =      -565.12864718
  atomic energy  EATOM  =     20168.87094289
  ---------------------------------------------------
  free energy    TOTEN  =      -116.72876694 eV

  energy without entropy =     -116.70908408  energy(sigma->0) =     -116.71892551


--------------------------------------------------------------------------------------------------------




--------------------------------------- Iteration      1(  25)  ---------------------------------------


    POTLOK:  cpu time    0.0458: real time    0.0458
    SETDIJ:  cpu time    0.0129: real time    0.0129
    TRIAL :  cpu time   14.1909: real time   14.2138
    CORREC:  cpu time    4.9702: real time    4.9753
    CHARGE:  cpu time    0.4370: real time    0.4373
    --------------------------------------------
      LOOP:  cpu time   19.6611: real time   19.6894

 eigenvalue-minimisations  :     0
[...]
   20        1.574   3.413   0.000   4.987
   21        1.587   3.335   0.000   4.922
   22        1.576   3.355   0.000   4.931
   23        1.573   3.411   0.000   4.985
   24        1.578   3.379   0.000   4.956
   25        1.575   3.446   0.000   5.021
   26        1.589   3.347   0.000   4.935
   27        1.560   3.481   0.000   5.041
   28        1.560   3.472   0.000   5.032
   29        1.561   3.452   0.000   5.013
   30        1.562   3.410   0.000   4.972
   31        1.583   3.332   0.000   4.915
   32        1.576   3.387   0.000   4.964
   33        1.574   3.383   0.000   4.957
   34        1.572   3.422   0.000   4.994
   35        1.582   3.354   0.000   4.936
   36        1.570   3.440   0.000   5.010
   37        1.570   3.432   0.000   5.002
   38        1.574   3.384   0.000   4.958
   39        1.554   3.447   0.000   5.001
   40        1.558   3.454   0.000   5.012
   41        1.554   3.490   0.000   5.044
   42        1.557   3.474   0.000   5.031
--------------------------------------------------
tot         43.584  91.382  87.385 222.352
 


 magnetization (x)
 
# of ion       s       p       d       tot
------------------------------------------
    1        0.001  -0.000   0.000   0.000
    2        0.001  -0.002   0.000  -0.001
    3        0.001  -0.001   0.000  -0.000
    4        0.000  -0.000   0.000   0.000
    5        0.000  -0.001   0.000  -0.001
    6        0.001  -0.001   0.000  -0.000
    7        0.005   0.006   0.027   0.038
    8        0.013   0.017   1.321   1.351
    9        0.013   0.017   1.303   1.334
   10        0.014   0.018   1.305   1.337
   11        0.004   0.006  -0.058  -0.048
   12        0.014   0.016   1.608   1.638
   13        0.014   0.015   1.719   1.748
   14        0.004   0.005  -0.030  -0.021
   15        0.002   0.002  -0.021  -0.016
   16        0.011   0.004   1.295   1.311
   17        0.001   0.001  -0.017  -0.015
   18        0.001   0.002  -0.033  -0.030
   19        0.001  -0.102   0.000  -0.101
   20        0.000  -0.090   0.000  -0.090
   21        0.001  -0.216   0.000  -0.215
   22        0.000  -0.117   0.000  -0.117
   23        0.000  -0.108   0.000  -0.108
   24        0.000  -0.144   0.000  -0.144
   25        0.001  -0.073   0.000  -0.072
   26        0.001  -0.163   0.000  -0.161
   27        0.002  -0.061   0.000  -0.059
   28        0.000  -0.091   0.000  -0.091
   29        0.002  -0.091   0.000  -0.089
   30        0.001  -0.048   0.000  -0.048
   31        0.000  -0.146   0.000  -0.146
   32        0.001  -0.164   0.000  -0.163
   33       -0.000  -0.184   0.000  -0.184
   34        0.001  -0.102   0.000  -0.100
   35       -0.000  -0.107   0.000  -0.107
   36        0.000  -0.037   0.000  -0.037
   37       -0.002  -0.053   0.000  -0.055
   38       -0.000  -0.105   0.000  -0.105
   39       -0.001  -0.022   0.000  -0.023
   40        0.000  -0.043   0.000  -0.043
   41        0.001  -0.025   0.000  -0.025
   42        0.001  -0.023   0.000  -0.023
--------------------------------------------------
tot          0.111  -2.211   8.420   6.320
 
    FORLOC:  cpu time    0.0075: real time    0.0075
    FORNL :  cpu time    4.5252: real time    4.5310
    STRESS:  cpu time   13.4911: real time   13.5070
    FORCOR:  cpu time    0.2234: real time    0.2234
    OFIELD:  cpu time    0.0005: real time    0.0005

  DFT-D2 method for vdW energy calculation
  -------------------------------------------------------------------

  Parameters of vdW forcefield:
         C6(Jnm^6/mol)     R0(A)
   -----------------------------
   Li       1.610          0.825
   Co      10.800          1.562
   O        0.700          1.342

  IVDW =   1
  VDW_RADIUS =    50.000 A
  VDW_S6 =     0.750
  VDW_SR =     1.000
  VDW_D =    20.000
  LVDW_EWALD = F

  Number of pair interactions contributing to vdW energy: 1239954
  Edisp (eV):  -10.25250
    FORVDW:  cpu time    0.1784: real time    0.1795

  FORCE on cell =-STRESS in cart. coord.  units (eV):
  Direction    XX          YY          ZZ          XY          YZ          ZX
  --------------------------------------------------------------------------------------
  Alpha Z   769.24107   769.24107   769.24107
  Ewald   -2282.93174 -2284.36247 -9993.08916   -25.95537    13.97824   -15.86615
  Hartree  4031.04590  4032.33421 -1557.64583    -1.14368     9.44915    -2.64230
  E(xc)   -1284.77007 -1284.72937 -1285.84399    -0.18255    -0.09175    -0.06329
  Local   -6717.04923 -6716.60301  6530.43786    16.89048   -24.79482    13.09066
  n-local  -593.93564  -594.62104  -604.37396    -2.03529     0.58505    -0.86738
  augment  2021.16132  2020.28259  2006.94386     6.31361     1.38336     2.73529
  Kinetic  4058.26541  4060.82965  4148.82704     6.95187     1.87890     0.58424
  Fock        0.00000     0.00000     0.00000     0.00000     0.00000     0.00000
  vdW        -6.22535    -5.98873   -14.00929    -0.05460     0.10015     0.13370
  -------------------------------------------------------------------------------------
  Total      -5.19834    -3.61708     0.48761     0.78447     2.48829    -2.89522
  in kB     -21.85361   -15.20606     2.04990     3.29786    10.46065   -12.17138
  external pressure =      -11.67 kB  Pullay stress =        0.00 kB


 VOLUME and BASIS-vectors are now :
 -----------------------------------------------------------------------------
  energy-cutoff  :      600.00
  volume of cell :      381.11
      direct lattice vectors                 reciprocal lattice vectors
     5.703577042  0.000000000  0.000000000     0.175328569  0.102380333 -0.002439847
    -2.870546818  4.915874481  0.000000000     0.000000000  0.203422606  0.003306061
     0.318150342 -0.220910192 13.592650414     0.000000000  0.000000000  0.073569169

  length of vectors
     5.703577042  5.692614597 13.598167752     0.203046282  0.203449470  0.073569169


 FORCES acting on ions:
    Electron-Ion                     Ewald-Force                    Non-Local-Force
 -----------------------------------------------------------------------------------------------
   -.222E+01 -.543E+00 -.596E+01   0.186E+01 0.664E+00 0.619E+01   0.784E+00 -.215E+00 -.342E+00
   -.122E+01 0.188E+01 0.833E+01   0.906E+00 -.169E+01 -.861E+01   0.229E+00 -.144E+00 -.671E+00
   -.406E+01 -.210E+01 0.765E+01   0.375E+01 0.167E+01 -.695E+01   0.793E+00 0.152E+00 -.290E+00
   -.329E+00 -.197E+00 0.146E+02   -.168E-02 0.294E+00 -.142E+02   -.501E+00 -.883E-01 -.505E+00
   -.160E+01 0.345E+01 0.119E+02   0.145E+01 -.305E+01 -.118E+02   0.437E+00 -.278E+00 -.117E+00
   -.122E+01 0.282E+01 0.264E+02   0.137E+01 -.253E+01 -.258E+02   0.887E+00 -.767E+00 -.159E+01
   -.266E+02 0.744E+01 -.213E+03   0.277E+02 -.659E+01 0.213E+03   0.856E-01 -.621E+00 -.182E+00
   -.387E+02 -.112E+02 -.134E+03   0.402E+02 0.117E+02 0.135E+03   0.681E+00 -.708E-02 -.501E+00
   0.385E+02 -.290E+02 -.172E+03   -.404E+02 0.306E+02 0.174E+03   -.119E+00 0.546E+00 -.866E+00
   0.170E+02 0.565E+01 -.165E+03   -.182E+02 -.702E+01 0.167E+03   -.240E+00 0.378E+00 0.679E+00
   0.746E+01 0.581E+01 0.693E+02   -.739E+01 -.496E+01 -.707E+02   0.391E+00 -.297E+00 0.123E+01
   0.226E+02 0.161E+02 0.135E+03   -.233E+02 -.167E+02 -.136E+03   -.498E+00 -.163E-01 0.197E+00
   -.385E+02 0.122E+01 0.181E+03   0.392E+02 -.599E+00 -.183E+03   0.440E+00 -.769E-01 0.117E+01
   -.101E+02 -.317E+02 0.914E+02   0.106E+02 0.318E+02 -.932E+02   0.467E+00 0.510E+00 0.176E+01
   0.285E+02 0.435E+02 0.207E+02   -.300E+02 -.441E+02 -.204E+02   0.522E+00 -.703E+00 -.132E+01
   -.127E+02 -.175E+02 0.711E+02   0.131E+02 0.161E+02 -.708E+02   0.164E+00 0.308E+00 -.218E+01
   -.200E+02 0.562E+02 0.236E+02   0.213E+02 -.554E+02 -.230E+02   -.384E+00 -.127E+01 -.105E+01
   -.135E+02 -.642E+02 0.725E+02   0.141E+02 0.649E+02 -.712E+02   0.276E+00 0.323E+00 -.226E+01
   0.176E+02 -.454E+02 -.403E+03   -.201E+02 0.488E+02 0.426E+03   0.136E+01 -.245E+01 -.227E+02
   -.354E+02 0.211E+02 -.406E+03   0.380E+02 -.226E+02 0.429E+03   -.230E+01 0.454E+00 -.216E+02
   0.203E+01 0.286E+02 -.414E+03   -.207E+01 -.333E+02 0.438E+03   -.155E+00 0.379E+01 -.233E+02
   0.351E+02 0.203E+02 -.388E+03   -.376E+02 -.214E+02 0.408E+03   0.215E+01 0.256E+00 -.212E+02
   0.339E+02 -.265E+02 0.168E+03   -.398E+02 0.308E+02 -.186E+03   0.528E+01 -.380E+01 0.198E+02
   0.120E+02 0.266E+02 0.156E+03   -.129E+02 -.305E+02 -.177E+03   0.378E+00 0.390E+01 0.213E+02
   -.405E+02 -.309E+02 0.182E+03   0.465E+02 0.348E+02 -.205E+03   -.454E+01 -.304E+01 0.212E+02
   -.153E+02 0.243E+02 0.193E+03   0.168E+02 -.283E+02 -.218E+03   -.510E+00 0.332E+01 0.259E+02
   -.209E+02 -.857E+01 -.214E+03   0.229E+02 0.786E+01 0.228E+03   -.150E+01 0.134E+01 -.128E+02
   -.118E+02 -.531E+00 -.206E+03   0.141E+02 0.201E+01 0.221E+03   -.206E+01 -.202E+01 -.142E+02
   0.163E+02 -.771E+00 -.193E+03   -.188E+02 -.118E+01 0.206E+03   0.248E+01 0.236E+01 -.130E+02
   0.859E+01 0.270E+01 -.177E+03   -.944E+01 -.170E+01 0.191E+03   0.808E+00 -.590E+00 -.160E+02
   0.189E+02 -.219E+01 0.368E+03   -.195E+02 0.125E+00 -.393E+03   -.809E-01 0.211E+01 0.254E+02
   -.606E+01 0.174E+02 0.362E+03   0.550E+01 -.160E+02 -.384E+03   0.340E+00 -.245E+01 0.223E+02
   -.262E+02 -.833E+01 0.348E+03   0.266E+02 0.820E+01 -.369E+03   0.554E+00 0.720E+00 0.216E+02
   0.381E+02 0.788E+01 0.356E+03   -.423E+02 -.685E+01 -.377E+03   0.243E+01 -.237E+01 0.205E+02
   -.682E+00 0.415E+02 -.261E+03   0.830E+00 -.442E+02 0.287E+03   0.261E+00 0.221E+01 -.262E+02
   0.369E+02 -.275E+02 -.235E+03   -.448E+02 0.281E+02 0.255E+03   0.700E+01 0.253E+00 -.192E+02
   -.103E+02 0.200E+02 -.259E+03   0.110E+02 -.175E+02 0.283E+03   -.546E+00 -.375E+01 -.224E+02
   -.138E+02 -.381E+02 -.233E+03   0.180E+02 0.379E+02 0.255E+03   -.510E+01 0.156E+01 -.227E+02
   0.369E+01 0.363E+01 0.285E+03   -.228E+01 -.360E+01 -.297E+03   -.182E+01 -.250E+00 0.133E+02
   -.143E+02 -.111E+02 0.315E+03   0.136E+02 0.118E+02 -.327E+03   0.998E+00 -.280E+00 0.132E+02
   0.197E+01 0.113E+02 0.301E+03   -.344E+01 -.103E+02 -.311E+03   0.118E+01 -.835E+00 0.107E+02
   0.164E+02 -.119E+02 0.327E+03   -.171E+02 0.119E+02 -.341E+03   0.311E+00 0.596E+00 0.150E+02
 -----------------------------------------------------------------------------------------------
   -.113E+02 0.131E+01 0.119E+02   0.114E-12 -.906E-13 0.114E-12   0.113E+02 -.126E+01 -.119E+02
 
 
 POSITION                                       TOTAL-FORCE (eV/Angst)
 -----------------------------------------------------------------------------------
      3.08898     -0.16378     13.50842         0.262127     -0.089559      0.017768
      2.97213      3.15993      4.63539        -0.109715      0.032753     -0.776618
      0.02843      1.56860      9.06761         0.390388     -0.246043      0.428023
     -1.09810      4.00368      9.22689        -0.649070      0.056921     -0.047678
      2.88300      1.49195      9.14799         0.225776      0.130368     -0.006437
      1.53196      4.09801      9.37374         0.808581     -0.354612     -0.809370
      0.04787      1.49647      2.17253         1.030642      0.321474      0.013811
     -1.43954      3.93452      2.06676         1.904284      0.456332     -0.277105
      2.93742      1.45934      2.10865        -1.750111      1.798826      0.469531
      1.53674      3.94848      2.01273        -1.292784     -0.934283      2.476317
      0.18055     -0.10852      6.90251         0.399864      0.509815     -0.076475
     -1.24479      2.39033      6.85311        -1.064244     -0.536510     -0.794037
      2.99995     -0.08769      6.72134         0.922512      0.547152     -0.093388
      1.57090      2.36799      6.86427         0.929586      0.350818     -0.015395
      1.66739      0.77680     11.46522        -0.757258     -1.088509     -1.178709
      0.23466      3.16073     11.50412         0.425737     -0.962078     -1.793592
      4.50141      0.73447     11.45872         0.810904     -0.313387     -0.596739
      3.06300      3.15630     11.42862         0.819274      0.811692     -1.086268
      2.98637      4.66781      3.11376        -1.131150      1.004716     -0.574897
      4.26874      2.39124      3.02494         0.418387     -1.086810      0.682801
      0.07568      4.79237      2.99813        -0.181610     -0.831124      0.525369
      1.58342      2.41164      3.12935        -0.506895     -0.852015     -1.138566
      1.52771      0.64590      1.13862        -0.728919      0.490743      0.927295
      0.07546      3.13443      1.19376        -0.493029     -0.037829     -0.242360
      4.26825      0.64211      1.24371         1.510532      0.881285     -1.515473
      2.85709      3.16232      1.07172         0.974259     -0.660517      0.333911
      1.56848      0.69380      7.78803         0.406593      0.620658      1.215686
      0.14463      3.27253      7.77975         0.310731     -0.527455      0.638931
      4.42695      0.71160      7.81583        -0.119978      0.377281      0.198842
      3.04956      3.11366      8.06036        -0.082929      0.436661     -1.977930
      0.19503      1.56789      5.89277        -0.700508      0.056977      0.419959
     -1.31248      4.04073      5.84648        -0.129744     -0.996357      0.382211
      2.93366      1.55569      5.84837         0.977989      0.497403      0.596536
      1.76461      4.05450      5.91429        -1.846314     -1.308422     -0.423709
      0.18379      1.58493     12.41642         0.414167     -0.549852     -0.417854
     -1.12215      3.94886     12.28472        -0.971598      0.894379      1.130250
      3.07935      1.59334     12.34302         0.202422     -1.206183      0.741069
      1.68794      3.88220     12.44942        -0.778051      1.405241     -0.785869
      0.26716     -0.04927     10.32862        -0.396596     -0.236772      1.299903
      4.49016      2.31366     10.37132         0.249747      0.444859      0.555883
      3.09778     -0.09372     10.35152        -0.246639      0.109771      1.163750
      1.63662      2.34201     10.39932        -0.457359      0.582191      0.410622
 -----------------------------------------------------------------------------------
    total drift:                                0.013865      0.051457     -0.010225


--------------------------------------------------------------------------------------------------------



  FREE ENERGIE OF THE ION-ELECTRON SYSTEM (eV)
  ---------------------------------------------------
  free  energy   TOTEN  =      -233.59547456 eV

  energy  without entropy=     -233.58616387  energy(sigma->0) =     -233.59081921
 


--------------------------------------------------------------------------------------------------------


    POTLOK:  cpu time    0.0667: real time    0.0668


--------------------------------------------------------------------------------------------------------


     LOOP+:  cpu time 2929.1612: real time 2944.9879
    4ORBIT:  cpu time    0.0000: real time    0.0000
 


 total charge     
 
# of ion       s       p       d       tot
------------------------------------------
    1        0.108   0.240   0.000   0.348
    2        0.085   0.174   0.000   0.259
    3        0.097   0.205   0.000   0.302
    4        0.102   0.220   0.000   0.322
    5        0.104   0.223   0.000   0.327
    6        0.111   0.244   0.000   0.356
    7        0.385   0.558   7.243   8.186
    8        0.476   0.771   7.244   8.491
    9        0.477   0.766   7.249   8.491
   10        0.480   0.777   7.252   8.509
   11        0.449   0.726   7.408   8.583
   12        0.426   0.642   7.165   8.233
   13        0.437   0.674   7.185   8.297
   14        0.425   0.650   7.357   8.432
   15        0.417   0.634   7.339   8.390
   16        0.469   0.721   7.266   8.456
   17        0.411   0.616   7.332   8.359
   18        0.427   0.659   7.346   8.431
   19        1.577   3.383   0.000   4.960
   20        1.574   3.413   0.000   4.987
   21        1.587   3.335   0.000   4.922
   22        1.576   3.355   0.000   4.931
   23        1.573   3.411   0.000   4.985
   24        1.578   3.379   0.000   4.956
   25        1.575   3.446   0.000   5.021
   26        1.589   3.347   0.000   4.935
   27        1.560   3.481   0.000   5.041
   28        1.560   3.472   0.000   5.032
   29        1.561   3.452   0.000   5.013
   30        1.562   3.410   0.000   4.972
   31        1.583   3.332   0.000   4.915
   32        1.576   3.387   0.000   4.964
   33        1.574   3.383   0.000   4.957
   34        1.572   3.422   0.000   4.994
   35        1.582   3.354   0.000   4.936
   36        1.570   3.440   0.000   5.010
   37        1.570   3.432   0.000   5.002
   38        1.574   3.384   0.000   4.958
   39        1.554   3.447   0.000   5.001
   40        1.558   3.454   0.000   5.012
   41        1.554   3.490   0.000   5.044
   42        1.557   3.474   0.000   5.031
--------------------------------------------------
tot         43.584  91.382  87.385 222.352
 


 magnetization (x)
 
# of ion       s       p       d       tot
------------------------------------------
    1        0.001  -0.000   0.000   0.000
    2        0.001  -0.002   0.000  -0.001
    3        0.001  -0.001   0.000  -0.000
    4        0.000  -0.000   0.000   0.000
    5        0.000  -0.001   0.000  -0.001
    6        0.001  -0.001   0.000  -0.000
    7        0.005   0.006   0.027   0.038
    8        0.013   0.017   1.321   1.351
    9        0.013   0.017   1.303   1.334
   10        0.014   0.018   1.305   1.337
   11        0.004   0.006  -0.058  -0.048
   12        0.014   0.016   1.608   1.638
   13        0.014   0.015   1.719   1.748
   14        0.004   0.005  -0.030  -0.021
   15        0.002   0.002  -0.021  -0.016
   16        0.011   0.004   1.295   1.311
   17        0.001   0.001  -0.017  -0.015
   18        0.001   0.002  -0.033  -0.030
   19        0.001  -0.102   0.000  -0.101
   20        0.000  -0.090   0.000  -0.090
   21        0.001  -0.216   0.000  -0.215
   22        0.000  -0.117   0.000  -0.117
   23        0.000  -0.108   0.000  -0.108
   24        0.000  -0.144   0.000  -0.144
   25        0.001  -0.073   0.000  -0.072
   26        0.001  -0.163   0.000  -0.161
   27        0.002  -0.061   0.000  -0.059
   28        0.000  -0.091   0.000  -0.091
   29        0.002  -0.091   0.000  -0.089
   30        0.001  -0.048   0.000  -0.048
   31        0.000  -0.146   0.000  -0.146
   32        0.001  -0.164   0.000  -0.163
   33       -0.000  -0.184   0.000  -0.184
   34        0.001  -0.102   0.000  -0.100
   35       -0.000  -0.107   0.000  -0.107
   36        0.000  -0.037   0.000  -0.037
   37       -0.002  -0.053   0.000  -0.055
   38       -0.000  -0.105   0.000  -0.105
   39       -0.001  -0.022   0.000  -0.023
   40        0.000  -0.043   0.000  -0.043
   41        0.001  -0.025   0.000  -0.025
   42        0.001  -0.023   0.000  -0.023
--------------------------------------------------
tot          0.111  -2.211   8.420   6.320
 

 total amount of memory used by VASP MPI-rank0   155422. kBytes
=======================================================================

   base      :      30000. kBytes
   nonlr-proj:       4152. kBytes
   fftplans  :       1577. kBytes
   grid      :       4337. kBytes
   one-center:        342. kBytes
   wavefun   :     115014. kBytes
 
  
  
 General timing and accounting informations for this job:
 ========================================================
  
                  Total CPU time used (sec):     2955.550
                            User time (sec):     2729.475
                          System time (sec):      226.075
                         Elapsed time (sec):     2971.838
  
                   Maximum memory used (kb):      737504.
                   Average memory used (kb):           0.
  
                          Minor page faults:        69697
                          Major page faults:           72
                 Voluntary context switches:          615
