 vasp.5.4.4.18Apr17-6-g9f103f2a35 (build Nov 22 2021 14:44:17) complex          
  
 executed on             LinuxIFC date 2022.08.08  12:02:33
 running on   64 total cores
 distrk:  each k-point on   64 cores,    1 groups
 distr:  one band on NCORES_PER_BAND=   4 cores,   16 groups


--------------------------------------------------------------------------------------------------------


 INCAR:
 POTCAR:    PAW_PBE Li 17Jan2003                  
 POTCAR:    PAW_PBE Co 02Aug2007                  
 POTCAR:    PAW_PBE O 08Apr2002                   
 POTCAR:    PAW_PBE Li 17Jan2003                  
   VRHFIN =Li: s1p0                                                             
   LEXCH  = PE                                                                  
   EATOM  =     5.3001 eV,    0.3895 Ry                                         
                                                                                
   TITEL  = PAW_PBE Li 17Jan2003                                                
   LULTRA =        F    use ultrasoft PP ?                                      
   IUNSCR =        1    unscreen: 0-lin 1-nonlin 2-no                           
   RPACOR =    1.500    partial core radius                                     
   POMASS =    7.010; ZVAL   =    1.000    mass and valenz                      
   RCORE  =    2.050    outmost cutoff radius                                   
   RWIGS  =    2.600; RWIGS  =    1.376    wigner-seitz radius (au A)           
   ENMAX  =  140.000; ENMIN  =  100.000 eV                                      
   ICORE  =        2    local potential                                         
   LCOR   =        T    correct aug charges                                     
   LPAW   =        T    paw PP                                                  
   EAUG   =  331.638                                                            
   DEXC   =    0.000                                                            
   RMAX   =    2.098    core radius for proj-oper                               
   RAUG   =    1.300    factor for augmentation sphere                          
   RDEP   =    2.094    radius for radial grids                                 
   RDEPT  =    1.810    core radius for aug-charge                              
                                                                                
   Atomic configuration                                                         
    4 entries                                                                   
     n  l   j            E        occ.                                          
     1  0  0.50       -51.8549   2.0000                                         
     2  0  0.50        -2.8742   1.0000                                         
     2  1  0.50        -1.3606   0.0000                                         
     3  2  1.50        -1.3606   0.0000                                         
   Description                                                                  
     l       E           TYP  RCUT    TYP  RCUT                                 
     0     -2.8742052     23  2.050                                             
     0     27.2116520     23  2.050                                             
     1     -1.3605826     23  2.050                                             
     2     -1.3605826     23  2.050                                             
  local pseudopotential read in
  partial core-charges read in
  partial kinetic energy density read in
  atomic valenz-charges read in
  non local Contribution for L=           0  read in
    real space projection operators read in
  non local Contribution for L=           0  read in
    real space projection operators read in
  non local Contribution for L=           1  read in
    real space projection operators read in
    PAW grid and wavefunctions read in
 
   number of l-projection  operators is LMAX  =           3
   number of lm-projection operators is LMMAX =           5
 
 POTCAR:    PAW_PBE Co 02Aug2007                  
   VRHFIN =Co: d8 s1                                                            
   LEXCH  = PE                                                                  
   EATOM  =   813.3670 eV,   59.7808 Ry                                         
                                                                                
   TITEL  = PAW_PBE Co 02Aug2007                                                
   LULTRA =        F    use ultrasoft PP ?                                      
   IUNSCR =        1    unscreen: 0-lin 1-nonlin 2-no                           
   RPACOR =    2.000    partial core radius                                     
   POMASS =   58.933; ZVAL   =    9.000    mass and valenz                      
   RCORE  =    2.300    outmost cutoff radius                                   
   RWIGS  =    2.460; RWIGS  =    1.302    wigner-seitz radius (au A)           
   ENMAX  =  267.968; ENMIN  =  200.976 eV                                      
   RCLOC  =    1.203    cutoff for local pot                                    
   LCOR   =        T    correct aug charges                                     
   LPAW   =        T    paw PP                                                  
   EAUG   =  477.818                                                            
   DEXC   =    0.000                                                            
   RMAX   =    2.360    core radius for proj-oper                               
   RAUG   =    1.300    factor for augmentation sphere                          
   RDEP   =    2.393    radius for radial grids                                 
   RDEPT  =    1.864    core radius for aug-charge                              
                                                                                
   Atomic configuration                                                         
    9 entries                                                                   
     n  l   j            E        occ.                                          
     1  0  0.50     -7587.6674   2.0000                                         
     2  0  0.50      -893.6084   2.0000                                         
     2  1  1.50      -764.5805   6.0000                                         
     3  0  0.50       -97.5973   2.0000                                         
     3  1  1.50       -60.9648   6.0000                                         
     3  2  2.50        -4.2382   8.0000                                         
     4  0  0.50        -4.3746   1.0000                                         
     4  1  1.50        -4.0817   0.0000                                         
     4  3  2.50        -1.3606   0.0000                                         
   Description                                                                  
     l       E           TYP  RCUT    TYP  RCUT                                 
     2     -4.2382362     23  2.300                                             
     2     -5.5988188     23  2.300                                             
     0     -4.3745797     23  2.300                                             
     0      5.7660125     23  2.300                                             
     1     -2.7211652     23  2.300                                             
     1     16.9860234     23  2.300                                             
  local pseudopotential read in
  partial core-charges read in
  partial kinetic energy density read in
  atomic valenz-charges read in
  non local Contribution for L=           2  read in
    real space projection operators read in
  non local Contribution for L=           2  read in
    real space projection operators read in
  non local Contribution for L=           0  read in
    real space projection operators read in
  non local Contribution for L=           0  read in
    real space projection operators read in
  non local Contribution for L=           1  read in
    real space projection operators read in
  non local Contribution for L=           1  read in
    real space projection operators read in
    PAW grid and wavefunctions read in
 
   number of l-projection  operators is LMAX  =           6
   number of lm-projection operators is LMMAX =          18
 
 POTCAR:    PAW_PBE O 08Apr2002                   
   VRHFIN =O: s2p4                                                              
   LEXCH  = PE                                                                  
   EATOM  =   432.3788 eV,   31.7789 Ry                                         
                                                                                
   TITEL  = PAW_PBE O 08Apr2002                                                 
   LULTRA =        F    use ultrasoft PP ?                                      
   IUNSCR =        1    unscreen: 0-lin 1-nonlin 2-no                           
   RPACOR =    1.200    partial core radius                                     
   POMASS =   16.000; ZVAL   =    6.000    mass and valenz                      
   RCORE  =    1.520    outmost cutoff radius                                   
   RWIGS  =    1.550; RWIGS  =    0.820    wigner-seitz radius (au A)           
   ENMAX  =  400.000; ENMIN  =  300.000 eV                                      
   ICORE  =        2    local potential                                         
   LCOR   =        T    correct aug charges                                     
   LPAW   =        T    paw PP                                                  
   EAUG   =  605.392                                                            
   DEXC   =    0.000                                                            
   RMAX   =    1.553    core radius for proj-oper                               
   RAUG   =    1.300    factor for augmentation sphere                          
   RDEP   =    1.550    radius for radial grids                                 
   RDEPT  =    1.329    core radius for aug-charge                              
                                                                                
   Atomic configuration                                                         
    4 entries                                                                   
     n  l   j            E        occ.                                          
     1  0  0.50      -514.6923   2.0000                                         
     2  0  0.50       -23.9615   2.0000                                         
     2  1  0.50        -9.0305   4.0000                                         
     3  2  1.50        -9.5241   0.0000                                         
   Description                                                                  
     l       E           TYP  RCUT    TYP  RCUT                                 
     0    -23.9615318     23  1.200                                             
     0     -9.5240782     23  1.200                                             
     1     -9.0304911     23  1.520                                             
     1      8.1634956     23  1.520                                             
     2     -9.5240782      7  1.500                                             
  local pseudopotential read in
  partial core-charges read in
  partial kinetic energy density read in
  kinetic energy density of atom read in
  atomic valenz-charges read in
  non local Contribution for L=           0  read in
    real space projection operators read in
  non local Contribution for L=           0  read in
    real space projection operators read in
  non local Contribution for L=           1  read in
    real space projection operators read in
  non local Contribution for L=           1  read in
    real space projection operators read in
    PAW grid and wavefunctions read in
 
   number of l-projection  operators is LMAX  =           4
   number of lm-projection operators is LMMAX =           8
 
 Optimization of the real space projectors (new method)

 maximal supplied QI-value         = 18.33
 optimisation between [QCUT,QGAM] = [ 12.46, 24.93] = [ 43.51,174.03] Ry 
 Optimized for a Real-space Cutoff    1.13 Angstroem

   l    n(q)    QCUT    max X(q) W(low)/X(q) W(high)/X(q)  e(spline) 
   0      8    12.465    33.825    0.12E-03    0.29E-03    0.99E-07
   0      8    12.465     8.944    0.86E-04    0.22E-03    0.72E-07
   1      8    12.465     4.214    0.27E-03    0.11E-03    0.82E-07
 Optimization of the real space projectors (new method)

 maximal supplied QI-value         = 16.25
 optimisation between [QCUT,QGAM] = [ 12.51, 25.03] = [ 43.85,175.40] Ry 
 Optimized for a Real-space Cutoff    1.31 Angstroem

   l    n(q)    QCUT    max X(q) W(low)/X(q) W(high)/X(q)  e(spline) 
   2      9    12.514    65.824    0.30E-03    0.46E-03    0.43E-06
   2      9    12.514    61.429    0.31E-03    0.46E-03    0.44E-06
   0     10    12.514    56.174    0.90E-04    0.33E-03    0.30E-06
   0     10    12.514    31.263    0.81E-04    0.30E-03    0.28E-06
   1      9    12.514    19.828    0.38E-03    0.65E-04    0.24E-06
   1      9    12.514    15.139    0.32E-03    0.60E-04    0.20E-06
 Optimization of the real space projectors (new method)

 maximal supplied QI-value         = 24.76
 optimisation between [QCUT,QGAM] = [ 12.38, 25.00] = [ 42.90,175.06] Ry 
 Optimized for a Real-space Cutoff    1.13 Angstroem

   l    n(q)    QCUT    max X(q) W(low)/X(q) W(high)/X(q)  e(spline) 
   0      8    12.378    20.381    0.16E-03    0.54E-05    0.27E-06
   0      8    12.378    15.268    0.17E-03    0.61E-05    0.29E-06
   1      8    12.378     5.964    0.38E-03    0.23E-03    0.28E-06
   1      8    12.378     5.382    0.33E-03    0.20E-03    0.25E-06
  PAW_PBE Li 17Jan2003                  :
 energy of atom  1       EATOM=   -5.3001
 kinetic energy error for atom=    0.0000 (will be added to EATOM!!)
  PAW_PBE Co 02Aug2007                  :
 energy of atom  2       EATOM= -813.3670
 kinetic energy error for atom=    0.0018 (will be added to EATOM!!)
  PAW_PBE O 08Apr2002                   :
 energy of atom  3       EATOM= -432.3788
 kinetic energy error for atom=    0.0168 (will be added to EATOM!!)
 
 
 POSCAR: Li6 Co12 O24                            
  positions in cartesian coordinates
  No initial velocities read in
 exchange correlation table for  LEXCH =        8
   RHO(1)=    0.500       N(1)  =     2000
   RHO(2)=  100.500       N(2)  =     4000
 


--------------------------------------------------------------------------------------------------------


 ion  position               nearest neighbor table
   1  0.525  0.786  0.008-  24 1.88  38 1.94  25 2.04  10 2.26  26 2.35  36 2.40  35 2.48  16 2.53

   2  0.788  0.634  0.335-  33 2.07  22 2.12  32 2.20  34 2.20  19 2.22  20 2.38  12 2.82  10 2.82
                            14 2.87   9 2.89  11 2.94   8 2.97
   3  0.184  0.320  0.672-  39 1.94  27 2.00  42 2.09  29 2.13  40 2.14  28 2.27   4 2.56   6 2.66
                            15 2.74  11 2.76  16 2.83  17 2.84   5 2.88   5 2.88  12 2.98  14 2.99
   4  0.205  0.877  0.667-  30 1.93  39 2.03  27 2.04  41 2.16  28 2.17  40 2.21   3 2.56   5 2.60
                             6 2.75  15 2.76  11 2.77  12 2.83  16 2.88  18 2.90  13 2.90   6 3.02
   5  0.681  0.312  0.680-  41 1.87  40 2.06  42 2.11  27 2.15  29 2.19  30 2.35   4 2.60  17 2.64
                            15 2.68   6 2.69  13 2.88   3 2.88   3 2.88  18 2.88   6 2.96  14 3.09
   6  0.720  0.855  0.679-  42 1.97  39 2.02  41 2.09  30 2.11  29 2.16  28 2.37  18 2.65   3 2.66
                             5 2.69   4 2.75  17 2.75  16 2.85  11 2.93  14 2.96   5 2.96   4 3.02
   7  0.110  0.292  0.161-  20 1.79  23 1.85  25 1.92  19 1.94  22 1.94  24 1.97   8 2.78  10 2.82
                             8 2.86   9 2.87   9 2.89  10 2.89
   8  0.090  0.789  0.162-  26 1.80  19 1.82  23 1.84  24 1.88  21 2.04  20 2.06   7 2.78  10 2.78
                             9 2.85   9 2.86   7 2.86   2 2.97  10 2.97
   9  0.602  0.279  0.165-  21 1.82  23 1.82  25 1.83  22 1.88  20 1.90  26 1.92  10 2.79  10 2.85
                             8 2.85   8 2.86   7 2.87   7 2.89   2 2.89
  10  0.606  0.786  0.167-  22 1.75  19 1.84  21 1.89  26 1.90  25 1.91  24 1.97   1 2.26   8 2.78
                             9 2.79   7 2.82   2 2.82   9 2.85   7 2.89   8 2.97
  11  0.997  0.006  0.504-  29 1.85  32 1.89  34 1.91  27 1.93  30 1.94  31 1.95  12 2.75   3 2.76
                             4 2.77  14 2.84  13 2.85  14 2.87  12 2.89  13 2.90   6 2.93   2 2.94
  12  0.006  0.522  0.503-  28 1.81  31 1.82  32 1.83  30 1.90  33 1.96  29 2.07  11 2.75   2 2.82
                            13 2.83   4 2.83  14 2.86  13 2.88  11 2.89  14 2.90   3 2.98   5 3.10
  13  0.504  0.013  0.499-  33 1.84  34 1.89  29 1.90  32 1.93  28 2.01  27 2.04  14 2.81  12 2.83
                            14 2.83  11 2.85   5 2.88  12 2.88   4 2.90  11 2.90   6 3.07
  14  0.497  0.511  0.501-  28 1.91  27 1.92  31 1.92  33 1.96  34 2.04  30 2.15  13 2.81  13 2.83
                            11 2.84  12 2.86   2 2.87  11 2.87  12 2.90   6 2.96   3 2.99   5 3.09
  15  0.398  0.202  0.832-  39 1.84  35 1.85  37 1.86  36 1.91  41 1.93  42 1.97   5 2.68   3 2.74
                             4 2.76  18 2.79  16 2.81  17 2.82  16 2.83  18 2.92  17 2.94
  16  0.382  0.692  0.832-  35 1.80  38 1.87  36 1.89  40 1.90  41 1.94  42 1.94   1 2.53  17 2.79
                            15 2.81  18 2.81   3 2.83  15 2.83   6 2.85   4 2.88  17 2.92  18 2.94
  17  0.891  0.208  0.836-  38 1.83  41 1.86  40 1.92  35 1.97  37 2.00  39 2.04   5 2.64   6 2.75
                            16 2.79  18 2.81  15 2.82  18 2.83   3 2.84  16 2.92  15 2.94
  18  0.906  0.717  0.834-  36 1.82  39 1.88  37 1.89  38 1.96  40 1.97  42 2.02   6 2.65  15 2.79
                            17 2.81  16 2.81  17 2.83   5 2.88   4 2.90  15 2.92  16 2.94
  19  0.946  0.955  0.228-   8 1.82  10 1.84   7 1.94   2 2.22
  20  0.949  0.426  0.231-   7 1.79   9 1.90   8 2.06   2 2.38
  21  0.464  0.971  0.233-   9 1.82  10 1.89   8 2.04
  22  0.470  0.478  0.226-  10 1.75   9 1.88   7 1.94   2 2.12
  23  0.266  0.117  0.104-   9 1.82   8 1.84   7 1.85
  24  0.255  0.636  0.093-   1 1.88   8 1.88  10 1.97   7 1.97
  25  0.753  0.116  0.100-   9 1.83  10 1.91   7 1.92   1 2.04
  26  0.762  0.615  0.100-   8 1.80  10 1.90   9 1.92   1 2.35
  27  0.343  0.193  0.577-  14 1.92  11 1.93   3 2.00   4 2.04  13 2.04   5 2.15
  28  0.329  0.668  0.571-  12 1.81  14 1.91  13 2.01   4 2.17   3 2.27   6 2.37
  29  0.839  0.160  0.573-  11 1.85  13 1.90  12 2.07   3 2.13   6 2.16   5 2.19
  30  0.879  0.693  0.584-  12 1.90   4 1.93  11 1.94   6 2.11  14 2.15   5 2.35
  31  0.142  0.347  0.437-  12 1.82  14 1.92  11 1.95
  32  0.148  0.835  0.435-  12 1.83  11 1.89  13 1.93   2 2.20
  33  0.651  0.328  0.432-  13 1.84  14 1.96  12 1.96   2 2.07
  34  0.665  0.860  0.427-  13 1.89  11 1.91  14 2.04   2 2.20
  35  0.261  0.384  0.897-  16 1.80  15 1.85  17 1.97   1 2.48
  36  0.236  0.871  0.899-  18 1.82  16 1.89  15 1.91   1 2.40
  37  0.728  0.395  0.903-  15 1.86  18 1.89  17 2.00
  38  0.725  0.885  0.896-  17 1.83  16 1.87   1 1.94  18 1.96
  39  0.068  0.034  0.764-  15 1.84  18 1.88   3 1.94   6 2.02   4 2.03  17 2.04
  40  0.044  0.524  0.760-  16 1.90  17 1.92  18 1.97   5 2.06   3 2.14   4 2.21
  41  0.560  0.030  0.765-  17 1.86   5 1.87  15 1.93  16 1.94   6 2.09   4 2.16
  42  0.545  0.533  0.757-  16 1.94   6 1.97  15 1.97  18 2.02   3 2.09   5 2.11
 

IMPORTANT INFORMATION: All symmetrisations will be switched off!
NOSYMM: (Re-)initialisation of all symmetry stuff for point group C_1.

 
 

Automatic generation of k-mesh.
 generate k-points for:    6    6    2
Space group operators:
 irot       det(A)        alpha          n_x          n_y          n_z        tau_x        tau_y        tau_z
    1     1.000000     0.000001     1.000000     0.000000     0.000000     0.000000     0.000000     0.000000
 
 Subroutine IBZKPT returns following result:
 ===========================================
 
 Found     36 irreducible k-points:
 
 Following reciprocal coordinates:
            Coordinates               Weight
  0.083333  0.083333  0.250000      2.000000
  0.250000  0.083333  0.250000      2.000000
  0.416667  0.083333  0.250000      2.000000
 -0.416667  0.083333  0.250000      2.000000
 -0.250000  0.083333  0.250000      2.000000
 -0.083333  0.083333  0.250000      2.000000
  0.083333  0.250000  0.250000      2.000000
  0.250000  0.250000  0.250000      2.000000
  0.416667  0.250000  0.250000      2.000000
 -0.416667  0.250000  0.250000      2.000000
 -0.250000  0.250000  0.250000      2.000000
 -0.083333  0.250000  0.250000      2.000000
  0.083333  0.416667  0.250000      2.000000
  0.250000  0.416667  0.250000      2.000000
  0.416667  0.416667  0.250000      2.000000
 -0.416667  0.416667  0.250000      2.000000
 -0.250000  0.416667  0.250000      2.000000
 -0.083333  0.416667  0.250000      2.000000
  0.083333 -0.416667  0.250000      2.000000
  0.250000 -0.416667  0.250000      2.000000
  0.416667 -0.416667  0.250000      2.000000
 -0.416667 -0.416667  0.250000      2.000000
 -0.250000 -0.416667  0.250000      2.000000
 -0.083333 -0.416667  0.250000      2.000000
  0.083333 -0.250000  0.250000      2.000000
  0.250000 -0.250000  0.250000      2.000000
  0.416667 -0.250000  0.250000      2.000000
 -0.416667 -0.250000  0.250000      2.000000
 -0.250000 -0.250000  0.250000      2.000000
 -0.083333 -0.250000  0.250000      2.000000
  0.083333 -0.083333  0.250000      2.000000
  0.250000 -0.083333  0.250000      2.000000
  0.416667 -0.083333  0.250000      2.000000
 -0.416667 -0.083333  0.250000      2.000000
 -0.250000 -0.083333  0.250000      2.000000
 -0.083333 -0.083333  0.250000      2.000000
 
 Following cartesian coordinates:
            Coordinates               Weight
  0.014485  0.025357  0.019889      2.000000
  0.043455  0.041998  0.022676      2.000000
  0.072425  0.058638  0.025463      2.000000
 -0.072425 -0.024563  0.011529      2.000000
 -0.043455 -0.007923  0.014316      2.000000
 -0.014485  0.008717  0.017103      2.000000
  0.014485  0.059432  0.021338      2.000000
  0.043455  0.076072  0.024125      2.000000
  0.072425  0.092713  0.026912      2.000000
 -0.072425  0.009512  0.012977      2.000000
 -0.043455  0.026152  0.015764      2.000000
 -0.014485  0.042792  0.018551      2.000000
  0.014485  0.093507  0.022786      2.000000
  0.043455  0.110147  0.025573      2.000000
  0.072425  0.126787  0.028360      2.000000
 -0.072425  0.043587  0.014426      2.000000
 -0.043455  0.060227  0.017213      2.000000
 -0.014485  0.076867  0.020000      2.000000
  0.014485 -0.076867  0.015544      2.000000
  0.043455 -0.060227  0.018331      2.000000
  0.072425 -0.043587  0.021117      2.000000
 -0.072425 -0.126787  0.007183      2.000000
 -0.043455 -0.110147  0.009970      2.000000
 -0.014485 -0.093507  0.012757      2.000000
  0.014485 -0.042792  0.016992      2.000000
  0.043455 -0.026152  0.019779      2.000000
  0.072425 -0.009512  0.022566      2.000000
 -0.072425 -0.092713  0.008632      2.000000
 -0.043455 -0.076072  0.011419      2.000000
 -0.014485 -0.059432  0.014205      2.000000
  0.014485 -0.008717  0.018441      2.000000
  0.043455  0.007923  0.021228      2.000000
  0.072425  0.024563  0.024015      2.000000
 -0.072425 -0.058638  0.010080      2.000000
 -0.043455 -0.041998  0.012867      2.000000
 -0.014485 -0.025357  0.015654      2.000000
 


--------------------------------------------------------------------------------------------------------




 Dimension of arrays:
   k-points           NKPTS =     36   k-points in BZ     NKDIM =     36   number of bands    NBANDS=    160
   number of dos      NEDOS =    301   number of ions     NIONS =     42
   non local maximal  LDIM  =      6   non local SUM 2l+1 LMDIM =     18
   total plane-waves  NPLWV = 116640
   max r-space proj   IRMAX =   2804   max aug-charges    IRDMAX=  11819
   dimension x,y,z NGX =    36 NGY =   36 NGZ =   90
   dimension x,y,z NGXF=    72 NGYF=   72 NGZF=  180
   support grid    NGXF=    72 NGYF=   72 NGZF=  180
   ions per type =               6  12  24
   NGX,Y,Z   is equivalent  to a cutoff of  10.40, 10.61, 10.60 a.u.
   NGXF,Y,Z  is equivalent  to a cutoff of  20.81, 21.22, 21.20 a.u.

 SYSTEM =  LiCoO2                                  
 POSCAR =  Li6 Co12 O24                            

 Startparameter for this run:
   NWRITE =      2    write-flag & timer
   PREC   = normal    normal or accurate (medium, high low for compatibility)
   ISTART =      0    job   : 0-new  1-cont  2-samecut
   ICHARG =      2    charge: 1-file 2-atom 10-const
   ISPIN  =      2    spin polarized calculation?
   LNONCOLLINEAR =      F non collinear calculations
   LSORBIT =      F    spin-orbit coupling
   INIWAV =      1    electr: 0-lowe 1-rand  2-diag
   LASPH  =      F    aspherical Exc in radial PAW
   METAGGA=      F    non-selfconsistent MetaGGA calc.

 Electronic Relaxation 1
   ENCUT  =  600.0 eV  44.10 Ry    6.64 a.u.  11.49 11.27 28.19*2*pi/ulx,y,z
   ENINI  =  600.0     initial cutoff
   ENAUG  =  605.4 eV  augmentation charge cutoff
   NELM   =    600;   NELMIN=  2; NELMDL= -5     # of ELM steps 
   EDIFF  = 0.1E-05   stopping-criterion for ELM
   LREAL  =      T    real-space projection
   NLSPLINE    = F    spline interpolate recip. space projectors
   LCOMPAT=      F    compatible to vasp.4.4
   GGA_COMPAT  = T    GGA compatible to vasp.4.4-vasp.4.6
   LMAXPAW     = -100 max onsite density
   LMAXMIX     =    2 max onsite mixed and CHGCAR
   VOSKOWN=      0    Vosko Wilk Nusair interpolation
   ROPT   =   -0.00050  -0.00050  -0.00050
 Ionic relaxation
   EDIFFG = 0.1E-04   stopping-criterion for IOM
   NSW    =      0    number of steps for IOM
   NBLOCK =      1;   KBLOCK =      1    inner block; outer block 
   IBRION =     -1    ionic relax: 0-MD 1-quasi-New 2-CG
   NFREE  =      0    steps in history (QN), initial steepest desc. (CG)
   ISIF   =      2    stress and relaxation
   IWAVPR =     10    prediction:  0-non 1-charg 2-wave 3-comb
   ISYM   =      0    0-nonsym 1-usesym 2-fastsym
   LCORR  =      T    Harris-Foulkes like correction to forces

   POTIM  = 0.5000    time-step for ionic-motion
   TEIN   =    0.0    initial temperature
   TEBEG  =    0.0;   TEEND  =   0.0 temperature during run
   SMASS  =  -3.00    Nose mass-parameter (am)
   estimated Nose-frequenzy (Omega)   =  0.10E-29 period in steps =****** mass=  -0.756E-27a.u.
   SCALEE = 1.0000    scale energy and forces
   NPACO  =    256;   APACO  = 16.0  distance and # of slots for P.C.
   PSTRESS=    0.0 pullay stress

  Mass of Ions in am
   POMASS =   7.01 58.93 16.00
  Ionic Valenz
   ZVAL   =   1.00  9.00  6.00
  Atomic Wigner-Seitz radii
   RWIGS  =  -1.00 -1.00 -1.00
  virtual crystal weights 
   VCA    =   1.00  1.00  1.00
   NELECT =     258.0000    total number of electrons
   NUPDOWN=       6.0000    fix difference up-down

 DOS related values:
   EMIN   =  10.00;   EMAX   =-10.00  energy-range for DOS
   EFERMI =   0.00
   ISMEAR =     0;   SIGMA  =   0.05  broadening in eV -4-tet -1-fermi 0-gaus

 Electronic relaxation 2 (details)
   IALGO  =     58    algorithm
   LDIAG  =      T    sub-space diagonalisation (order eigenvalues)
   LSUBROT=      F    optimize rotation matrix (better conditioning)
   TURBO    =      0    0=normal 1=particle mesh
   IRESTART =      0    0=no restart 2=restart with 2 vectors
   NREBOOT  =      0    no. of reboots
   NMIN     =      0    reboot dimension
   EREF     =   0.00    reference energy to select bands
   IMIX   =      4    mixing-type and parameters
     AMIX     =   0.40;   BMIX     =  1.00
     AMIX_MAG =   1.60;   BMIX_MAG =  1.00
     AMIN     =   0.10
     WC   =   100.;   INIMIX=   1;  MIXPRE=   1;  MAXMIX= -45

 Intra band minimization:
   WEIMIN = 0.0000     energy-eigenvalue tresh-hold
   EBREAK =  0.16E-08  absolut break condition
   DEPER  =   0.30     relativ break condition  

   TIME   =   0.40     timestep for ELM

  volume/ion in A,a.u.               =       9.42        63.60
  Fermi-wavevector in a.u.,A,eV,Ry     =   1.419401  2.682279 27.411650  2.014699
  Thomas-Fermi vector in A             =   2.540425
 
 Write flags
   LWAVE        =      F    write WAVECAR
   LDOWNSAMPLE  =      F    k-point downsampling of WAVECAR
   LCHARG       =      F    write CHGCAR
   LVTOT        =      F    write LOCPOT, total local potential
   LVHAR        =      F    write LOCPOT, Hartree potential only
   LELF         =      F    write electronic localiz. function (ELF)
   LORBIT       =     11    0 simple, 1 ext, 2 COOP (PROOUT), +10 PAW based schemes


 Dipole corrections
   LMONO  =      F    monopole corrections only (constant potential shift)
   LDIPOL =      F    correct potential (dipole corrections)
   IDIPOL =      0    1-x, 2-y, 3-z, 4-all directions 
   EPSILON=  1.0000000 bulk dielectric constant

 LDA+U is selected, type is set to LDAUTYPE =  2
   angular momentum for each species LDAUL =    -1    2   -1
   U (eV)           for each species LDAUU =   0.0  5.1  0.0
   J (eV)           for each species LDAUJ =   0.0  0.0  0.0
 Exchange correlation treatment:
   GGA     =    --    GGA type
   LEXCH   =     8    internal setting for exchange type
   VOSKOWN=      0    Vosko Wilk Nusair interpolation
   LHFCALC =     F    Hartree Fock is set to
   LHFONE  =     F    Hartree Fock one center treatment
   AEXX    =    0.0000 exact exchange contribution

 Linear response parameters
   LEPSILON=     F    determine dielectric tensor
   LRPA    =     F    only Hartree local field effects (RPA)
   LNABLA  =     F    use nabla operator in PAW spheres
   LVEL    =     F    velocity operator in full k-point grid
   LINTERFAST=   F  fast interpolation
   KINTER  =     0    interpolate to denser k-point grid
   CSHIFT  =0.1000    complex shift for real part using Kramers Kronig
   OMEGAMAX=  -1.0    maximum frequency
   DEG_THRESHOLD= 0.2000000E-02 threshold for treating states as degnerate
   RTIME   =   -0.100 relaxation time in fs
  (WPLASMAI=    0.000 imaginary part of plasma frequency in eV, 0.658/RTIME)
   DFIELD  = 0.0000000 0.0000000 0.0000000 field for delta impulse in time
 
 Orbital magnetization related:
   ORBITALMAG=     F  switch on orbital magnetization
   LCHIMAG   =     F  perturbation theory with respect to B field
   DQ        =  0.001000  dq finite difference perturbation B field
   LLRAUG    =     F  two centre corrections for induced B field



--------------------------------------------------------------------------------------------------------


 Static calculation
 charge density and potential will be updated during run
 spin polarized calculation
 Conjugate gradient for all bands (Freysoldt, et al. PRB 79, 241103 (2009))
 preconditioned conjugated gradient                                        
 perform sub-space diagonalisation
    before iterative eigenvector-optimisation
 modified Broyden-mixing scheme, WC =      100.0
 initial mixing is a Kerker type mixing with AMIX =  0.4000 and BMIX =      1.0000
 Hartree-type preconditioning will be used
 using additional bands           31
 real space projection scheme for non local part
 use partial core corrections
 no Harris-corrections to forces 
 use gradient corrections 
 use of overlap-Matrix (Vanderbilt PP)
 Gauss-broadening in eV      SIGMA  =   0.05


--------------------------------------------------------------------------------------------------------


  energy-cutoff  :      600.00
  volume of cell :      395.85
      direct lattice vectors                 reciprocal lattice vectors
     5.753090382  0.000000000  0.000000000     0.173819623  0.099841021  0.016721105
    -2.809480190  4.891203880  0.000000000     0.000000000  0.204448644  0.008691137
    -1.009759665 -0.598004162 14.067335129     0.000000000  0.000000000  0.071086669

  length of vectors
     5.753090382  5.640660807 14.116201372     0.201149412  0.204633291  0.071086669


 
 k-points in units of 2pi/SCALE and weight: read from INCAR                         
   0.01448497  0.02535747  0.01988935       0.028
   0.04345491  0.04199764  0.02267621       0.028
   0.07242484  0.05863781  0.02546306       0.028
  -0.07242484 -0.02456304  0.01152880       0.028
  -0.04345491 -0.00792287  0.01431565       0.028
  -0.01448497  0.00871730  0.01710250       0.028
   0.01448497  0.05943225  0.02133788       0.028
   0.04345491  0.07607242  0.02412473       0.028
   0.07242484  0.09271259  0.02691158       0.028
  -0.07242484  0.00951174  0.01297732       0.028
  -0.04345491  0.02615191  0.01576418       0.028
  -0.01448497  0.04279208  0.01855103       0.028
   0.01448497  0.09350702  0.02278640       0.028
   0.04345491  0.11014719  0.02557325       0.028
   0.07242484  0.12678736  0.02836010       0.028
  -0.07242484  0.04358651  0.01442585       0.028
  -0.04345491  0.06022668  0.01721270       0.028
  -0.01448497  0.07686685  0.01999955       0.028
   0.01448497 -0.07686685  0.01554379       0.028
   0.04345491 -0.06022668  0.01833064       0.028
   0.07242484 -0.04358651  0.02111749       0.028
  -0.07242484 -0.12678736  0.00718323       0.028
  -0.04345491 -0.11014719  0.00997008       0.028
  -0.01448497 -0.09350702  0.01275693       0.028
   0.01448497 -0.04279208  0.01699231       0.028
   0.04345491 -0.02615191  0.01977916       0.028
   0.07242484 -0.00951174  0.02256601       0.028
  -0.07242484 -0.09271259  0.00863176       0.028
  -0.04345491 -0.07607242  0.01141861       0.028
  -0.01448497 -0.05943225  0.01420546       0.028
   0.01448497 -0.00871730  0.01844083       0.028
   0.04345491  0.00792287  0.02122768       0.028
   0.07242484  0.02456304  0.02401453       0.028
  -0.07242484 -0.05863781  0.01008028       0.028
  -0.04345491 -0.04199764  0.01286713       0.028
  -0.01448497 -0.02535747  0.01565398       0.028
 
 k-points in reciprocal lattice and weights: read from INCAR                         
   0.08333333  0.08333333  0.25000000       0.028
   0.25000000  0.08333333  0.25000000       0.028
   0.41666667  0.08333333  0.25000000       0.028
  -0.41666667  0.08333333  0.25000000       0.028
  -0.25000000  0.08333333  0.25000000       0.028
  -0.08333333  0.08333333  0.25000000       0.028
   0.08333333  0.25000000  0.25000000       0.028
   0.25000000  0.25000000  0.25000000       0.028
   0.41666667  0.25000000  0.25000000       0.028
  -0.41666667  0.25000000  0.25000000       0.028
  -0.25000000  0.25000000  0.25000000       0.028
  -0.08333333  0.25000000  0.25000000       0.028
   0.08333333  0.41666667  0.25000000       0.028
   0.25000000  0.41666667  0.25000000       0.028
   0.41666667  0.41666667  0.25000000       0.028
  -0.41666667  0.41666667  0.25000000       0.028
  -0.25000000  0.41666667  0.25000000       0.028
  -0.08333333  0.41666667  0.25000000       0.028
   0.08333333 -0.41666667  0.25000000       0.028
   0.25000000 -0.41666667  0.25000000       0.028
   0.41666667 -0.41666667  0.25000000       0.028
  -0.41666667 -0.41666667  0.25000000       0.028
  -0.25000000 -0.41666667  0.25000000       0.028
  -0.08333333 -0.41666667  0.25000000       0.028
   0.08333333 -0.25000000  0.25000000       0.028
   0.25000000 -0.25000000  0.25000000       0.028
   0.41666667 -0.25000000  0.25000000       0.028
  -0.41666667 -0.25000000  0.25000000       0.028
  -0.25000000 -0.25000000  0.25000000       0.028
  -0.08333333 -0.25000000  0.25000000       0.028
   0.08333333 -0.08333333  0.25000000       0.028
   0.25000000 -0.08333333  0.25000000       0.028
   0.41666667 -0.08333333  0.25000000       0.028
  -0.41666667 -0.08333333  0.25000000       0.028
  -0.25000000 -0.08333333  0.25000000       0.028
  -0.08333333 -0.08333333  0.25000000       0.028
 
 position of ions in fractional coordinates (direct lattice) 
   0.52486573  0.78643375  0.00792261
   0.78786380  0.63362369  0.33475140
   0.18435552  0.32000638  0.67233061
   0.20541811  0.87742925  0.66686049
   0.68133094  0.31155910  0.67967597
   0.71999534  0.85479522  0.67923884
   0.11018498  0.29235936  0.16130205
   0.09045880  0.78934888  0.16228376
   0.60218495  0.27896987  0.16506325
   0.60582530  0.78588338  0.16718234
   0.99749505  0.00635446  0.50446298
   0.00605764  0.52245968  0.50273347
   0.50437848  0.01307594  0.49925590
   0.49714119  0.51128317  0.50138495
   0.39783720  0.20190994  0.83245690
   0.38203094  0.69170206  0.83209434
   0.89124623  0.20812691  0.83598277
   0.90589163  0.71676762  0.83431939
   0.94570323  0.95484448  0.22834105
   0.94912521  0.42570637  0.23067837
   0.46378599  0.97098129  0.23261976
   0.46952664  0.47772317  0.22592055
   0.26557473  0.11705997  0.10373536
   0.25516445  0.63613011  0.09291241
   0.75280139  0.11609409  0.09964787
   0.76162943  0.61507618  0.10012131
   0.34335349  0.19316410  0.57679366
   0.32939037  0.66809978  0.57103637
   0.83934221  0.15989127  0.57279005
   0.87870320  0.69305829  0.58407510
   0.14207800  0.34691897  0.43735718
   0.14761913  0.83506599  0.43517766
   0.65070959  0.32790152  0.43199228
   0.66522561  0.85969358  0.42718182
   0.26068047  0.38397031  0.89709600
   0.23649586  0.87056885  0.89892290
   0.72791941  0.39505304  0.90281133
   0.72544037  0.88539133  0.89602967
   0.06754167  0.03399673  0.76381561
   0.04382395  0.52434103  0.75979206
   0.55961913  0.02959505  0.76547194
   0.54539598  0.53296741  0.75733963
 
 position of ions in cartesian coordinates  (Angst):
   0.80212998  3.84187007  0.11145000
   2.41447997  2.89899993  4.70906019
  -0.51732999  1.16315997  9.45790005
  -1.95669997  3.89289999  9.38094997
   2.35812998  1.11745000  9.56122971
   1.05480003  3.77479005  9.55508041
  -0.35034999  1.33352995  2.26908994
  -1.86110997  3.76381993  2.28290009
   2.51398993  1.26578999  2.32200003
   1.10862994  3.74394011  2.35180998
   5.21144009 -0.27059001  7.09644985
  -1.94062996  2.25482011  7.07212019
   2.36086988 -0.23459999  7.02320004
   0.91737998  2.20095992  7.05315018
   0.88094997  0.48977000 11.71045017
  -0.58568001  2.88565993 11.70534992
   3.69854999  0.51806998 11.76004982
   2.35546994  3.00693011 11.73665047
   2.52752995  4.53379011  3.21215010
   4.03145981  1.94427001  3.24502993
  -0.29464000  4.61015987  3.27234006
   1.13094997  2.20153999  3.17810011
   1.09424996  0.51052999  1.45928001
  -0.41303000  3.05588007  1.30702996
   3.90415001  0.50825000  1.40178001
   2.55258012  2.94859004  1.40843999
   0.85022998  0.59987998  8.11394978
  -0.55861002  2.92633009  8.03295994
   3.80121994  0.43952999  8.05762959
   2.51834989  3.04061008  8.21638012
  -0.59890002  1.43531001  6.15245008
  -1.93625998  3.82423997  6.12178993
   2.38614988  1.34549999  6.07698011
   0.98045999  3.94948006  6.00930977
  -0.48489001  1.34160995 12.61975002
  -1.99295998  3.72057009 12.64544964
   2.16627002  1.39240003 12.70014954
   0.78126001  3.79480004 12.60474968
  -0.47821000 -0.29047999 10.74485016
  -1.98820996  2.11030006 10.68824959
   2.36345005 -0.31299999 10.76815033
   0.87562001  2.15395999 10.65375042
 


--------------------------------------------------------------------------------------------------------


 k-point  1 :   0.0833 0.0833 0.2500  plane waves:   13230
 k-point  2 :   0.2500 0.0833 0.2500  plane waves:   13201
 k-point  3 :   0.4167 0.0833 0.2500  plane waves:   13170
 k-point  4 :  -0.4167 0.0833 0.2500  plane waves:   13208
 k-point  5 :  -0.2500 0.0833 0.2500  plane waves:   13229
 k-point  6 :  -0.0833 0.0833 0.2500  plane waves:   13231
 k-point  7 :   0.0833 0.2500 0.2500  plane waves:   13216
 k-point  8 :   0.2500 0.2500 0.2500  plane waves:   13200
 k-point  9 :   0.4167 0.2500 0.2500  plane waves:   13185
 k-point 10 :  -0.4167 0.2500 0.2500  plane waves:   13203
 k-point 11 :  -0.2500 0.2500 0.2500  plane waves:   13219
 k-point 12 :  -0.0833 0.2500 0.2500  plane waves:   13215
 k-point 13 :   0.0833 0.4167 0.2500  plane waves:   13224
 k-point 14 :   0.2500 0.4167 0.2500  plane waves:   13206
 k-point 15 :   0.4167 0.4167 0.2500  plane waves:   13202
 k-point 16 :  -0.4167 0.4167 0.2500  plane waves:   13217
 k-point 17 :  -0.2500 0.4167 0.2500  plane waves:   13197
 k-point 18 :  -0.0833 0.4167 0.2500  plane waves:   13205
 k-point 19 :   0.0833-0.4167 0.2500  plane waves:   13220
 k-point 20 :   0.2500-0.4167 0.2500  plane waves:   13198
 k-point 21 :   0.4167-0.4167 0.2500  plane waves:   13208
 k-point 22 :  -0.4167-0.4167 0.2500  plane waves:   13217
 k-point 23 :  -0.2500-0.4167 0.2500  plane waves:   13212
 k-point 24 :  -0.0833-0.4167 0.2500  plane waves:   13222
 k-point 25 :   0.0833-0.2500 0.2500  plane waves:   13221
 k-point 26 :   0.2500-0.2500 0.2500  plane waves:   13226
 k-point 27 :   0.4167-0.2500 0.2500  plane waves:   13207
 k-point 28 :  -0.4167-0.2500 0.2500  plane waves:   13184
 k-point 29 :  -0.2500-0.2500 0.2500  plane waves:   13199
 k-point 30 :  -0.0833-0.2500 0.2500  plane waves:   13200
 k-point 31 :   0.0833-0.0833 0.2500  plane waves:   13236
 k-point 32 :   0.2500-0.0833 0.2500  plane waves:   13239
 k-point 33 :   0.4167-0.0833 0.2500  plane waves:   13183
 k-point 34 :  -0.4167-0.0833 0.2500  plane waves:   13161
 k-point 35 :  -0.2500-0.0833 0.2500  plane waves:   13216
 k-point 36 :  -0.0833-0.0833 0.2500  plane waves:   13230

 maximum and minimum number of plane-waves per node :      3324     3271

 maximum number of plane-waves:     13239
 maximum index in each direction: 
   IXMAX=   11   IYMAX=   11   IZMAX=   27
   IXMIN=  -11   IYMIN=  -11   IZMIN=  -28


 real space projection operators:
  total allocation   :       7485.55 KBytes
  max/ min on nodes  :       1873.49       1869.56


 parallel 3D FFT for wavefunctions:
    minimum data exchange during FFTs selected (reduces bandwidth)
 parallel 3D FFT for charge:
    minimum data exchange during FFTs selected (reduces bandwidth)


 total amount of memory used by VASP MPI-rank0   159841. kBytes
=======================================================================

   base      :      30000. kBytes
   nonlr-proj:       4284. kBytes
   fftplans  :       1687. kBytes
   grid      :       4644. kBytes
   one-center:        342. kBytes
   wavefun   :     118884. kBytes
 
     INWAV:  cpu time    0.0000: real time    0.0003
 Broyden mixing: mesh for mixing (old mesh)
   NGX = 23   NGY = 23   NGZ = 57
  (NGX  = 72   NGY  = 72   NGZ  =180)
  gives a total of  30153 points

 initial charge density was supplied:
 charge density of overlapping atoms calculated
 number of electron     258.0000000 magnetization       6.0000000
 keeping initial charge density in first step


--------------------------------------------------------------------------------------------------------


 Maximum index for non-local projection operator          682
 Maximum index for augmentation-charges         1002 (set IRDMAX)


--------------------------------------------------------------------------------------------------------


 First call to EWALD:  gamma=   0.241
 Maximum number of real-space cells 4x 4x 2
 Maximum number of reciprocal cells 2x 2x 5

    FEWALD:  cpu time    0.0038: real time    0.0038


--------------------------------------- Iteration      1(   1)  ---------------------------------------


    POTLOK:  cpu time    0.0572: real time    0.0689
    SETDIJ:  cpu time    0.0182: real time    0.0183
    TRIAL :  cpu time   24.1018: real time   24.3600
    CORREC:  cpu time    0.0042: real time    0.0042
    --------------------------------------------
      LOOP:  cpu time   24.3768: real time   24.6483

 eigenvalue-minimisations  : 23040
 total energy-change (2. order) : 0.3479068E+04  (-0.1395314E+05)
 number of electron     258.0000000 magnetization       6.0000000
 augmentation part      258.0000000 magnetization       6.0000000

 Free energy of the ion-electron system (eV)
  ---------------------------------------------------
  alpha Z        PSCENC =       740.60375762
  Ewald energy   TEWEN  =    -13896.88265037
  -Hartree energ DENC   =     -7090.00687332
  -exchange      EXHF   =         0.00000000
  -V(xc)+E(xc)   XCENC  =       842.54833139
  PAW double counting   =     17015.18481625   -17491.61297812
  entropy T*S    EENTRO =        -0.00676675
  eigenvalues    EBANDS =      3190.36975473
  atomic energy  EATOM  =     20168.87094289
  ---------------------------------------------------
  free energy    TOTEN  =      3479.06833431 eV

  energy without entropy =     3479.07510106  energy(sigma->0) =     3479.07171769


--------------------------------------------------------------------------------------------------------




--------------------------------------- Iteration      1(   2)  ---------------------------------------


    TRIAL :  cpu time   25.4399: real time   25.7720
    CORREC:  cpu time    0.0044: real time    0.0045
    --------------------------------------------
      LOOP:  cpu time   25.4471: real time   25.7792

 eigenvalue-minimisations  : 24912
 total energy-change (2. order) :-0.3072106E+04  (-0.2832236E+04)
 number of electron     258.0000000 magnetization       6.0000000
 augmentation part      258.0000000 magnetization       6.0000000

 Free energy of the ion-electron system (eV)
  ---------------------------------------------------
  alpha Z        PSCENC =       740.60375762
  Ewald energy   TEWEN  =    -13896.88265037
  -Hartree energ DENC   =     -7090.00687332
  -exchange      EXHF   =         0.00000000
  -V(xc)+E(xc)   XCENC  =       842.54833139
  PAW double counting   =     17015.18481625   -17491.61297812
  entropy T*S    EENTRO =        -0.02001967
  eigenvalues    EBANDS =       118.27656666
  atomic energy  EATOM  =     20168.87094289
  ---------------------------------------------------
  free energy    TOTEN  =       406.96189332 eV

  energy without entropy =      406.98191300  energy(sigma->0) =      406.97190316


--------------------------------------------------------------------------------------------------------




--------------------------------------- Iteration      1(   3)  ---------------------------------------


    TRIAL :  cpu time   26.0759: real time   26.6756
    CORREC:  cpu time    0.0042: real time    0.0042
    --------------------------------------------
      LOOP:  cpu time   26.0805: real time   26.6842

 eigenvalue-minimisations  : 25888
 total energy-change (2. order) :-0.6268571E+03  (-0.5731882E+03)
 number of electron     258.0000000 magnetization       6.0000000
 augmentation part      258.0000000 magnetization       6.0000000

 Free energy of the ion-electron system (eV)
  ---------------------------------------------------
  alpha Z        PSCENC =       740.60375762
  Ewald energy   TEWEN  =    -13896.88265037
  -Hartree energ DENC   =     -7090.00687332
  -exchange      EXHF   =         0.00000000
  -V(xc)+E(xc)   XCENC  =       842.54833139
  PAW double counting   =     17015.18481625   -17491.61297812
  entropy T*S    EENTRO =        -0.02902806
  eigenvalues    EBANDS =      -508.57151350
  atomic energy  EATOM  =     20168.87094289
  ---------------------------------------------------
  free energy    TOTEN  =      -219.89519523 eV

  energy without entropy =     -219.86616717  energy(sigma->0) =     -219.88068120


--------------------------------------------------------------------------------------------------------




--------------------------------------- Iteration      1(   4)  ---------------------------------------


    TRIAL :  cpu time   25.5896: real time   25.9585
    CORREC:  cpu time    0.0043: real time    0.0043
    --------------------------------------------
      LOOP:  cpu time   25.5978: real time   25.9666

 eigenvalue-minimisations  : 25280
 total energy-change (2. order) :-0.4982112E+02  (-0.4881521E+02)
 number of electron     258.0000000 magnetization       6.0000000
 augmentation part      258.0000000 magnetization       6.0000000

 Free energy of the ion-electron system (eV)
  ---------------------------------------------------
  alpha Z        PSCENC =       740.60375762
  Ewald energy   TEWEN  =    -13896.88265037
  -Hartree energ DENC   =     -7090.00687332
  -exchange      EXHF   =         0.00000000
  -V(xc)+E(xc)   XCENC  =       842.54833139
  PAW double counting   =     17015.18481625   -17491.61297812
  entropy T*S    EENTRO =        -0.02720155
  eigenvalues    EBANDS =      -558.39446384
  atomic energy  EATOM  =     20168.87094289
  ---------------------------------------------------
  free energy    TOTEN  =      -269.71631906 eV

  energy without entropy =     -269.68911751  energy(sigma->0) =     -269.70271828


--------------------------------------------------------------------------------------------------------




--------------------------------------- Iteration      1(   5)  ---------------------------------------


    TRIAL :  cpu time   29.1986: real time   29.4196
    CORREC:  cpu time    0.0050: real time    0.0050
    CHARGE:  cpu time    0.5052: real time    0.5053
    --------------------------------------------
      LOOP:  cpu time   29.7129: real time   29.9340

 eigenvalue-minimisations  : 29520
 total energy-change (2. order) :-0.1805128E+01  (-0.1801756E+01)
 number of electron     258.0000034 magnetization       6.0000005
 augmentation part       67.9617269 magnetization       4.2441856

 Free energy of the ion-electron system (eV)
  ---------------------------------------------------
  alpha Z        PSCENC =       740.60375762
  Ewald energy   TEWEN  =    -13896.88265037
  -Hartree energ DENC   =     -7090.00687332
  -exchange      EXHF   =         0.00000000
  -V(xc)+E(xc)   XCENC  =       842.54833139
  PAW double counting   =     17015.18481625   -17491.61297812
  entropy T*S    EENTRO =        -0.02736141
  eigenvalues    EBANDS =      -560.19943244
  atomic energy  EATOM  =     20168.87094289
  ---------------------------------------------------
  free energy    TOTEN  =      -271.52144752 eV

  energy without entropy =     -271.49408611  energy(sigma->0) =     -271.50776681


--------------------------------------------------------------------------------------------------------




--------------------------------------- Iteration      1(   6)  ---------------------------------------


    POTLOK:  cpu time    0.0467: real time    0.0466
    SETDIJ:  cpu time    0.0128: real time    0.0128
    TRIAL :  cpu time   14.0692: real time   14.0838
    CORREC:  cpu time    4.6817: real time    4.6840
    CHARGE:  cpu time    0.5069: real time    0.5072
    --------------------------------------------
      LOOP:  cpu time   19.3216: real time   19.3391

 eigenvalue-minimisations  :     0
 total energy-change (2. order) : 0.3990352E+03  (-0.2303733E+03)
 number of electron     258.0000041 magnetization       5.9999999
 augmentation part       70.3340241 magnetization       4.3811972

 Free energy of the ion-electron system (eV)
  ---------------------------------------------------
  alpha Z        PSCENC =       740.60375762
  Ewald energy   TEWEN  =    -13896.88265037
  -Hartree energ DENC   =     -6873.24172390
  -exchange      EXHF   =         0.00000000
  -V(xc)+E(xc)   XCENC  =       877.31862954
  PAW double counting   =     23661.79359798   -23870.36115577
  entropy T*S    EENTRO =        -0.04863853
  eigenvalues    EBANDS =      -680.56025481
  atomic energy  EATOM  =     20168.87094289
  ---------------------------------------------------
  free energy    TOTEN  =       127.51378176 eV

  energy without entropy =      127.56242029  energy(sigma->0) =      127.53810103


--------------------------------------------------------------------------------------------------------




--------------------------------------- Iteration      1(   7)  ---------------------------------------


    POTLOK:  cpu time    0.0464: real time    0.0464
    SETDIJ:  cpu time    0.0129: real time    0.0129
    TRIAL :  cpu time   13.9937: real time   13.9989
    CORREC:  cpu time    4.6645: real time    4.6671
    CHARGE:  cpu time    0.5131: real time    0.5131
    --------------------------------------------
      LOOP:  cpu time   19.2346: real time   19.2424

 eigenvalue-minimisations  :     0
 total energy-change (2. order) :-0.1202704E+03  (-0.2681402E+02)
 number of electron     258.0000040 magnetization       5.9999999
 augmentation part       70.8866556 magnetization       4.3395575

 Free energy of the ion-electron system (eV)
  ---------------------------------------------------
  alpha Z        PSCENC =       740.60375762
  Ewald energy   TEWEN  =    -13896.88265037
  -Hartree energ DENC   =     -6777.72138220
  -exchange      EXHF   =         0.00000000
  -V(xc)+E(xc)   XCENC  =       866.91637760
  PAW double counting   =     23576.01760237   -23877.05626705
  entropy T*S    EENTRO =        -0.04494102
  eigenvalues    EBANDS =      -793.45633058
  atomic energy  EATOM  =     20168.87094289
  ---------------------------------------------------
  free energy    TOTEN  =         7.24341174 eV

  energy without entropy =        7.28835276  energy(sigma->0) =        7.26588225


--------------------------------------------------------------------------------------------------------




--------------------------------------- Iteration      1(   8)  ---------------------------------------


    POTLOK:  cpu time    0.0466: real time    0.0466
    SETDIJ:  cpu time    0.0128: real time    0.0128
    TRIAL :  cpu time   13.9431: real time   13.9645
    CORREC:  cpu time    4.9588: real time    5.3247
    CHARGE:  cpu time    0.5416: real time    0.6368
    --------------------------------------------
      LOOP:  cpu time   19.5071: real time   19.9897

 eigenvalue-minimisations  :     0
 total energy-change (2. order) :-0.4033624E+02  (-0.8531884E+02)
 number of electron     258.0000036 magnetization       6.0000002
 augmentation part       71.7039226 magnetization       4.2727170

 Free energy of the ion-electron system (eV)
  ---------------------------------------------------
  alpha Z        PSCENC =       740.60375762
  Ewald energy   TEWEN  =    -13896.88265037
  -Hartree energ DENC   =     -6764.50502321
  -exchange      EXHF   =         0.00000000
  -V(xc)+E(xc)   XCENC  =       863.93672282
  PAW double counting   =     23506.95499304   -23828.90786053
  entropy T*S    EENTRO =        -0.03491599
  eigenvalues    EBANDS =      -823.11876743
  atomic energy  EATOM  =     20168.87094289
  ---------------------------------------------------
  free energy    TOTEN  =       -33.09282620 eV

  energy without entropy =      -33.05791021  energy(sigma->0) =      -33.07536820


--------------------------------------------------------------------------------------------------------




--------------------------------------- Iteration      1(   9)  ---------------------------------------


    POTLOK:  cpu time    0.0510: real time    0.0589
    SETDIJ:  cpu time    0.0132: real time    0.0170
    TRIAL :  cpu time   14.3337: real time   14.7767
    CORREC:  cpu time    4.8071: real time    4.8102
    CHARGE:  cpu time    0.5126: real time    0.5131
    --------------------------------------------
      LOOP:  cpu time   19.7218: real time   20.1800

 eigenvalue-minimisations  :     0
 total energy-change (2. order) :-0.7265970E+02  (-0.9204735E+02)
 number of electron     258.0000037 magnetization       6.0000001
 augmentation part       72.5934438 magnetization       4.3100290

 Free energy of the ion-electron system (eV)
  ---------------------------------------------------
  alpha Z        PSCENC =       740.60375762
  Ewald energy   TEWEN  =    -13896.88265037
  -Hartree energ DENC   =     -6830.37095212
  -exchange      EXHF   =         0.00000000
  -V(xc)+E(xc)   XCENC  =       861.67810305
  PAW double counting   =     23520.18700093   -23870.13570007
  entropy T*S    EENTRO =        -0.03615207
  eigenvalues    EBANDS =      -799.66811326
  atomic energy  EATOM  =     20168.87094289
  ---------------------------------------------------
  free energy    TOTEN  =      -105.75252732 eV

  energy without entropy =     -105.71637525  energy(sigma->0) =     -105.73445129


--------------------------------------------------------------------------------------------------------




--------------------------------------- Iteration      1(  10)  ---------------------------------------


    POTLOK:  cpu time    0.0466: real time    0.0466
    SETDIJ:  cpu time    0.0133: real time    0.0133
    TRIAL :  cpu time   13.9569: real time   13.9613
    CORREC:  cpu time    4.6607: real time    4.6626
    CHARGE:  cpu time    0.5186: real time    0.5188
    --------------------------------------------
      LOOP:  cpu time   19.2004: real time   19.2069

 eigenvalue-minimisations  :     0
 total energy-change (2. order) :-0.1552554E+02  (-0.8390234E+02)
 number of electron     258.0000033 magnetization       6.0000004
 augmentation part       75.0388566 magnetization       4.2297814

 Free energy of the ion-electron system (eV)
  ---------------------------------------------------
  alpha Z        PSCENC =       740.60375762
  Ewald energy   TEWEN  =    -13896.88265037
  -Hartree energ DENC   =     -6799.51275295
  -exchange      EXHF   =         0.00000000
  -V(xc)+E(xc)   XCENC  =       858.77092865
  PAW double counting   =     23647.33245648   -24034.91479172
  entropy T*S    EENTRO =        -0.03074909
  eigenvalues    EBANDS =      -805.50980999
  atomic energy  EATOM  =     20168.87094289
  ---------------------------------------------------
  free energy    TOTEN  =      -121.27807148 eV

  energy without entropy =     -121.24732238  energy(sigma->0) =     -121.26269693


--------------------------------------------------------------------------------------------------------




--------------------------------------- Iteration      1(  11)  ---------------------------------------


    POTLOK:  cpu time    0.0466: real time    0.0466
    SETDIJ:  cpu time    0.0128: real time    0.0128
    TRIAL :  cpu time   13.9689: real time   13.9730
    CORREC:  cpu time    4.6322: real time    4.6340
    CHARGE:  cpu time    0.5198: real time    0.5199
    --------------------------------------------
      LOOP:  cpu time   19.1844: real time   19.1909

 eigenvalue-minimisations  :     0
 total energy-change (2. order) :-0.5884394E+02  (-0.1865325E+02)
 number of electron     258.0000035 magnetization       6.0000002
 augmentation part       75.6958233 magnetization       4.1847475

 Free energy of the ion-electron system (eV)
  ---------------------------------------------------
  alpha Z        PSCENC =       740.60375762
  Ewald energy   TEWEN  =    -13896.88265037
  -Hartree energ DENC   =     -6973.00226787
  -exchange      EXHF   =         0.00000000
  -V(xc)+E(xc)   XCENC  =       853.30439332
  PAW double counting   =     24054.54681723   -24542.07120501
  entropy T*S    EENTRO =        -0.03280504
  eigenvalues    EBANDS =      -585.46105024
  atomic energy  EATOM  =     20168.87094289
  ---------------------------------------------------
  free energy    TOTEN  =      -180.12201152 eV

  energy without entropy =     -180.08920648  energy(sigma->0) =     -180.10560900


--------------------------------------------------------------------------------------------------------




--------------------------------------- Iteration      1(  12)  ---------------------------------------


    POTLOK:  cpu time    0.0463: real time    0.0463
    SETDIJ:  cpu time    0.0129: real time    0.0129
    TRIAL :  cpu time   14.0746: real time   14.0854
    CORREC:  cpu time    4.7808: real time    4.7834
    CHARGE:  cpu time    0.5117: real time    0.5118
    --------------------------------------------
      LOOP:  cpu time   19.4306: real time   19.4445

 eigenvalue-minimisations  :     0
 total energy-change (2. order) :-0.2368451E+02  (-0.7553580E+01)
 number of electron     258.0000034 magnetization       6.0000002
 augmentation part       76.0631215 magnetization       4.1304391

 Free energy of the ion-electron system (eV)
  ---------------------------------------------------
  alpha Z        PSCENC =       740.60375762
  Ewald energy   TEWEN  =    -13896.88265037
  -Hartree energ DENC   =     -6951.29666394
  -exchange      EXHF   =         0.00000000
  -V(xc)+E(xc)   XCENC  =       851.29755912
  PAW double counting   =     24145.42389003   -24658.89540744
  entropy T*S    EENTRO =        -0.03174393
  eigenvalues    EBANDS =      -602.89514848
  atomic energy  EATOM  =     20168.87094289
  ---------------------------------------------------
  free energy    TOTEN  =      -203.80652562 eV

  energy without entropy =     -203.77478169  energy(sigma->0) =     -203.79065366


--------------------------------------------------------------------------------------------------------




--------------------------------------- Iteration      1(  13)  ---------------------------------------


    POTLOK:  cpu time    0.0463: real time    0.0463
    SETDIJ:  cpu time    0.0128: real time    0.0128
    TRIAL :  cpu time   13.9499: real time   13.9594
    CORREC:  cpu time    4.6658: real time    4.6680
    CHARGE:  cpu time    0.5101: real time    0.5102
    --------------------------------------------
      LOOP:  cpu time   19.1892: real time   19.2010

 eigenvalue-minimisations  :     0
 total energy-change (2. order) :-0.4553546E+01  (-0.6415816E+01)
 number of electron     258.0000034 magnetization       6.0000001
 augmentation part       75.8913588 magnetization       4.0641685

 Free energy of the ion-electron system (eV)
  ---------------------------------------------------
  alpha Z        PSCENC =       740.60375762
  Ewald energy   TEWEN  =    -13896.88265037
  -Hartree energ DENC   =     -7004.52964056
  -exchange      EXHF   =         0.00000000
  -V(xc)+E(xc)   XCENC  =       850.07789322
  PAW double counting   =     24153.12439002   -24678.40325354
  entropy T*S    EENTRO =        -0.02196390
  eigenvalues    EBANDS =      -541.18976658
  atomic energy  EATOM  =     20168.87094289
  ---------------------------------------------------
  free energy    TOTEN  =      -208.36007123 eV

  energy without entropy =     -208.33810733  energy(sigma->0) =     -208.34908928


--------------------------------------------------------------------------------------------------------




--------------------------------------- Iteration      1(  14)  ---------------------------------------


    POTLOK:  cpu time    0.0465: real time    0.0465
    SETDIJ:  cpu time    0.0129: real time    0.0129
    TRIAL :  cpu time   14.0041: real time   14.0382
    CORREC:  cpu time    4.6638: real time    4.6660
    CHARGE:  cpu time    0.5051: real time    0.5052
    --------------------------------------------
      LOOP:  cpu time   19.2368: real time   19.2731

 eigenvalue-minimisations  :     0
 total energy-change (2. order) :-0.2975621E+01  (-0.3847328E+01)
 number of electron     258.0000033 magnetization       6.0000002
 augmentation part       75.5948664 magnetization       4.0247397

 Free energy of the ion-electron system (eV)
  ---------------------------------------------------
  alpha Z        PSCENC =       740.60375762
  Ewald energy   TEWEN  =    -13896.88265037
  -Hartree energ DENC   =     -7006.81789875
  -exchange      EXHF   =         0.00000000
  -V(xc)+E(xc)   XCENC  =       849.48501861
  PAW double counting   =     24008.96554921   -24520.27151737
  entropy T*S    EENTRO =        -0.02554430
  eigenvalues    EBANDS =      -555.26693048
  atomic energy  EATOM  =     20168.87094289
  ---------------------------------------------------
  free energy    TOTEN  =      -211.33569255 eV

  energy without entropy =     -211.31014825  energy(sigma->0) =     -211.32292040


--------------------------------------------------------------------------------------------------------




--------------------------------------- Iteration      1(  15)  ---------------------------------------


    POTLOK:  cpu time    0.0465: real time    0.0465
    SETDIJ:  cpu time    0.0128: real time    0.0128
    TRIAL :  cpu time   14.0257: real time   14.0363
    CORREC:  cpu time    4.6361: real time    4.6378
    CHARGE:  cpu time    0.5091: real time    0.5095
    --------------------------------------------
      LOOP:  cpu time   19.2346: real time   19.2473

 eigenvalue-minimisations  :     0
 total energy-change (2. order) :-0.4773371E+01  (-0.2103846E+01)
 number of electron     258.0000033 magnetization       6.0000002
 augmentation part       75.3209052 magnetization       3.9803651

 Free energy of the ion-electron system (eV)
  ---------------------------------------------------
  alpha Z        PSCENC =       740.60375762
  Ewald energy   TEWEN  =    -13896.88265037
  -Hartree energ DENC   =     -7014.28577472
  -exchange      EXHF   =         0.00000000
  -V(xc)+E(xc)   XCENC  =       849.24937133
  PAW double counting   =     23874.25723707   -24366.47818366
  entropy T*S    EENTRO =        -0.02142351
  eigenvalues    EBANDS =      -571.41821910
  atomic energy  EATOM  =     20168.87094289
  ---------------------------------------------------
  free energy    TOTEN  =      -216.10906325 eV

  energy without entropy =     -216.08763975  energy(sigma->0) =     -216.09835150


--------------------------------------------------------------------------------------------------------




--------------------------------------- Iteration      1(  16)  ---------------------------------------


    POTLOK:  cpu time    0.0464: real time    0.0464
    SETDIJ:  cpu time    0.0131: real time    0.0131
    TRIAL :  cpu time   13.9301: real time   13.9447
    CORREC:  cpu time    4.7590: real time    4.7610
    CHARGE:  cpu time    0.5105: real time    0.5106
    --------------------------------------------
      LOOP:  cpu time   19.2633: real time   19.2804

 eigenvalue-minimisations  :     0
 total energy-change (2. order) :-0.1930126E+01  (-0.1015669E+01)
 number of electron     258.0000033 magnetization       6.0000002
 augmentation part       75.3628436 magnetization       3.9143090

 Free energy of the ion-electron system (eV)
  ---------------------------------------------------
  alpha Z        PSCENC =       740.60375762
  Ewald energy   TEWEN  =    -13896.88265037
  -Hartree energ DENC   =     -7006.48998346
  -exchange      EXHF   =         0.00000000
  -V(xc)+E(xc)   XCENC  =       849.52590794
  PAW double counting   =     23748.02469966   -24219.75729273
  entropy T*S    EENTRO =        -0.01907325
  eigenvalues    EBANDS =      -601.91314772
  atomic energy  EATOM  =     20168.87094289
  ---------------------------------------------------
  free energy    TOTEN  =      -218.03918967 eV

  energy without entropy =     -218.02011642  energy(sigma->0) =     -218.02965305


--------------------------------------------------------------------------------------------------------




--------------------------------------- Iteration      1(  17)  ---------------------------------------


    POTLOK:  cpu time    0.0463: real time    0.0463
    SETDIJ:  cpu time    0.0128: real time    0.0128
    TRIAL :  cpu time   13.9847: real time   13.9885
    CORREC:  cpu time    4.6490: real time    4.6523
    CHARGE:  cpu time    0.5006: real time    0.5007
    --------------------------------------------
      LOOP:  cpu time   19.1976: real time   19.2052

 eigenvalue-minimisations  :     0
 total energy-change (2. order) :-0.9748509E+00  (-0.8303912E+00)
 number of electron     258.0000033 magnetization       6.0000001
 augmentation part       75.5459941 magnetization       3.8496000

 Free energy of the ion-electron system (eV)
  ---------------------------------------------------
  alpha Z        PSCENC =       740.60375762
  Ewald energy   TEWEN  =    -13896.88265037
  -Hartree energ DENC   =     -7024.88956139
  -exchange      EXHF   =         0.00000000
  -V(xc)+E(xc)   XCENC  =       850.10067656
  PAW double counting   =     23691.74932965   -24154.77144781
  entropy T*S    EENTRO =        -0.01749702
  eigenvalues    EBANDS =      -593.77601446
  atomic energy  EATOM  =     20168.87094289
  ---------------------------------------------------
  free energy    TOTEN  =      -219.01404056 eV

  energy without entropy =     -218.99654354  energy(sigma->0) =     -219.00529205


--------------------------------------------------------------------------------------------------------




--------------------------------------- Iteration      1(  18)  ---------------------------------------


    POTLOK:  cpu time    0.0466: real time    0.0466
    SETDIJ:  cpu time    0.0128: real time    0.0127
    TRIAL :  cpu time   14.0042: real time   14.0254
    CORREC:  cpu time    4.6960: real time    4.6980
    CHARGE:  cpu time    0.5083: real time    0.5084
    --------------------------------------------
      LOOP:  cpu time   19.2722: real time   19.2954

 eigenvalue-minimisations  :     0
 total energy-change (2. order) :-0.6805962E+00  (-0.5470161E+00)
 number of electron     258.0000034 magnetization       6.0000001
 augmentation part       75.9019321 magnetization       3.7744327

 Free energy of the ion-electron system (eV)
  ---------------------------------------------------
  alpha Z        PSCENC =       740.60375762
  Ewald energy   TEWEN  =    -13896.88265037
  -Hartree energ DENC   =     -7039.95175104
  -exchange      EXHF   =         0.00000000
  -V(xc)+E(xc)   XCENC  =       850.75474057
  PAW double counting   =     23665.17984215   -24124.69537687
  entropy T*S    EENTRO =        -0.01631729
  eigenvalues    EBANDS =      -583.55664470
  atomic energy  EATOM  =     20168.87094289
  ---------------------------------------------------
  free energy    TOTEN  =      -219.69463678 eV

  energy without entropy =     -219.67831950  energy(sigma->0) =     -219.68647814


--------------------------------------------------------------------------------------------------------




--------------------------------------- Iteration      1(  19)  ---------------------------------------


    POTLOK:  cpu time    0.0497: real time    0.0497
    SETDIJ:  cpu time    0.0143: real time    0.0143
    TRIAL :  cpu time   13.9817: real time   13.9854
    CORREC:  cpu time    4.7754: real time    4.7773
    CHARGE:  cpu time    0.5061: real time    0.5066
    --------------------------------------------
      LOOP:  cpu time   19.3315: real time   19.3381

 eigenvalue-minimisations  :     0
 total energy-change (2. order) :-0.5375822E+00  (-0.1399351E+00)
 number of electron     258.0000034 magnetization       6.0000001
 augmentation part       75.9714080 magnetization       3.7662333

 Free energy of the ion-electron system (eV)
  ---------------------------------------------------
  alpha Z        PSCENC =       740.60375762
  Ewald energy   TEWEN  =    -13896.88265037
  -Hartree energ DENC   =     -7064.84914089
  -exchange      EXHF   =         0.00000000
  -V(xc)+E(xc)   XCENC  =       851.43674983
  PAW double counting   =     23668.11873818   -24131.46310283
  entropy T*S    EENTRO =        -0.01540323
  eigenvalues    EBANDS =      -556.05119613
  atomic energy  EATOM  =     20168.87094289
  ---------------------------------------------------
  free energy    TOTEN  =      -220.23221900 eV

  energy without entropy =     -220.21681576  energy(sigma->0) =     -220.22451738


--------------------------------------------------------------------------------------------------------




--------------------------------------- Iteration      1(  20)  ---------------------------------------


    POTLOK:  cpu time    0.0471: real time    0.0471
    SETDIJ:  cpu time    0.0129: real time    0.0129
    TRIAL :  cpu time   13.9863: real time   13.9902
    CORREC:  cpu time    4.6494: real time    4.6510
    CHARGE:  cpu time    0.5022: real time    0.5022
    --------------------------------------------
      LOOP:  cpu time   19.2020: real time   19.2076

 eigenvalue-minimisations  :     0
 total energy-change (2. order) :-0.1354759E+00  (-0.1310698E+00)
 number of electron     258.0000034 magnetization       6.0000001
 augmentation part       76.0184733 magnetization       3.7601347

 Free energy of the ion-electron system (eV)
  ---------------------------------------------------
  alpha Z        PSCENC =       740.60375762
  Ewald energy   TEWEN  =    -13896.88265037
  -Hartree energ DENC   =     -7063.42071587
  -exchange      EXHF   =         0.00000000
  -V(xc)+E(xc)   XCENC  =       851.57781557
  PAW double counting   =     23666.31152166   -24129.97011746
  entropy T*S    EENTRO =        -0.01473900
  eigenvalues    EBANDS =      -557.44284565
  atomic energy  EATOM  =     20168.87094289
  ---------------------------------------------------
  free energy    TOTEN  =      -220.36769485 eV

  energy without entropy =     -220.35295585  energy(sigma->0) =     -220.36032535


--------------------------------------------------------------------------------------------------------




--------------------------------------- Iteration      1(  21)  ---------------------------------------


    POTLOK:  cpu time    0.0463: real time    0.0463
    SETDIJ:  cpu time    0.0128: real time    0.0128
    TRIAL :  cpu time   13.9942: real time   13.9985
    CORREC:  cpu time    4.6801: real time    4.6829
    CHARGE:  cpu time    0.5045: real time    0.5045
    --------------------------------------------
      LOOP:  cpu time   19.2422: real time   19.2498

 eigenvalue-minimisations  :     0
 total energy-change (2. order) :-0.1309567E+00  (-0.1747095E+00)
 number of electron     258.0000034 magnetization       6.0000001
 augmentation part       76.0379190 magnetization       3.7726723

 Free energy of the ion-electron system (eV)
  ---------------------------------------------------
  alpha Z        PSCENC =       740.60375762
  Ewald energy   TEWEN  =    -13896.88265037
  -Hartree energ DENC   =     -7061.78802306
  -exchange      EXHF   =         0.00000000
  -V(xc)+E(xc)   XCENC  =       851.67023402
  PAW double counting   =     23662.13272041   -24125.45236240
  entropy T*S    EENTRO =        -0.01451061
  eigenvalues    EBANDS =      -559.63853165
  atomic energy  EATOM  =     20168.87094289
  ---------------------------------------------------
  free energy    TOTEN  =      -220.49865154 eV

  energy without entropy =     -220.48414093  energy(sigma->0) =     -220.49139624


--------------------------------------------------------------------------------------------------------




--------------------------------------- Iteration      1(  22)  ---------------------------------------


    POTLOK:  cpu time    0.0462: real time    0.0463
    SETDIJ:  cpu time    0.0128: real time    0.0128
    TRIAL :  cpu time   13.9734: real time   13.9806
    CORREC:  cpu time    4.6134: real time    4.6151
    CHARGE:  cpu time    0.4997: real time    0.4998
    --------------------------------------------
      LOOP:  cpu time   19.1498: real time   19.1588

 eigenvalue-minimisations  :     0
 total energy-change (2. order) :-0.1793904E+00  (-0.1208883E+00)
 number of electron     258.0000034 magnetization       6.0000000
 augmentation part       76.0590078 magnetization       3.7950878

 Free energy of the ion-electron system (eV)
  ---------------------------------------------------
  alpha Z        PSCENC =       740.60375762
  Ewald energy   TEWEN  =    -13896.88265037
  -Hartree energ DENC   =     -7052.96495714
  -exchange      EXHF   =         0.00000000
  -V(xc)+E(xc)   XCENC  =       851.65328017
  PAW double counting   =     23653.30413147   -24115.51525475
  entropy T*S    EENTRO =        -0.01370392
  eigenvalues    EBANDS =      -569.73278122
  atomic energy  EATOM  =     20168.87094289
  ---------------------------------------------------
  free energy    TOTEN  =      -220.67804194 eV

  energy without entropy =     -220.66433802  energy(sigma->0) =     -220.67118998


--------------------------------------------------------------------------------------------------------




--------------------------------------- Iteration      1(  23)  ---------------------------------------


    POTLOK:  cpu time    0.0471: real time    0.0471
    SETDIJ:  cpu time    0.0127: real time    0.0127
    TRIAL :  cpu time   13.9531: real time   13.9571
    CORREC:  cpu time    4.8056: real time    4.8078
    CHARGE:  cpu time    0.4998: real time    0.4999
    --------------------------------------------
      LOOP:  cpu time   19.3224: real time   19.3286

 eigenvalue-minimisations  :     0
 total energy-change (2. order) :-0.1188051E+00  (-0.1107786E+00)
 number of electron     258.0000035 magnetization       6.0000000
 augmentation part       76.0676786 magnetization       3.8430394

 Free energy of the ion-electron system (eV)
  ---------------------------------------------------
  alpha Z        PSCENC =       740.60375762
  Ewald energy   TEWEN  =    -13896.88265037
  -Hartree energ DENC   =     -7052.57813593
  -exchange      EXHF   =         0.00000000
  -V(xc)+E(xc)   XCENC  =       851.60282848
  PAW double counting   =     23652.21630879   -24115.01782449
  entropy T*S    EENTRO =        -0.01477291
  eigenvalues    EBANDS =      -569.59837013
  atomic energy  EATOM  =     20168.87094289
  ---------------------------------------------------
  free energy    TOTEN  =      -220.79684706 eV

  energy without entropy =     -220.78207416  energy(sigma->0) =     -220.78946061


--------------------------------------------------------------------------------------------------------




--------------------------------------- Iteration      1(  24)  ---------------------------------------


    POTLOK:  cpu time    0.0463: real time    0.0463
    SETDIJ:  cpu time    0.0131: real time    0.0131
    TRIAL :  cpu time   13.9745: real time   13.9984
    CORREC:  cpu time    4.6364: real time    4.6390
    CHARGE:  cpu time    0.4891: real time    0.4891
    --------------------------------------------
      LOOP:  cpu time   19.1639: real time   19.1908

 eigenvalue-minimisations  :     0
 total energy-change (2. order) :-0.1106596E+00  (-0.2512334E+00)
 number of electron     258.0000035 magnetization       5.9999999
 augmentation part       75.9531994 magnetization       4.0216877

 Free energy of the ion-electron system (eV)
  ---------------------------------------------------
  alpha Z        PSCENC =       740.60375762
  Ewald energy   TEWEN  =    -13896.88265037
  -Hartree energ DENC   =     -7051.92486224
  -exchange      EXHF   =         0.00000000
  -V(xc)+E(xc)   XCENC  =       851.52840676
  PAW double counting   =     23650.79698008   -24115.14433159
  entropy T*S    EENTRO =        -0.01304811
  eigenvalues    EBANDS =      -568.74097686
  atomic energy  EATOM  =     20168.87094289
  ---------------------------------------------------
  free energy    TOTEN  =      -220.90750663 eV

  energy without entropy =     -220.89445852  energy(sigma->0) =     -220.90098257


--------------------------------------------------------------------------------------------------------




--------------------------------------- Iteration      1(  25)  ---------------------------------------


    POTLOK:  cpu time    0.0463: real time    0.0462
    SETDIJ:  cpu time    0.0128: real time    0.0128
    TRIAL :  cpu time   14.0047: real time   14.0084
    CORREC:  cpu time    4.6258: real time    4.6276
    CHARGE:  cpu time    0.4906: real time    0.4906
    --------------------------------------------
      LOOP:  cpu time   19.1843: real time   19.1902

 eigenvalue-minimisations  :     0
 total energy-change (2. order) :-0.2441678E+00  (-0.8380404E-01)
 number of electron     258.0000035 magnetization       5.9999999
[...]
   20        1.580   3.374   0.000   4.954
   21        1.583   3.348   0.000   4.931
   22        1.572   3.438   0.000   5.010
   23        1.582   3.398   0.000   4.980
   24        1.572   3.392   0.000   4.964
   25        1.575   3.406   0.000   4.981
   26        1.578   3.403   0.000   4.980
   27        1.556   3.463   0.000   5.019
   28        1.562   3.450   0.000   5.013
   29        1.559   3.453   0.000   5.012
   30        1.562   3.438   0.000   5.000
   31        1.585   3.345   0.000   4.930
   32        1.574   3.389   0.000   4.964
   33        1.570   3.389   0.000   4.959
   34        1.575   3.353   0.000   4.929
   35        1.575   3.396   0.000   4.972
   36        1.575   3.392   0.000   4.967
   37        1.577   3.349   0.000   4.926
   38        1.567   3.431   0.000   4.998
   39        1.551   3.517   0.000   5.068
   40        1.556   3.467   0.000   5.023
   41        1.553   3.507   0.000   5.060
   42        1.555   3.457   0.000   5.012
--------------------------------------------------
tot         43.583  91.499  87.530 222.612
 


 magnetization (x)
 
# of ion       s       p       d       tot
------------------------------------------
    1       -0.001  -0.003   0.000  -0.003
    2       -0.000  -0.002   0.000  -0.002
    3        0.000   0.000   0.000   0.000
    4        0.001   0.000   0.000   0.001
    5        0.001  -0.002   0.000  -0.001
    6        0.001  -0.000   0.000   0.000
    7        0.015   0.016   1.440   1.471
    8        0.015   0.018   1.403   1.437
    9        0.013   0.016   1.267   1.296
   10        0.006   0.010  -0.022  -0.006
   11        0.013   0.015   1.614   1.641
   12        0.011   0.011   1.326   1.349
   13        0.002   0.003  -0.016  -0.011
   14        0.005   0.005   0.035   0.046
   15        0.002   0.002  -0.067  -0.063
   16        0.011   0.007   1.323   1.341
   17        0.002   0.002  -0.001   0.002
   18        0.001   0.001  -0.056  -0.054
   19        0.000  -0.128   0.000  -0.128
   20        0.001  -0.155   0.000  -0.154
   21        0.001  -0.161   0.000  -0.160
   22        0.000  -0.121   0.000  -0.121
   23        0.001  -0.150   0.000  -0.149
   24        0.000  -0.125   0.000  -0.125
   25        0.001  -0.142   0.000  -0.141
   26        0.002  -0.086   0.000  -0.085
   27        0.001  -0.025   0.000  -0.024
   28        0.000  -0.041   0.000  -0.041
   29        0.000  -0.085   0.000  -0.085
   30        0.002  -0.032   0.000  -0.029
   31        0.003  -0.141   0.000  -0.138
   32       -0.000  -0.156   0.000  -0.157
   33        0.000  -0.064   0.000  -0.064
   34        0.000  -0.091   0.000  -0.090
   35        0.001  -0.068   0.000  -0.068
   36        0.000  -0.096   0.000  -0.096
   37       -0.003  -0.107   0.000  -0.110
   38       -0.000  -0.079   0.000  -0.079
   39       -0.001  -0.018   0.000  -0.019
   40        0.001  -0.026   0.000  -0.025
   41        0.001  -0.021   0.000  -0.020
   42        0.001  -0.036   0.000  -0.036
--------------------------------------------------
tot          0.110  -2.056   8.246   6.300
 
    FORLOC:  cpu time    0.0058: real time    0.0058
    FORNL :  cpu time    4.6583: real time    4.6679
    STRESS:  cpu time   14.0616: real time   14.0895
    FORCOR:  cpu time    0.0492: real time    0.0492
    OFIELD:  cpu time    0.0005: real time    0.0005

  DFT-D2 method for vdW energy calculation
  -------------------------------------------------------------------

  Parameters of vdW forcefield:
         C6(Jnm^6/mol)     R0(A)
   -----------------------------
   Li       1.610          0.825
   Co      10.800          1.562
   O        0.700          1.342

  IVDW =   1
  VDW_RADIUS =    50.000 A
  VDW_S6 =     0.750
  VDW_SR =     1.000
  VDW_D =    20.000
  LVDW_EWALD = F

  Number of pair interactions contributing to vdW energy: 1195124
  Edisp (eV):   -9.69943
    FORVDW:  cpu time    0.1731: real time    0.1736

  FORCE on cell =-STRESS in cart. coord.  units (eV):
  Direction    XX          YY          ZZ          XY          YZ          ZX
  --------------------------------------------------------------------------------------
  Alpha Z   740.60376   740.60376   740.60376
  Ewald   -1526.11121 -1628.73603-10742.10426    -4.00342   -16.06472   -42.56484
  Hartree  4606.77284  4575.66904 -2136.48866   -13.84365    -1.16016   -17.34944
  E(xc)   -1284.46481 -1284.66804 -1286.62881     0.02275    -0.06873    -0.03693
  Local   -8014.06233 -7887.07743  7879.26467    19.72890    13.28785    58.89721
  n-local  -591.64941  -592.22669  -603.45723     0.15967    -0.64009    -0.10994
  augment  2017.19135  2018.46257  2009.69875    -0.19700     1.36687     0.37706
  Kinetic  4048.36297  4064.29972  4157.09209    -4.07617     5.92248     3.18317
  Fock        0.00000     0.00000     0.00000     0.00000     0.00000     0.00000
  vdW        -5.86181    -6.40936   -12.44181     0.27863     0.01669    -0.06828
  -------------------------------------------------------------------------------------
  Total      -9.21866    -0.08247     5.53851    -1.93029     2.66019     2.32802
  in kB     -37.31207    -0.33379    22.41686    -7.81276    10.76699     9.42253
  external pressure =       -5.08 kB  Pullay stress =        0.00 kB


 VOLUME and BASIS-vectors are now :
 -----------------------------------------------------------------------------
  energy-cutoff  :      600.00
  volume of cell :      395.85
      direct lattice vectors                 reciprocal lattice vectors
     5.753090382  0.000000000  0.000000000     0.173819623  0.099841021  0.016721105
    -2.809480190  4.891203880  0.000000000     0.000000000  0.204448644  0.008691137
    -1.009759665 -0.598004162 14.067335129     0.000000000  0.000000000  0.071086669

  length of vectors
     5.753090382  5.640660807 14.116201372     0.201149412  0.204633291  0.071086669


 FORCES acting on ions:
    Electron-Ion                     Ewald-Force                    Non-Local-Force
 -----------------------------------------------------------------------------------------------
   -.149E+01 0.942E+00 0.600E+01   0.148E+01 -.662E+00 -.618E+01   0.149E+00 -.150E+00 -.684E+00
   -.216E+01 -.292E+00 0.336E+01   0.185E+01 0.172E+00 -.321E+01   0.229E+00 0.194E+00 -.215E+00
   0.301E+01 -.368E+01 0.790E+01   -.269E+01 0.367E+01 -.757E+01   -.428E+00 0.756E+00 -.352E+00
   -.643E+01 -.262E+00 0.603E+00   0.595E+01 0.631E-02 -.629E+00   0.831E+00 -.165E+00 0.411E+00
   -.147E+00 -.256E+01 0.176E+02   0.802E-01 0.255E+01 -.171E+02   0.204E-01 0.894E+00 -.106E+01
   0.392E+01 -.812E+00 0.152E+02   -.372E+01 0.476E+00 -.147E+02   -.347E+00 0.139E+00 -.766E+00
   -.230E+02 -.249E+02 0.172E+01   0.226E+02 0.252E+02 -.171E+01   0.360E+00 -.434E+00 -.289E+00
   -.486E+02 0.299E+02 -.704E+02   0.512E+02 -.302E+02 0.697E+02   0.644E+00 -.223E+00 0.177E+01
   0.773E+01 -.285E+02 -.367E+02   -.688E+01 0.287E+02 0.365E+02   0.348E-01 0.611E+00 0.225E+00
   0.348E+02 -.579E+00 -.292E+02   -.360E+02 0.217E+01 0.305E+02   0.859E-01 0.422E+00 -.251E+01
   -.117E+02 0.765E+01 0.115E+03   0.113E+02 -.671E+01 -.117E+03   0.242E+00 -.531E+00 0.480E+00
   0.532E+02 0.392E+02 0.101E+03   -.535E+02 -.407E+02 -.102E+03   -.597E+00 -.830E+00 0.702E+00
   0.277E+02 0.630E+01 0.918E+02   -.272E+02 -.620E+01 -.943E+02   -.112E+01 -.839E+00 0.263E+01
   -.520E+02 -.283E+02 0.121E+03   0.511E+02 0.272E+02 -.123E+03   0.134E+01 0.144E+01 0.146E+01
   -.220E+02 -.129E+01 -.670E+02   0.222E+02 0.239E+01 0.704E+02   0.395E+00 0.380E-01 -.220E+01
   0.944E+00 -.875E+01 -.466E+02   -.172E+00 0.929E+01 0.466E+02   0.151E+00 0.660E+00 -.768E+00
   -.208E+02 -.260E+02 -.116E+03   0.206E+02 0.266E+02 0.119E+03   0.855E+00 0.321E+00 -.220E+01
   0.328E+02 0.167E+02 -.785E+02   -.338E+02 -.181E+02 0.811E+02   -.779E+00 -.366E+00 -.248E+01
   -.192E+02 -.242E+02 -.354E+03   0.178E+02 0.293E+02 0.377E+03   0.189E+01 -.468E+01 -.214E+02
   -.443E+01 -.413E+02 -.345E+03   0.442E+01 0.421E+02 0.367E+03   -.132E+01 0.142E+01 -.216E+02
   0.358E+02 0.359E+02 -.350E+03   -.378E+02 -.395E+02 0.373E+03   0.944E+00 0.297E+01 -.235E+02
   0.268E+02 0.351E+02 -.348E+03   -.304E+02 -.394E+02 0.369E+03   0.312E+01 0.240E+01 -.193E+02
   0.940E+01 -.782E+01 0.300E+03   -.852E+01 0.819E+01 -.326E+03   -.166E+01 -.281E+00 0.241E+02
   -.222E+01 0.155E+02 0.277E+03   0.125E+00 -.165E+02 -.296E+03   0.255E+01 -.272E+00 0.197E+02
   -.203E+02 -.541E+01 0.308E+03   0.220E+02 0.711E+01 -.329E+03   -.120E+01 -.221E+01 0.200E+02
   0.604E+01 0.136E+02 0.306E+03   -.676E+01 -.166E+02 -.330E+03   -.100E+00 0.257E+01 0.226E+02
   -.299E+02 -.318E+01 -.219E+03   0.315E+02 0.391E+01 0.231E+03   -.669E+00 -.104E+01 -.119E+02
   -.317E+02 -.245E+02 -.241E+03   0.346E+02 0.261E+02 0.258E+03   -.186E+01 -.193E+00 -.163E+02
   0.248E+02 -.144E+02 -.239E+03   -.267E+02 0.170E+02 0.252E+03   0.135E+01 -.149E+01 -.126E+02
   0.404E+02 0.272E+02 -.221E+03   -.435E+02 -.299E+02 0.236E+03   0.192E+01 0.223E+01 -.155E+02
   -.293E+02 0.112E+02 0.377E+03   0.306E+02 -.139E+02 -.401E+03   -.455E+00 0.244E+01 0.243E+02
   -.414E+01 -.240E+02 0.378E+03   0.731E+01 0.281E+02 -.401E+03   -.337E+01 -.394E+01 0.224E+02
   0.177E+02 -.221E+02 0.350E+03   -.172E+02 0.205E+02 -.371E+03   -.673E+00 0.329E+01 0.216E+02
   -.378E+01 0.303E+02 0.356E+03   0.230E+01 -.289E+02 -.378E+03   0.187E+01 -.296E+01 0.230E+02
   0.217E+02 0.278E+02 -.367E+03   -.224E+02 -.325E+02 0.390E+03   -.521E+00 0.461E+01 -.226E+02
   -.106E+00 -.658E+01 -.368E+03   -.338E+00 0.838E+01 0.392E+03   0.148E+01 -.152E+01 -.234E+02
   -.195E+02 -.796E-01 -.357E+03   0.197E+02 0.379E+00 0.379E+03   0.136E+01 -.825E+00 -.236E+02
   -.222E+02 0.398E+01 -.350E+03   0.257E+02 -.471E+01 0.368E+03   -.263E+01 -.160E+00 -.176E+02
   0.311E+02 -.586E+01 0.265E+03   -.333E+02 0.687E+01 -.275E+03   0.962E+00 -.122E+01 0.904E+01
   0.119E+02 0.728E+01 0.271E+03   -.137E+02 -.673E+01 -.286E+03   0.173E+01 -.342E+00 0.146E+02
   -.102E+01 0.218E+01 0.277E+03   0.720E+00 -.432E+01 -.288E+03   -.744E+00 0.177E+01 0.953E+01
   -.178E+02 -.899E+01 0.268E+03   0.194E+02 0.926E+01 -.279E+03   -.148E+01 -.305E+00 0.115E+02
 -----------------------------------------------------------------------------------------------
   -.457E+01 -.411E+01 0.125E+02   0.213E-13 0.338E-13 -.568E-13   0.456E+01 0.418E+01 -.125E+02
 
 
 POSITION                                       TOTAL-FORCE (eV/Angst)
 -----------------------------------------------------------------------------------
      0.80213      3.84187      0.11145         0.038099      0.044695     -1.079856
      2.41448      2.89900      4.70906        -0.030992      0.064252     -0.095664
     -0.51733      1.16316      9.45790        -0.049382      0.554077      0.039219
     -1.95670      3.89290      9.38095         0.216964     -0.330148      0.351428
      2.35813      1.11745      9.56123        -0.059063      0.693992     -0.427907
      1.05480      3.77479      9.55508        -0.153097     -0.188444     -0.158456
     -0.35035      1.33353      2.26909        -0.154138     -0.135278     -0.205712
     -1.86111      3.76382      2.28290         2.800507     -0.459989      0.919503
      2.51399      1.26579      2.32200         0.869250      0.689777      0.099520
      1.10863      3.74394      2.35181        -0.778260      1.790405     -0.662589
      5.21144     -0.27059      7.09645        -0.160623      0.333504     -1.010213
     -1.94063      2.25482      7.07212        -0.679334     -2.018517     -0.175455
      2.36087     -0.23460      7.02320        -0.473152     -0.602190      0.217118
      0.91738      2.20096      7.05315         0.161533      0.153652     -0.130038
      0.88095      0.48977     11.71045         0.461989      1.106619      0.903425
     -0.58568      2.88566     11.70535         0.903517      1.024776     -0.850304
      3.69855      0.51807     11.76005         0.510630      0.694153      0.550222
      2.35547      3.00693     11.73665        -1.600540     -1.632271     -0.100811
      2.52753      4.53379      3.21215         0.587794      0.387247      1.130615
      4.03146      1.94427      3.24503        -1.360966      2.265068      0.545577
     -0.29464      4.61016      3.27234        -1.040445     -0.691769      0.163348
      1.13095      2.20154      3.17810        -0.513066     -1.971355      1.792308
      1.09425      0.51053      1.45928        -0.781882      0.106361     -1.390011
     -0.41303      3.05588      1.30703         0.412366     -1.248094      0.928587
      3.90415      0.50825      1.40178         0.560452     -0.423249     -0.784564
      2.55258      2.94859      1.40844        -0.869556     -0.393463     -1.005162
      0.85023      0.59988      8.11395         1.004637     -0.284315     -0.212502
     -0.55861      2.92633      8.03296         1.092571      1.417031      0.730254
      3.80122      0.43953      8.05763        -0.583114      1.149915      0.721273
      2.51835      3.04061      8.21638        -1.242630     -0.642025     -0.956093
     -0.59890      1.43531      6.15245         0.881242     -0.186848     -0.199141
     -1.93626      3.82424      6.12179        -0.171892      0.175240     -0.255341
      2.38615      1.34550      6.07698        -0.213930      1.679353      0.690206
      0.98046      3.94948      6.00931         0.369104     -1.623878      1.021278
     -0.48489      1.34161     12.61975        -1.249889     -0.072879      0.723492
     -1.99296      3.72057     12.64545         1.061546      0.265520      0.648119
      2.16627      1.39240     12.70015         1.597936     -0.534861     -0.817155
      0.78126      3.79480     12.60475         0.966478     -0.848260      0.963113
     -0.47821     -0.29048     10.74485        -1.323400     -0.188646     -1.338331
     -1.98821      2.11030     10.68825        -0.097749      0.262463     -0.010965
      2.36345     -0.31300     10.76815        -1.068138     -0.362446     -1.339015
      0.87562      2.15396     10.65375         0.158622     -0.019172      0.066680
 -----------------------------------------------------------------------------------
    total drift:                               -0.007220      0.067667      0.002220


--------------------------------------------------------------------------------------------------------



  FREE ENERGIE OF THE ION-ELECTRON SYSTEM (eV)
  ---------------------------------------------------
  free  energy   TOTEN  =      -232.73038309 eV

  energy  without entropy=     -232.71792641  energy(sigma->0) =     -232.72415475
 


--------------------------------------------------------------------------------------------------------


    POTLOK:  cpu time    0.0780: real time    0.0780


--------------------------------------------------------------------------------------------------------


     LOOP+:  cpu time 3674.1854: real time 3681.8372
    4ORBIT:  cpu time    0.0000: real time    0.0000
 


 total charge     
 
# of ion       s       p       d       tot
------------------------------------------
    1        0.098   0.205   0.000   0.302
    2        0.066   0.131   0.000   0.198
    3        0.099   0.209   0.000   0.307
    4        0.098   0.210   0.000   0.308
    5        0.097   0.203   0.000   0.299
    6        0.094   0.196   0.000   0.290
    7        0.450   0.710   7.181   8.341
    8        0.463   0.726   7.223   8.412
    9        0.486   0.798   7.262   8.545
   10        0.475   0.766   7.476   8.717
   11        0.446   0.700   7.213   8.359
   12        0.469   0.742   7.241   8.451
   13        0.417   0.630   7.322   8.370
   14        0.389   0.561   7.278   8.227
   15        0.447   0.713   7.397   8.557
   16        0.470   0.745   7.254   8.468
   17        0.421   0.636   7.339   8.395
   18        0.427   0.653   7.343   8.424
   19        1.575   3.411   0.000   4.986
   20        1.580   3.374   0.000   4.954
   21        1.583   3.348   0.000   4.931
   22        1.572   3.438   0.000   5.010
   23        1.582   3.398   0.000   4.980
   24        1.572   3.392   0.000   4.964
   25        1.575   3.406   0.000   4.981
   26        1.578   3.403   0.000   4.980
   27        1.556   3.463   0.000   5.019
   28        1.562   3.450   0.000   5.013
   29        1.559   3.453   0.000   5.012
   30        1.562   3.438   0.000   5.000
   31        1.585   3.345   0.000   4.930
   32        1.574   3.389   0.000   4.964
   33        1.570   3.389   0.000   4.959
   34        1.575   3.353   0.000   4.929
   35        1.575   3.396   0.000   4.972
   36        1.575   3.392   0.000   4.967
   37        1.577   3.349   0.000   4.926
   38        1.567   3.431   0.000   4.998
   39        1.551   3.517   0.000   5.068
   40        1.556   3.467   0.000   5.023
   41        1.553   3.507   0.000   5.060
   42        1.555   3.457   0.000   5.012
--------------------------------------------------
tot         43.583  91.499  87.530 222.612
 


 magnetization (x)
 
# of ion       s       p       d       tot
------------------------------------------
    1       -0.001  -0.003   0.000  -0.003
    2       -0.000  -0.002   0.000  -0.002
    3        0.000   0.000   0.000   0.000
    4        0.001   0.000   0.000   0.001
    5        0.001  -0.002   0.000  -0.001
    6        0.001  -0.000   0.000   0.000
    7        0.015   0.016   1.440   1.471
    8        0.015   0.018   1.403   1.437
    9        0.013   0.016   1.267   1.296
   10        0.006   0.010  -0.022  -0.006
   11        0.013   0.015   1.614   1.641
   12        0.011   0.011   1.326   1.349
   13        0.002   0.003  -0.016  -0.011
   14        0.005   0.005   0.035   0.046
   15        0.002   0.002  -0.067  -0.063
   16        0.011   0.007   1.323   1.341
   17        0.002   0.002  -0.001   0.002
   18        0.001   0.001  -0.056  -0.054
   19        0.000  -0.128   0.000  -0.128
   20        0.001  -0.155   0.000  -0.154
   21        0.001  -0.161   0.000  -0.160
   22        0.000  -0.121   0.000  -0.121
   23        0.001  -0.150   0.000  -0.149
   24        0.000  -0.125   0.000  -0.125
   25        0.001  -0.142   0.000  -0.141
   26        0.002  -0.086   0.000  -0.085
   27        0.001  -0.025   0.000  -0.024
   28        0.000  -0.041   0.000  -0.041
   29        0.000  -0.085   0.000  -0.085
   30        0.002  -0.032   0.000  -0.029
   31        0.003  -0.141   0.000  -0.138
   32       -0.000  -0.156   0.000  -0.157
   33        0.000  -0.064   0.000  -0.064
   34        0.000  -0.091   0.000  -0.090
   35        0.001  -0.068   0.000  -0.068
   36        0.000  -0.096   0.000  -0.096
   37       -0.003  -0.107   0.000  -0.110
   38       -0.000  -0.079   0.000  -0.079
   39       -0.001  -0.018   0.000  -0.019
   40        0.001  -0.026   0.000  -0.025
   41        0.001  -0.021   0.000  -0.020
   42        0.001  -0.036   0.000  -0.036
--------------------------------------------------
tot          0.110  -2.056   8.246   6.300
 

 total amount of memory used by VASP MPI-rank0   159841. kBytes
=======================================================================

   base      :      30000. kBytes
   nonlr-proj:       4284. kBytes
   fftplans  :       1687. kBytes
   grid      :       4644. kBytes
   one-center:        342. kBytes
   wavefun   :     118884. kBytes
 
  
  
 General timing and accounting informations for this job:
 ========================================================
  
                  Total CPU time used (sec):     3701.588
                            User time (sec):     3485.744
                          System time (sec):      215.844
                         Elapsed time (sec):     3709.720
  
                   Maximum memory used (kb):      853668.
                   Average memory used (kb):           0.
  
                          Minor page faults:        71095
                          Major page faults:           71
                 Voluntary context switches:          652
