       N       E                     dE             d eps       ncg     rms          ort
DAV:   1     0.357055059049E+04    0.35706E+04   -0.14064E+05  5760   0.227E+03
DAV:   2     0.406228969827E+03   -0.31643E+04   -0.29134E+04  5760   0.559E+02
DAV:   3    -0.220983147982E+03   -0.62721E+03   -0.56414E+03  5760   0.259E+02
DAV:   4    -0.270999609937E+03   -0.50016E+02   -0.49063E+02  5760   0.755E+01
DAV:   5    -0.272510507392E+03   -0.15109E+01   -0.15085E+01  5760   0.131E+01
SDA:   6     0.956613835634E+02    0.36817E+03   -0.15085E+01  5760   0.592E+04 0.000E+00
CGA:   7    -0.941715205060E+01   -0.10508E+03   -0.36144E+03  5760   0.927E+04-0.849E+03
CGA:   8    -0.426836828203E+02   -0.33267E+02   -0.31741E+03  5760   0.105E+05 0.355E+03
CGA:   9     0.380423894153E+01    0.46488E+02   -0.39358E+03  5760   0.317E+04-0.547E+04
CGA:  10    -0.123476662921E+03   -0.12728E+03   -0.77577E+02  5760   0.760E+03 0.143E+04
CGA:  11    -0.142217627583E+03   -0.18741E+02   -0.55118E+02  5760   0.147E+04-0.384E+03
CGA:  12    -0.176357127958E+03   -0.34140E+02   -0.18377E+02  5760   0.676E+03 0.120E+04
CGA:  13    -0.171062544077E+03    0.52946E+01   -0.33876E+02  5760   0.131E+04-0.723E+03
CGA:  14    -0.186231970114E+03   -0.15169E+02   -0.46453E+02  5760   0.698E+03-0.776E+03
CGA:  15    -0.183732645152E+03    0.24993E+01   -0.30023E+02  5760   0.100E+04-0.771E+03
CGA:  16    -0.176544988551E+03    0.71877E+01   -0.46981E+02  5760   0.116E+04-0.888E+03
CGA:  17    -0.200941268764E+03   -0.24396E+02   -0.37233E+02  5760   0.481E+03-0.809E+03
CGA:  18    -0.197651394273E+03    0.32899E+01   -0.20546E+02  5760   0.600E+03-0.444E+03
CGA:  19    -0.201226239714E+03   -0.35748E+01   -0.22411E+02  5760   0.569E+03-0.586E+03
CGA:  20    -0.201290953989E+03   -0.64714E-01   -0.22664E+02  5760   0.544E+03-0.493E+03
CGA:  21    -0.208033999985E+03   -0.67430E+01   -0.18304E+02  5760   0.366E+03-0.468E+03
CGA:  22    -0.211603977062E+03   -0.35700E+01   -0.11976E+02  5760   0.239E+03-0.289E+03
CGA:  23    -0.215555198649E+03   -0.39512E+01   -0.61824E+01  5760   0.551E+02-0.101E+03
CGA:  24    -0.217066670191E+03   -0.15115E+01   -0.14725E+01  5760   0.882E+01 0.664E-01
CGA:  25    -0.217637315708E+03   -0.57065E+00   -0.60296E+00  5760   0.134E+02 0.213E-01
CGA:  26    -0.218893318452E+03   -0.12560E+01   -0.12593E+01  5760   0.595E+01 0.224E+00
CGA:  27    -0.219081301086E+03   -0.18798E+00   -0.20374E+00  5760   0.151E+01-0.317E+00
CGA:  28    -0.219240056987E+03   -0.15876E+00   -0.15729E+00  5760   0.266E+01 0.768E-01
CGA:  29    -0.219440302701E+03   -0.20025E+00   -0.20526E+00  5760   0.153E+01 0.578E-01
CGA:  30    -0.219526838552E+03   -0.86536E-01   -0.89272E-01  5760   0.878E+00 0.107E-01
CGA:  31    -0.219608912227E+03   -0.82074E-01   -0.82229E-01  5760   0.850E+00 0.453E-01
CGA:  32    -0.219688157176E+03   -0.79245E-01   -0.79574E-01  5760   0.941E+00 0.379E-01
CGA:  33    -0.219780887623E+03   -0.92730E-01   -0.92703E-01  5760   0.799E+00 0.553E-01
CGA:  34    -0.219856682893E+03   -0.75795E-01   -0.76118E-01  5760   0.778E+00 0.462E-01
CGA:  35    -0.219965073786E+03   -0.10839E+00   -0.10739E+00  5760   0.131E+01 0.508E-01
CGA:  36    -0.220164489517E+03   -0.19942E+00   -0.18370E+00  5760   0.775E+00 0.285E+00
CGA:  37    -0.220337212420E+03   -0.17272E+00   -0.18536E+00  5760   0.267E+01-0.133E+00
CGA:  38    -0.220450418322E+03   -0.11321E+00   -0.11066E+00  5760   0.300E+01 0.633E-01
CGA:  39    -0.220584847556E+03   -0.13443E+00   -0.14264E+00  5760   0.186E+01-0.113E-01
CGA:  40    -0.220714715712E+03   -0.12987E+00   -0.13323E+00  5760   0.211E+01 0.157E-01
CGA:  41    -0.220839112910E+03   -0.12440E+00   -0.12723E+00  5760   0.158E+01-0.908E-02
CGA:  42    -0.220967890114E+03   -0.12878E+00   -0.12945E+00  5760   0.166E+01 0.251E-01
CGA:  43    -0.221096155028E+03   -0.12826E+00   -0.12774E+00  5760   0.160E+01-0.375E-02
CGA:  44    -0.221216817454E+03   -0.12066E+00   -0.12409E+00  5760   0.925E+00 0.874E-01
CGA:  45    -0.221326609899E+03   -0.10979E+00   -0.10924E+00  5760   0.827E+00-0.328E+00
CGA:  46    -0.221269705924E+03    0.56904E-01   -0.13157E+00  5760   0.395E+01-0.194E+01
CGA:  47    -0.221427581155E+03   -0.15788E+00   -0.18623E+00  5760   0.144E+01-0.382E+00
CGA:  48    -0.221547483724E+03   -0.11990E+00   -0.11945E+00  5760   0.743E+00-0.226E-01
CGA:  49    -0.221628699828E+03   -0.81216E-01   -0.77312E-01  5760   0.460E+00 0.409E+00
CGA:  50    -0.221667803901E+03   -0.39104E-01   -0.41037E-01  5760   0.314E+00 0.212E+00
CGA:  51    -0.221695164228E+03   -0.27360E-01   -0.34252E-01  5760   0.184E+00 0.160E+00
CGA:  52    -0.221716768722E+03   -0.21604E-01   -0.21154E-01  5760   0.355E+00 0.431E-01
CGA:  53    -0.221748288848E+03   -0.31520E-01   -0.35643E-01  5760   0.287E+00 0.185E+00
CGA:  54    -0.221770585399E+03   -0.22297E-01   -0.23472E-01  5760   0.128E+00 0.378E-01
CGA:  55    -0.221783608647E+03   -0.13023E-01   -0.13039E-01  5760   0.159E+00 0.108E-01
CGA:  56    -0.221826918702E+03   -0.43310E-01   -0.34425E-01  5760   0.307E+00 0.645E-01
CGA:  57    -0.221889115265E+03   -0.62197E-01   -0.57700E-01  5760   0.768E-01 0.817E-01
CGA:  58    -0.221903174875E+03   -0.14060E-01   -0.13307E-01  5760   0.544E-01 0.135E-01
CGA:  59    -0.221911569639E+03   -0.83948E-02   -0.12380E-01  5760   0.252E+00-0.500E-01
CGA:  60    -0.221923592615E+03   -0.12023E-01   -0.14537E-01  5760   0.359E-01-0.138E-01
CGA:  61    -0.221931238719E+03   -0.76461E-02   -0.84761E-02  5760   0.767E-01-0.540E-02
CGA:  62    -0.221939460677E+03   -0.82220E-02   -0.81368E-02  5760   0.900E-01 0.653E-02
CGA:  63    -0.221951241619E+03   -0.11781E-01   -0.11630E-01  5760   0.382E-01 0.142E-01
CGA:  64    -0.221957749534E+03   -0.65079E-02   -0.64535E-02  5760   0.231E-01 0.137E-02
CGA:  65    -0.221961584824E+03   -0.38353E-02   -0.46563E-02  5760   0.368E-01-0.471E-02
CGA:  66    -0.221965794274E+03   -0.42094E-02   -0.40357E-02  5760   0.360E-01 0.824E-02
CGA:  67    -0.221970130907E+03   -0.43366E-02   -0.43678E-02  5760   0.193E-01 0.362E-03
CGA:  68    -0.221972774502E+03   -0.26436E-02   -0.26533E-02  5760   0.981E-02-0.331E-03
CGA:  69    -0.221974144538E+03   -0.13700E-02   -0.13744E-02  5760   0.114E-01-0.269E-04
CGA:  70    -0.221975702144E+03   -0.15576E-02   -0.15567E-02  5760   0.672E-02 0.361E-04
CGA:  71    -0.221976808646E+03   -0.11065E-02   -0.10973E-02  5760   0.766E-02 0.138E-03
CGA:  72    -0.221978004542E+03   -0.11959E-02   -0.12139E-02  5760   0.762E-02-0.310E-03
CGA:  73    -0.221979275678E+03   -0.12711E-02   -0.12629E-02  5760   0.583E-02 0.172E-03
CGA:  74    -0.221980036814E+03   -0.76114E-03   -0.76117E-03  5760   0.511E-02 0.139E-03
CGA:  75    -0.221980860162E+03   -0.82335E-03   -0.82607E-03  5760   0.369E-02-0.123E-03
CGA:  76    -0.221981473157E+03   -0.61300E-03   -0.61588E-03  5760   0.388E-02 0.431E-04
CGA:  77    -0.221981973224E+03   -0.50007E-03   -0.49983E-03  5760   0.319E-02 0.267E-04
CGA:  78    -0.221982761464E+03   -0.78824E-03   -0.79010E-03  5760   0.460E-02 0.133E-04
CGA:  79    -0.221983484300E+03   -0.72284E-03   -0.72352E-03  5760   0.625E-02 0.221E-03
CGA:  80    -0.221984902101E+03   -0.14178E-02   -0.13940E-02  5760   0.647E-02-0.414E-05
CGA:  81    -0.221986172687E+03   -0.12706E-02   -0.12970E-02  5760   0.925E-02-0.261E-03
CGA:  82    -0.221987644691E+03   -0.14720E-02   -0.15054E-02  5760   0.103E-01-0.312E-03
CGA:  83    -0.221989213959E+03   -0.15693E-02   -0.15547E-02  5760   0.793E-02 0.115E-02
CGA:  84    -0.221990098825E+03   -0.88487E-03   -0.90751E-03  5760   0.465E-02-0.682E-04
CGA:  85    -0.221991031909E+03   -0.93308E-03   -0.95039E-03  5760   0.484E-02-0.243E-03
CGA:  86    -0.221991772259E+03   -0.74035E-03   -0.74202E-03  5760   0.453E-02-0.126E-04
CGA:  87    -0.221992307923E+03   -0.53566E-03   -0.53692E-03  5760   0.265E-02 0.349E-04
CGA:  88    -0.221992898851E+03   -0.59093E-03   -0.59166E-03  5760   0.305E-02-0.340E-04
CGA:  89    -0.221993293579E+03   -0.39473E-03   -0.39277E-03  5760   0.253E-02-0.517E-04
SDA:  90    -0.221993708561E+03   -0.41498E-03   -0.41617E-03  5760   0.172E-02-0.477E-04
CGA:  91    -0.221993957472E+03   -0.24891E-03   -0.24896E-03  5760   0.618E-03 0.107E-04
CGA:  92    -0.221994125896E+03   -0.16842E-03   -0.16796E-03  5760   0.102E-02 0.198E-05
CGA:  93    -0.221994283913E+03   -0.15802E-03   -0.15801E-03  5760   0.750E-03-0.519E-05
CGA:  94    -0.221994579133E+03   -0.29522E-03   -0.29474E-03  5760   0.936E-03-0.381E-05
CGA:  95    -0.221994799302E+03   -0.22017E-03   -0.21898E-03  5760   0.481E-03 0.127E-04
CGA:  96    -0.221994966823E+03   -0.16752E-03   -0.16722E-03  5760   0.729E-03 0.139E-05
CGA:  97    -0.221995086519E+03   -0.11970E-03   -0.11994E-03  5760   0.679E-03 0.230E-06
CGA:  98    -0.221995224470E+03   -0.13795E-03   -0.13785E-03  5760   0.319E-03 0.208E-05
CGA:  99    -0.221995327098E+03   -0.10263E-03   -0.10085E-03  5760   0.283E-03 0.109E-04
CGA: 100    -0.221995417821E+03   -0.90724E-04   -0.91426E-04  5760   0.333E-03-0.584E-05
CGA: 101    -0.221995465659E+03   -0.47837E-04   -0.48034E-04  5760   0.286E-03-0.556E-05
CGA: 102    -0.221995541752E+03   -0.76094E-04   -0.76221E-04  5760   0.203E-03-0.197E-05
CGA: 103    -0.221995615430E+03   -0.73678E-04   -0.73217E-04  5760   0.172E-03 0.268E-05
CGA: 104    -0.221995671313E+03   -0.55883E-04   -0.56658E-04  5760   0.197E-03-0.558E-05
CGA: 105    -0.221995707167E+03   -0.35853E-04   -0.35894E-04  5760   0.263E-03-0.167E-05
CGA: 106    -0.221995764085E+03   -0.56919E-04   -0.56813E-04  5760   0.131E-03 0.696E-05
CGA: 107    -0.221995810027E+03   -0.45942E-04   -0.45539E-04  5760   0.141E-03 0.329E-05
CGA: 108    -0.221995862893E+03   -0.52866E-04   -0.52972E-04  5760   0.151E-03-0.273E-06
CGA: 109    -0.221995893056E+03   -0.30163E-04   -0.30238E-04  5760   0.169E-03 0.127E-05
CGA: 110    -0.221995919159E+03   -0.26103E-04   -0.26277E-04  5760   0.108E-03 0.163E-05
CGA: 111    -0.221995959942E+03   -0.40783E-04   -0.40339E-04  5760   0.928E-04 0.186E-05
CGA: 112    -0.221995984661E+03   -0.24719E-04   -0.24818E-04  5760   0.804E-04-0.240E-05
CGA: 113    -0.221996021184E+03   -0.36523E-04   -0.36963E-04  5760   0.122E-03-0.122E-05
CGA: 114    -0.221996038747E+03   -0.17563E-04   -0.17764E-04  5760   0.114E-03-0.278E-05
CGA: 115    -0.221996065271E+03   -0.26524E-04   -0.26532E-04  5760   0.867E-04-0.175E-05
CGA: 116    -0.221996093723E+03   -0.28451E-04   -0.28365E-04  5760   0.585E-04 0.402E-08
CGA: 117    -0.221996112291E+03   -0.18568E-04   -0.18443E-04  5760   0.483E-04 0.141E-05
CGA: 118    -0.221996122855E+03   -0.10564E-04   -0.10596E-04  5760   0.730E-04 0.439E-06
CGA: 119    -0.221996134559E+03   -0.11705E-04   -0.11892E-04  5760   0.295E-04 0.781E-06
CGA: 120    -0.221996144845E+03   -0.10286E-04   -0.10188E-04  5760   0.273E-04 0.959E-06
SDA: 121    -0.221996152951E+03   -0.81058E-05   -0.80625E-05  5760   0.339E-04 0.856E-06
CGA: 122    -0.221996156516E+03   -0.35643E-05   -0.35429E-05  5760   0.189E-04-0.718E-06
CGA: 123    -0.221996160987E+03   -0.44713E-05   -0.44723E-05  5760   0.172E-04-0.878E-06
CGA: 124    -0.221996165661E+03   -0.46746E-05   -0.47065E-05  5760   0.142E-04-0.630E-06
CGA: 125    -0.221996170184E+03   -0.45229E-05   -0.45596E-05  5760   0.913E-05-0.398E-06
CGA: 126    -0.221996174355E+03   -0.41710E-05   -0.43998E-05  5760   0.150E-04-0.101E-05
CGA: 127    -0.221996176511E+03   -0.21557E-05   -0.21660E-05  5760   0.149E-04 0.138E-06
CGA: 128    -0.221996179323E+03   -0.28116E-05   -0.28815E-05  5760   0.724E-05 0.700E-06
CGA: 129    -0.221996181786E+03   -0.24634E-05   -0.24408E-05  5760   0.650E-05 0.318E-06
CGA: 130    -0.221996183669E+03   -0.18826E-05   -0.18787E-05  5760   0.108E-04 0.143E-06
CGA: 131    -0.221996185085E+03   -0.14159E-05   -0.14705E-05  5760   0.455E-05 0.107E-06
CGA: 132    -0.221996186286E+03   -0.12015E-05   -0.11966E-05  5760   0.339E-05 0.481E-06
CGA: 133    -0.221996187446E+03   -0.11597E-05   -0.11577E-05  5760   0.645E-05-0.280E-07
CGA: 134    -0.221996188349E+03   -0.90282E-06   -0.87745E-06  5760   0.399E-05-0.288E-06
CGA: 135    -0.221996189516E+03   -0.11677E-05   -0.11970E-05  5760   0.442E-05-0.451E-06
CGA: 136    -0.221996190340E+03   -0.82337E-06   -0.82019E-06  5760   0.593E-05-0.217E-06
   1 F= -.23298497E+03 E0= -.23298280E+03  d E =-.434589E-02  mag=     6.0000
