 vasp.5.4.4.18Apr17-6-g9f103f2a35 (build Nov 22 2021 14:44:17) complex          
  
 executed on             LinuxIFC date 2022.08.06  11:42:13
 running on   64 total cores
 distrk:  each k-point on   64 cores,    1 groups
 distr:  one band on NCORES_PER_BAND=   4 cores,   16 groups


--------------------------------------------------------------------------------------------------------


 INCAR:
 POTCAR:    PAW_PBE Li 17Jan2003                  
 POTCAR:    PAW_PBE Co 02Aug2007                  
 POTCAR:    PAW_PBE O 08Apr2002                   
 POTCAR:    PAW_PBE Li 17Jan2003                  
   VRHFIN =Li: s1p0                                                             
   LEXCH  = PE                                                                  
   EATOM  =     5.3001 eV,    0.3895 Ry                                         
                                                                                
   TITEL  = PAW_PBE Li 17Jan2003                                                
   LULTRA =        F    use ultrasoft PP ?                                      
   IUNSCR =        1    unscreen: 0-lin 1-nonlin 2-no                           
   RPACOR =    1.500    partial core radius                                     
   POMASS =    7.010; ZVAL   =    1.000    mass and valenz                      
   RCORE  =    2.050    outmost cutoff radius                                   
   RWIGS  =    2.600; RWIGS  =    1.376    wigner-seitz radius (au A)           
   ENMAX  =  140.000; ENMIN  =  100.000 eV                                      
   ICORE  =        2    local potential                                         
   LCOR   =        T    correct aug charges                                     
   LPAW   =        T    paw PP                                                  
   EAUG   =  331.638                                                            
   DEXC   =    0.000                                                            
   RMAX   =    2.098    core radius for proj-oper                               
   RAUG   =    1.300    factor for augmentation sphere                          
   RDEP   =    2.094    radius for radial grids                                 
   RDEPT  =    1.810    core radius for aug-charge                              
                                                                                
   Atomic configuration                                                         
    4 entries                                                                   
     n  l   j            E        occ.                                          
     1  0  0.50       -51.8549   2.0000                                         
     2  0  0.50        -2.8742   1.0000                                         
     2  1  0.50        -1.3606   0.0000                                         
     3  2  1.50        -1.3606   0.0000                                         
   Description                                                                  
     l       E           TYP  RCUT    TYP  RCUT                                 
     0     -2.8742052     23  2.050                                             
     0     27.2116520     23  2.050                                             
     1     -1.3605826     23  2.050                                             
     2     -1.3605826     23  2.050                                             
  local pseudopotential read in
  partial core-charges read in
  partial kinetic energy density read in
  atomic valenz-charges read in
  non local Contribution for L=           0  read in
    real space projection operators read in
  non local Contribution for L=           0  read in
    real space projection operators read in
  non local Contribution for L=           1  read in
    real space projection operators read in
    PAW grid and wavefunctions read in
 
   number of l-projection  operators is LMAX  =           3
   number of lm-projection operators is LMMAX =           5
 
 POTCAR:    PAW_PBE Co 02Aug2007                  
   VRHFIN =Co: d8 s1                                                            
   LEXCH  = PE                                                                  
   EATOM  =   813.3670 eV,   59.7808 Ry                                         
                                                                                
   TITEL  = PAW_PBE Co 02Aug2007                                                
   LULTRA =        F    use ultrasoft PP ?                                      
   IUNSCR =        1    unscreen: 0-lin 1-nonlin 2-no                           
   RPACOR =    2.000    partial core radius                                     
   POMASS =   58.933; ZVAL   =    9.000    mass and valenz                      
   RCORE  =    2.300    outmost cutoff radius                                   
   RWIGS  =    2.460; RWIGS  =    1.302    wigner-seitz radius (au A)           
   ENMAX  =  267.968; ENMIN  =  200.976 eV                                      
   RCLOC  =    1.203    cutoff for local pot                                    
   LCOR   =        T    correct aug charges                                     
   LPAW   =        T    paw PP                                                  
   EAUG   =  477.818                                                            
   DEXC   =    0.000                                                            
   RMAX   =    2.360    core radius for proj-oper                               
   RAUG   =    1.300    factor for augmentation sphere                          
   RDEP   =    2.393    radius for radial grids                                 
   RDEPT  =    1.864    core radius for aug-charge                              
                                                                                
   Atomic configuration                                                         
    9 entries                                                                   
     n  l   j            E        occ.                                          
     1  0  0.50     -7587.6674   2.0000                                         
     2  0  0.50      -893.6084   2.0000                                         
     2  1  1.50      -764.5805   6.0000                                         
     3  0  0.50       -97.5973   2.0000                                         
     3  1  1.50       -60.9648   6.0000                                         
     3  2  2.50        -4.2382   8.0000                                         
     4  0  0.50        -4.3746   1.0000                                         
     4  1  1.50        -4.0817   0.0000                                         
     4  3  2.50        -1.3606   0.0000                                         
   Description                                                                  
     l       E           TYP  RCUT    TYP  RCUT                                 
     2     -4.2382362     23  2.300                                             
     2     -5.5988188     23  2.300                                             
     0     -4.3745797     23  2.300                                             
     0      5.7660125     23  2.300                                             
     1     -2.7211652     23  2.300                                             
     1     16.9860234     23  2.300                                             
  local pseudopotential read in
  partial core-charges read in
  partial kinetic energy density read in
  atomic valenz-charges read in
  non local Contribution for L=           2  read in
    real space projection operators read in
  non local Contribution for L=           2  read in
    real space projection operators read in
  non local Contribution for L=           0  read in
    real space projection operators read in
  non local Contribution for L=           0  read in
    real space projection operators read in
  non local Contribution for L=           1  read in
    real space projection operators read in
  non local Contribution for L=           1  read in
    real space projection operators read in
    PAW grid and wavefunctions read in
 
   number of l-projection  operators is LMAX  =           6
   number of lm-projection operators is LMMAX =          18
 
 POTCAR:    PAW_PBE O 08Apr2002                   
   VRHFIN =O: s2p4                                                              
   LEXCH  = PE                                                                  
   EATOM  =   432.3788 eV,   31.7789 Ry                                         
                                                                                
   TITEL  = PAW_PBE O 08Apr2002                                                 
   LULTRA =        F    use ultrasoft PP ?                                      
   IUNSCR =        1    unscreen: 0-lin 1-nonlin 2-no                           
   RPACOR =    1.200    partial core radius                                     
   POMASS =   16.000; ZVAL   =    6.000    mass and valenz                      
   RCORE  =    1.520    outmost cutoff radius                                   
   RWIGS  =    1.550; RWIGS  =    0.820    wigner-seitz radius (au A)           
   ENMAX  =  400.000; ENMIN  =  300.000 eV                                      
   ICORE  =        2    local potential                                         
   LCOR   =        T    correct aug charges                                     
   LPAW   =        T    paw PP                                                  
   EAUG   =  605.392                                                            
   DEXC   =    0.000                                                            
   RMAX   =    1.553    core radius for proj-oper                               
   RAUG   =    1.300    factor for augmentation sphere                          
   RDEP   =    1.550    radius for radial grids                                 
   RDEPT  =    1.329    core radius for aug-charge                              
                                                                                
   Atomic configuration                                                         
    4 entries                                                                   
     n  l   j            E        occ.                                          
     1  0  0.50      -514.6923   2.0000                                         
     2  0  0.50       -23.9615   2.0000                                         
     2  1  0.50        -9.0305   4.0000                                         
     3  2  1.50        -9.5241   0.0000                                         
   Description                                                                  
     l       E           TYP  RCUT    TYP  RCUT                                 
     0    -23.9615318     23  1.200                                             
     0     -9.5240782     23  1.200                                             
     1     -9.0304911     23  1.520                                             
     1      8.1634956     23  1.520                                             
     2     -9.5240782      7  1.500                                             
  local pseudopotential read in
  partial core-charges read in
  partial kinetic energy density read in
  kinetic energy density of atom read in
  atomic valenz-charges read in
  non local Contribution for L=           0  read in
    real space projection operators read in
  non local Contribution for L=           0  read in
    real space projection operators read in
  non local Contribution for L=           1  read in
    real space projection operators read in
  non local Contribution for L=           1  read in
    real space projection operators read in
    PAW grid and wavefunctions read in
 
   number of l-projection  operators is LMAX  =           4
   number of lm-projection operators is LMMAX =           8
 
 Optimization of the real space projectors (new method)

 maximal supplied QI-value         = 18.33
 optimisation between [QCUT,QGAM] = [ 12.46, 24.93] = [ 43.51,174.03] Ry 
 Optimized for a Real-space Cutoff    1.13 Angstroem

   l    n(q)    QCUT    max X(q) W(low)/X(q) W(high)/X(q)  e(spline) 
   0      8    12.465    33.825    0.12E-03    0.29E-03    0.99E-07
   0      8    12.465     8.944    0.86E-04    0.22E-03    0.72E-07
   1      8    12.465     4.214    0.27E-03    0.11E-03    0.82E-07
 Optimization of the real space projectors (new method)

 maximal supplied QI-value         = 16.25
 optimisation between [QCUT,QGAM] = [ 12.51, 25.03] = [ 43.85,175.40] Ry 
 Optimized for a Real-space Cutoff    1.31 Angstroem

   l    n(q)    QCUT    max X(q) W(low)/X(q) W(high)/X(q)  e(spline) 
   2      9    12.514    65.824    0.30E-03    0.46E-03    0.43E-06
   2      9    12.514    61.429    0.31E-03    0.46E-03    0.44E-06
   0     10    12.514    56.174    0.90E-04    0.33E-03    0.30E-06
   0     10    12.514    31.263    0.81E-04    0.30E-03    0.28E-06
   1      9    12.514    19.828    0.38E-03    0.65E-04    0.24E-06
   1      9    12.514    15.139    0.32E-03    0.60E-04    0.20E-06
 Optimization of the real space projectors (new method)

 maximal supplied QI-value         = 24.76
 optimisation between [QCUT,QGAM] = [ 12.38, 25.00] = [ 42.90,175.06] Ry 
 Optimized for a Real-space Cutoff    1.13 Angstroem

   l    n(q)    QCUT    max X(q) W(low)/X(q) W(high)/X(q)  e(spline) 
   0      8    12.378    20.381    0.16E-03    0.54E-05    0.27E-06
   0      8    12.378    15.268    0.17E-03    0.61E-05    0.29E-06
   1      8    12.378     5.964    0.38E-03    0.23E-03    0.28E-06
   1      8    12.378     5.382    0.33E-03    0.20E-03    0.25E-06
  PAW_PBE Li 17Jan2003                  :
 energy of atom  1       EATOM=   -5.3001
 kinetic energy error for atom=    0.0000 (will be added to EATOM!!)
  PAW_PBE Co 02Aug2007                  :
 energy of atom  2       EATOM= -813.3670
 kinetic energy error for atom=    0.0018 (will be added to EATOM!!)
  PAW_PBE O 08Apr2002                   :
 energy of atom  3       EATOM= -432.3788
 kinetic energy error for atom=    0.0168 (will be added to EATOM!!)
 
 
 POSCAR: Li6 Co12 O24                            
  positions in cartesian coordinates
  No initial velocities read in
 exchange correlation table for  LEXCH =        8
   RHO(1)=    0.500       N(1)  =     2000
   RHO(2)=  100.500       N(2)  =     4000
 


--------------------------------------------------------------------------------------------------------


 ion  position               nearest neighbor table
   1  0.007  0.070  0.984-  35 1.94  38 1.94  25 2.01  36 2.04  23 2.10  26 2.24  17 2.61  15 2.68
                            18 2.71   3 2.74   7 2.80   2 2.81   2 2.83   3 2.86  10 2.97   8 2.99
   2  0.472  0.993  0.992-  38 1.87  24 1.94  36 1.99  23 2.11  25 2.12  37 2.30   3 2.59  16 2.61
                             8 2.76   1 2.81   1 2.83  15 2.84   9 2.86  17 2.87  10 2.87   3 2.96
   3  0.510  0.546  0.993-  37 1.83  38 1.95  23 2.08  26 2.10  24 2.11  35 2.12   2 2.59   1 2.74
                            10 2.76   9 2.76  18 2.77  16 2.80  15 2.80   7 2.83   1 2.86   2 2.96
   4  0.813  0.571  0.323-  20 1.94  22 2.11  33 2.18  34 2.28  32 2.44   9 2.73  14 3.14   8 3.17
                            11 3.18  12 3.18  10 3.21
   5  0.598  0.315  0.681-  41 1.86  27 2.04  42 2.14  30 2.15  40 2.17   6 2.57  15 2.64  14 2.66
                            17 2.81  18 2.95   6 3.03  13 3.19
   6  0.688  0.902  0.682-  39 1.90  29 1.90  41 2.07  42 2.15  28 2.39   5 2.57  17 2.68  18 2.74
                            13 2.80  16 2.89  11 3.01   5 3.03
   7  0.181  0.372  0.151-  19 1.81  23 1.87  20 1.90  24 1.92  22 1.95  25 1.99   8 2.70  10 2.77
                             9 2.78   1 2.80   9 2.81  10 2.82   8 2.83   3 2.83
   8  0.181  0.884  0.152-  26 1.87  24 1.87  23 1.90  21 1.90  20 1.95  19 1.98   7 2.70  10 2.72
                             2 2.76   9 2.77   9 2.82   7 2.83  10 2.87   1 2.99   4 3.17
   9  0.683  0.372  0.145-  21 1.82  20 1.84  25 1.85  22 1.91  23 1.92  26 1.92  10 2.70   4 2.73
                             3 2.76   8 2.77   7 2.78   7 2.81   8 2.82  10 2.83   2 2.86
  10  0.683  0.861  0.154-  26 1.79  19 1.83  22 1.83  24 1.84  25 1.93  21 1.97   9 2.70   8 2.72
                             3 2.76   7 2.77   7 2.82   9 2.83   2 2.87   8 2.87   1 2.97   4 3.21
  11  0.992  0.915  0.512-  30 1.80  29 1.81  27 1.84  32 1.84  31 1.92  34 1.94  12 2.72  14 2.73
                            13 2.74  12 2.81  13 2.85  14 2.86   6 3.01   4 3.18
  12  0.998  0.410  0.510-  29 1.78  31 1.82  32 1.86  28 1.88  33 1.91  30 1.96  11 2.72  13 2.75
                            14 2.78  11 2.81  14 2.81  13 2.85   4 3.18
  13  0.480  0.911  0.507-  32 1.78  28 1.95  27 1.96  29 1.98  34 1.98  33 2.08  11 2.74  12 2.75
                            14 2.76  14 2.78   6 2.80  12 2.85  11 2.85   5 3.19
  14  0.507  0.423  0.511-  34 1.80  33 1.83  30 1.85  27 1.90  31 1.90  28 1.97   5 2.66  11 2.73
                            13 2.76  13 2.78  12 2.78  12 2.81  11 2.86   4 3.14
  15  0.324  0.199  0.836-  36 1.79  35 1.80  37 1.82  41 1.85  39 1.89  42 1.95   5 2.64   1 2.68
                            16 2.73  18 2.74  17 2.80  16 2.80  17 2.80   3 2.80   2 2.84  18 2.85
  16  0.327  0.707  0.838-  42 1.82  35 1.85  36 1.89  41 1.92  38 1.96  40 2.01   2 2.61  15 2.73
                            18 2.78  17 2.79   3 2.80  15 2.80  17 2.80  18 2.81   6 2.89
  17  0.829  0.209  0.839-  41 1.83  40 1.85  35 1.86  38 1.98  39 1.99  37 2.08   1 2.61   6 2.68
                            18 2.73  16 2.79  15 2.80  18 2.80  15 2.80  16 2.80   5 2.81   2 2.87
  18  0.828  0.714  0.837-  39 1.77  40 1.81  42 1.84  36 1.86  37 1.89  38 1.94   1 2.71  17 2.73
                             6 2.74  15 2.74   3 2.77  16 2.78  17 2.80  16 2.81  15 2.85   5 2.95
  19  0.004  0.065  0.219-   7 1.81  10 1.83   8 1.98
  20  0.000  0.532  0.217-   9 1.84   7 1.90   4 1.94   8 1.95
  21  0.527  0.066  0.216-   9 1.82   8 1.90  10 1.97
  22  0.528  0.543  0.221-  10 1.83   9 1.91   7 1.95   4 2.11
  23  0.337  0.206  0.079-   7 1.87   8 1.90   9 1.92   3 2.08   1 2.10   2 2.11
  24  0.356  0.722  0.089-  10 1.84   8 1.87   7 1.92   2 1.94   3 2.11
  25  0.827  0.188  0.079-   9 1.85  10 1.93   7 1.99   1 2.01   2 2.12
  26  0.851  0.722  0.084-  10 1.79   8 1.87   9 1.92   3 2.10   1 2.24
  27  0.317  0.092  0.579-  11 1.84  14 1.90  13 1.96   5 2.04
  28  0.321  0.581  0.583-  12 1.88  13 1.95  14 1.97   6 2.39
  29  0.842  0.094  0.572-  12 1.78  11 1.81   6 1.90  13 1.98
  30  0.837  0.602  0.577-  11 1.80  14 1.85  12 1.96   5 2.15
  31  0.164  0.255  0.445-  12 1.82  14 1.90  11 1.92
  32  0.155  0.746  0.448-  13 1.78  11 1.84  12 1.86   4 2.44
  33  0.671  0.282  0.436-  14 1.83  12 1.91  13 2.08   4 2.18
  34  0.652  0.725  0.440-  14 1.80  11 1.94  13 1.98   4 2.28
  35  0.172  0.371  0.898-  15 1.80  16 1.85  17 1.86   1 1.94   3 2.12
  36  0.165  0.887  0.901-  15 1.79  18 1.86  16 1.89   2 1.99   1 2.04
  37  0.633  0.391  0.907-  15 1.82   3 1.83  18 1.89  17 2.08   2 2.30
  38  0.661  0.873  0.916-   2 1.87   1 1.94  18 1.94   3 1.95  16 1.96  17 1.98
  39  0.988  0.014  0.768-  18 1.77  15 1.89   6 1.90  17 1.99
  40  0.960  0.530  0.771-  18 1.81  17 1.85  16 2.01   5 2.17
  41  0.504  0.049  0.772-  17 1.83  15 1.85   5 1.86  16 1.92   6 2.07
  42  0.497  0.554  0.773-  16 1.82  18 1.84  15 1.95   5 2.14   6 2.15
 

IMPORTANT INFORMATION: All symmetrisations will be switched off!
NOSYMM: (Re-)initialisation of all symmetry stuff for point group C_1.

 
 

Automatic generation of k-mesh.
 generate k-points for:    6    6    2
Space group operators:
 irot       det(A)        alpha          n_x          n_y          n_z        tau_x        tau_y        tau_z
    1     1.000000     0.000000     1.000000     0.000000     0.000000     0.000000     0.000000     0.000000
 
 Subroutine IBZKPT returns following result:
 ===========================================
 
 Found     36 irreducible k-points:
 
 Following reciprocal coordinates:
            Coordinates               Weight
  0.083333  0.083333  0.250000      2.000000
  0.250000  0.083333  0.250000      2.000000
  0.416667  0.083333  0.250000      2.000000
 -0.416667  0.083333  0.250000      2.000000
 -0.250000  0.083333  0.250000      2.000000
 -0.083333  0.083333  0.250000      2.000000
  0.083333  0.250000  0.250000      2.000000
  0.250000  0.250000  0.250000      2.000000
  0.416667  0.250000  0.250000      2.000000
 -0.416667  0.250000  0.250000      2.000000
 -0.250000  0.250000  0.250000      2.000000
 -0.083333  0.250000  0.250000      2.000000
  0.083333  0.416667  0.250000      2.000000
  0.250000  0.416667  0.250000      2.000000
  0.416667  0.416667  0.250000      2.000000
 -0.416667  0.416667  0.250000      2.000000
 -0.250000  0.416667  0.250000      2.000000
 -0.083333  0.416667  0.250000      2.000000
  0.083333 -0.416667  0.250000      2.000000
  0.250000 -0.416667  0.250000      2.000000
  0.416667 -0.416667  0.250000      2.000000
 -0.416667 -0.416667  0.250000      2.000000
 -0.250000 -0.416667  0.250000      2.000000
 -0.083333 -0.416667  0.250000      2.000000
  0.083333 -0.250000  0.250000      2.000000
  0.250000 -0.250000  0.250000      2.000000
  0.416667 -0.250000  0.250000      2.000000
 -0.416667 -0.250000  0.250000      2.000000
 -0.250000 -0.250000  0.250000      2.000000
 -0.083333 -0.250000  0.250000      2.000000
  0.083333 -0.083333  0.250000      2.000000
  0.250000 -0.083333  0.250000      2.000000
  0.416667 -0.083333  0.250000      2.000000
 -0.416667 -0.083333  0.250000      2.000000
 -0.250000 -0.083333  0.250000      2.000000
 -0.083333 -0.083333  0.250000      2.000000
 
 Following cartesian coordinates:
            Coordinates               Weight
  0.014902  0.025805  0.017933      2.000000
  0.044707  0.042744  0.018715      2.000000
  0.074511  0.059682  0.019497      2.000000
 -0.074511 -0.025010  0.015587      2.000000
 -0.044707 -0.008072  0.016369      2.000000
 -0.014902  0.008867  0.017151      2.000000
  0.014902  0.060477  0.018609      2.000000
  0.044707  0.077416  0.019391      2.000000
  0.074511  0.094354  0.020173      2.000000
 -0.074511  0.009661  0.016263      2.000000
 -0.044707  0.026600  0.017045      2.000000
 -0.014902  0.043539  0.017827      2.000000
  0.014902  0.095149  0.019285      2.000000
  0.044707  0.112088  0.020067      2.000000
  0.074511  0.129026  0.020849      2.000000
 -0.074511  0.044333  0.016938      2.000000
 -0.044707  0.061272  0.017720      2.000000
 -0.014902  0.078210  0.018503      2.000000
  0.014902 -0.078210  0.015906      2.000000
  0.044707 -0.061272  0.016688      2.000000
  0.074511 -0.044333  0.017470      2.000000
 -0.074511 -0.129026  0.013560      2.000000
 -0.044707 -0.112088  0.014342      2.000000
 -0.014902 -0.095149  0.015124      2.000000
  0.014902 -0.043539  0.016582      2.000000
  0.044707 -0.026600  0.017364      2.000000
  0.074511 -0.009661  0.018146      2.000000
 -0.074511 -0.094354  0.014235      2.000000
 -0.044707 -0.077416  0.015018      2.000000
 -0.014902 -0.060477  0.015800      2.000000
  0.014902 -0.008867  0.017258      2.000000
  0.044707  0.008072  0.018040      2.000000
  0.074511  0.025010  0.018822      2.000000
 -0.074511 -0.059682  0.014911      2.000000
 -0.044707 -0.042744  0.015693      2.000000
 -0.014902 -0.025805  0.016475      2.000000
 


--------------------------------------------------------------------------------------------------------




 Dimension of arrays:
   k-points           NKPTS =     36   k-points in BZ     NKDIM =     36   number of bands    NBANDS=    160
   number of dos      NEDOS =    301   number of ions     NIONS =     42
   non local maximal  LDIM  =      6   non local SUM 2l+1 LMDIM =     18
   total plane-waves  NPLWV = 116640
   max r-space proj   IRMAX =   2840   max aug-charges    IRDMAX=  11975
   dimension x,y,z NGX =    36 NGY =   36 NGZ =   90
   dimension x,y,z NGXF=    72 NGYF=   72 NGZF=  180
   support grid    NGXF=    72 NGYF=   72 NGZF=  180
   ions per type =               6  12  24
   NGX,Y,Z   is equivalent  to a cutoff of  10.70, 10.82, 10.29 a.u.
   NGXF,Y,Z  is equivalent  to a cutoff of  21.40, 21.65, 20.59 a.u.

 SYSTEM =  LiCoO2                                  
 POSCAR =  Li6 Co12 O24                            

 Startparameter for this run:
   NWRITE =      2    write-flag & timer
   PREC   = normal    normal or accurate (medium, high low for compatibility)
   ISTART =      0    job   : 0-new  1-cont  2-samecut
   ICHARG =      2    charge: 1-file 2-atom 10-const
   ISPIN  =      2    spin polarized calculation?
   LNONCOLLINEAR =      F non collinear calculations
   LSORBIT =      F    spin-orbit coupling
   INIWAV =      1    electr: 0-lowe 1-rand  2-diag
   LASPH  =      F    aspherical Exc in radial PAW
   METAGGA=      F    non-selfconsistent MetaGGA calc.

 Electronic Relaxation 1
   ENCUT  =  600.0 eV  44.10 Ry    6.64 a.u.  11.17 11.04 29.03*2*pi/ulx,y,z
   ENINI  =  600.0     initial cutoff
   ENAUG  =  605.4 eV  augmentation charge cutoff
   NELM   =    600;   NELMIN=  2; NELMDL= -5     # of ELM steps 
   EDIFF  = 0.1E-05   stopping-criterion for ELM
   LREAL  =      T    real-space projection
   NLSPLINE    = F    spline interpolate recip. space projectors
   LCOMPAT=      F    compatible to vasp.4.4
   GGA_COMPAT  = T    GGA compatible to vasp.4.4-vasp.4.6
   LMAXPAW     = -100 max onsite density
   LMAXMIX     =    2 max onsite mixed and CHGCAR
   VOSKOWN=      0    Vosko Wilk Nusair interpolation
   ROPT   =   -0.00050  -0.00050  -0.00050
 Ionic relaxation
   EDIFFG = 0.1E-04   stopping-criterion for IOM
   NSW    =      0    number of steps for IOM
   NBLOCK =      1;   KBLOCK =      1    inner block; outer block 
   IBRION =     -1    ionic relax: 0-MD 1-quasi-New 2-CG
   NFREE  =      0    steps in history (QN), initial steepest desc. (CG)
   ISIF   =      2    stress and relaxation
   IWAVPR =     10    prediction:  0-non 1-charg 2-wave 3-comb
   ISYM   =      0    0-nonsym 1-usesym 2-fastsym
   LCORR  =      T    Harris-Foulkes like correction to forces

   POTIM  = 0.5000    time-step for ionic-motion
   TEIN   =    0.0    initial temperature
   TEBEG  =    0.0;   TEEND  =   0.0 temperature during run
   SMASS  =  -3.00    Nose mass-parameter (am)
   estimated Nose-frequenzy (Omega)   =  0.10E-29 period in steps =****** mass=  -0.715E-27a.u.
   SCALEE = 1.0000    scale energy and forces
   NPACO  =    256;   APACO  = 16.0  distance and # of slots for P.C.
   PSTRESS=    0.0 pullay stress

  Mass of Ions in am
   POMASS =   7.01 58.93 16.00
  Ionic Valenz
   ZVAL   =   1.00  9.00  6.00
  Atomic Wigner-Seitz radii
   RWIGS  =  -1.00 -1.00 -1.00
  virtual crystal weights 
   VCA    =   1.00  1.00  1.00
   NELECT =     258.0000    total number of electrons
   NUPDOWN=       6.0000    fix difference up-down

 DOS related values:
   EMIN   =  10.00;   EMAX   =-10.00  energy-range for DOS
   EFERMI =   0.00
   ISMEAR =     0;   SIGMA  =   0.05  broadening in eV -4-tet -1-fermi 0-gaus

 Electronic relaxation 2 (details)
   IALGO  =     58    algorithm
   LDIAG  =      T    sub-space diagonalisation (order eigenvalues)
   LSUBROT=      F    optimize rotation matrix (better conditioning)
   TURBO    =      0    0=normal 1=particle mesh
   IRESTART =      0    0=no restart 2=restart with 2 vectors
   NREBOOT  =      0    no. of reboots
   NMIN     =      0    reboot dimension
   EREF     =   0.00    reference energy to select bands
   IMIX   =      4    mixing-type and parameters
     AMIX     =   0.40;   BMIX     =  1.00
     AMIX_MAG =   1.60;   BMIX_MAG =  1.00
     AMIN     =   0.10
     WC   =   100.;   INIMIX=   1;  MIXPRE=   1;  MAXMIX= -45

 Intra band minimization:
   WEIMIN = 0.0000     energy-eigenvalue tresh-hold
   EBREAK =  0.16E-08  absolut break condition
   DEPER  =   0.30     relativ break condition  

   TIME   =   0.40     timestep for ELM

  volume/ion in A,a.u.               =       9.30        62.76
  Fermi-wavevector in a.u.,A,eV,Ry     =   1.425720  2.694220 27.656252  2.032677
  Thomas-Fermi vector in A             =   2.546074
 
 Write flags
   LWAVE        =      F    write WAVECAR
   LDOWNSAMPLE  =      F    k-point downsampling of WAVECAR
   LCHARG       =      F    write CHGCAR
   LVTOT        =      F    write LOCPOT, total local potential
   LVHAR        =      F    write LOCPOT, Hartree potential only
   LELF         =      F    write electronic localiz. function (ELF)
   LORBIT       =     11    0 simple, 1 ext, 2 COOP (PROOUT), +10 PAW based schemes


 Dipole corrections
   LMONO  =      F    monopole corrections only (constant potential shift)
   LDIPOL =      F    correct potential (dipole corrections)
   IDIPOL =      0    1-x, 2-y, 3-z, 4-all directions 
   EPSILON=  1.0000000 bulk dielectric constant

 LDA+U is selected, type is set to LDAUTYPE =  2
   angular momentum for each species LDAUL =    -1    2   -1
   U (eV)           for each species LDAUU =   0.0  5.1  0.0
   J (eV)           for each species LDAUJ =   0.0  0.0  0.0
 Exchange correlation treatment:
   GGA     =    --    GGA type
   LEXCH   =     8    internal setting for exchange type
   VOSKOWN=      0    Vosko Wilk Nusair interpolation
   LHFCALC =     F    Hartree Fock is set to
   LHFONE  =     F    Hartree Fock one center treatment
   AEXX    =    0.0000 exact exchange contribution

 Linear response parameters
   LEPSILON=     F    determine dielectric tensor
   LRPA    =     F    only Hartree local field effects (RPA)
   LNABLA  =     F    use nabla operator in PAW spheres
   LVEL    =     F    velocity operator in full k-point grid
   LINTERFAST=   F  fast interpolation
   KINTER  =     0    interpolate to denser k-point grid
   CSHIFT  =0.1000    complex shift for real part using Kramers Kronig
   OMEGAMAX=  -1.0    maximum frequency
   DEG_THRESHOLD= 0.2000000E-02 threshold for treating states as degnerate
   RTIME   =   -0.100 relaxation time in fs
  (WPLASMAI=    0.000 imaginary part of plasma frequency in eV, 0.658/RTIME)
   DFIELD  = 0.0000000 0.0000000 0.0000000 field for delta impulse in time
 
 Orbital magnetization related:
   ORBITALMAG=     F  switch on orbital magnetization
   LCHIMAG   =     F  perturbation theory with respect to B field
   DQ        =  0.001000  dq finite difference perturbation B field
   LLRAUG    =     F  two centre corrections for induced B field



--------------------------------------------------------------------------------------------------------


 Static calculation
 charge density and potential will be updated during run
 spin polarized calculation
 Conjugate gradient for all bands (Freysoldt, et al. PRB 79, 241103 (2009))
 preconditioned conjugated gradient                                        
 perform sub-space diagonalisation
    before iterative eigenvector-optimisation
 modified Broyden-mixing scheme, WC =      100.0
 initial mixing is a Kerker type mixing with AMIX =  0.4000 and BMIX =      1.0000
 Hartree-type preconditioning will be used
 using additional bands           31
 real space projection scheme for non local part
 use partial core corrections
 no Harris-corrections to forces 
 use gradient corrections 
 use of overlap-Matrix (Vanderbilt PP)
 Gauss-broadening in eV      SIGMA  =   0.05


--------------------------------------------------------------------------------------------------------


  energy-cutoff  :      600.00
  volume of cell :      390.61
      direct lattice vectors                 reciprocal lattice vectors
     5.592015266  0.000000000  0.000000000     0.178826407  0.101631374  0.004692696
    -2.731917143  4.806969643  0.000000000     0.000000000  0.208031270  0.004054258
    -0.220376447 -0.283194363 14.531212807     0.000000000  0.000000000  0.068817380

  length of vectors
     5.592015266  5.529044078 14.535642760     0.205742172  0.208070772  0.068817380


 
 k-points in units of 2pi/SCALE and weight: read from INCAR                         
   0.01490220  0.02580522  0.01793326       0.028
   0.04470660  0.04274378  0.01871537       0.028
   0.07451100  0.05968234  0.01949749       0.028
  -0.07451100 -0.02501047  0.01558691       0.028
  -0.04470660 -0.00807190  0.01636903       0.028
  -0.01490220  0.00886666  0.01715114       0.028
   0.01490220  0.06047710  0.01860897       0.028
   0.04470660  0.07741566  0.01939108       0.028
   0.07451100  0.09435422  0.02017320       0.028
  -0.07451100  0.00966141  0.01626262       0.028
  -0.04470660  0.02659997  0.01704474       0.028
  -0.01490220  0.04353854  0.01782685       0.028
   0.01490220  0.09514898  0.01928468       0.028
   0.04470660  0.11208754  0.02006679       0.028
   0.07451100  0.12902610  0.02084891       0.028
  -0.07451100  0.04433329  0.01693833       0.028
  -0.04470660  0.06127185  0.01772045       0.028
  -0.01490220  0.07821041  0.01850256       0.028
   0.01490220 -0.07821041  0.01590613       0.028
   0.04470660 -0.06127185  0.01668824       0.028
   0.07451100 -0.04433329  0.01747036       0.028
  -0.07451100 -0.12902610  0.01355978       0.028
  -0.04470660 -0.11208754  0.01434190       0.028
  -0.01490220 -0.09514898  0.01512401       0.028
   0.01490220 -0.04353854  0.01658184       0.028
   0.04470660 -0.02659997  0.01736395       0.028
   0.07451100 -0.00966141  0.01814607       0.028
  -0.07451100 -0.09435422  0.01423549       0.028
  -0.04470660 -0.07741566  0.01501761       0.028
  -0.01490220 -0.06047710  0.01579972       0.028
   0.01490220 -0.00886666  0.01725755       0.028
   0.04470660  0.00807190  0.01803966       0.028
   0.07451100  0.02501047  0.01882178       0.028
  -0.07451100 -0.05968234  0.01491120       0.028
  -0.04470660 -0.04274378  0.01569332       0.028
  -0.01490220 -0.02580522  0.01647543       0.028
 
 k-points in reciprocal lattice and weights: read from INCAR                         
   0.08333333  0.08333333  0.25000000       0.028
   0.25000000  0.08333333  0.25000000       0.028
   0.41666667  0.08333333  0.25000000       0.028
  -0.41666667  0.08333333  0.25000000       0.028
  -0.25000000  0.08333333  0.25000000       0.028
  -0.08333333  0.08333333  0.25000000       0.028
   0.08333333  0.25000000  0.25000000       0.028
   0.25000000  0.25000000  0.25000000       0.028
   0.41666667  0.25000000  0.25000000       0.028
  -0.41666667  0.25000000  0.25000000       0.028
  -0.25000000  0.25000000  0.25000000       0.028
  -0.08333333  0.25000000  0.25000000       0.028
   0.08333333  0.41666667  0.25000000       0.028
   0.25000000  0.41666667  0.25000000       0.028
   0.41666667  0.41666667  0.25000000       0.028
  -0.41666667  0.41666667  0.25000000       0.028
  -0.25000000  0.41666667  0.25000000       0.028
  -0.08333333  0.41666667  0.25000000       0.028
   0.08333333 -0.41666667  0.25000000       0.028
   0.25000000 -0.41666667  0.25000000       0.028
   0.41666667 -0.41666667  0.25000000       0.028
  -0.41666667 -0.41666667  0.25000000       0.028
  -0.25000000 -0.41666667  0.25000000       0.028
  -0.08333333 -0.41666667  0.25000000       0.028
   0.08333333 -0.25000000  0.25000000       0.028
   0.25000000 -0.25000000  0.25000000       0.028
   0.41666667 -0.25000000  0.25000000       0.028
  -0.41666667 -0.25000000  0.25000000       0.028
  -0.25000000 -0.25000000  0.25000000       0.028
  -0.08333333 -0.25000000  0.25000000       0.028
   0.08333333 -0.08333333  0.25000000       0.028
   0.25000000 -0.08333333  0.25000000       0.028
   0.41666667 -0.08333333  0.25000000       0.028
  -0.41666667 -0.08333333  0.25000000       0.028
  -0.25000000 -0.08333333  0.25000000       0.028
  -0.08333333 -0.08333333  0.25000000       0.028
 
 position of ions in fractional coordinates (direct lattice) 
   0.00730441  0.07002272  0.98422546
   0.47153522  0.99284084  0.99195371
   0.51038142  0.54567885  0.99303410
   0.81275586  0.57126492  0.32265166
   0.59836733  0.31469708  0.68112003
   0.68849618  0.90164113  0.68243373
   0.18066078  0.37249399  0.15094679
   0.18085656  0.88408925  0.15243945
   0.68258528  0.37232845  0.14541801
   0.68320292  0.86095672  0.15368572
   0.99157297  0.91505847  0.51165722
   0.99767493  0.41017930  0.50975374
   0.47971529  0.91066278  0.50731347
   0.50665695  0.42250357  0.51057473
   0.32380741  0.19939671  0.83580018
   0.32744976  0.70715153  0.83767888
   0.82870865  0.20892410  0.83851159
   0.82815665  0.71438133  0.83694941
   0.00439258  0.06456251  0.21946069
   0.00001505  0.53182898  0.21672658
   0.52652880  0.06602856  0.21641414
   0.52758777  0.54255703  0.22074965
   0.33685598  0.20608513  0.07925629
   0.35638650  0.72178167  0.08853494
   0.82715941  0.18815620  0.07927831
   0.85085212  0.72233390  0.08413682
   0.31666684  0.09205565  0.57899712
   0.32121466  0.58106726  0.58300090
   0.84238897  0.09441574  0.57209330
   0.83660903  0.60186819  0.57699660
   0.16377418  0.25457229  0.44468140
   0.15478764  0.74603770  0.44842231
   0.67053580  0.28170149  0.43585074
   0.65172350  0.72492596  0.43979329
   0.17248212  0.37055920  0.89785281
   0.16501664  0.88694221  0.90088075
   0.63269563  0.39062665  0.90732897
   0.66148251  0.87342788  0.91555948
   0.98772740  0.01353464  0.76760214
   0.96046894  0.53022131  0.77066454
   0.50433077  0.04934685  0.77215098
   0.49747158  0.55427553  0.77337588
 
 position of ions in cartesian coordinates  (Angst):
  -0.36735001  0.05787000 14.30198956
  -0.29413000  4.49164009 14.41429043
   1.14446998  2.34184003 14.42998981
   2.91318989  2.65468001  4.68851995
   2.33625007  1.31984997  9.89750004
   1.23648000  4.14090014  9.91658974
  -0.04063000  1.74782002  2.19343996
  -1.43750000  4.20662022  2.21513009
   2.76781011  1.74858999  2.11310005
   1.43455005  4.09506989  2.23323989
   2.93227005  4.25375986  7.43499994
   4.34609985  1.82736003  7.40734005
   0.08292000  4.23386002  7.37188005
   1.56647003  1.88636994  7.41927004
   1.08181000  0.72180003 12.14519024
  -0.28538001  3.16202998 12.17249012
   3.87859988  0.76683003 12.18459034
   2.49499011  3.19699001 12.16189003
  -0.20017999  0.24820000  3.18902993
  -1.50058997  2.49511003  3.14930010
   2.71627998  0.25611001  3.14475989
   1.41940999  2.54554009  3.20776010
   1.30323005  0.96820003  1.15169001
   0.00156000  3.44450998  1.28652000
   4.09398985  0.88200998  1.15200996
   2.76607990  3.44841003  1.22261000
   1.39172006  0.27853999  8.41353035
   0.08033000  2.62807012  8.47171021
   4.32664013  0.29183999  8.31320953
   2.90691996  2.72975993  8.38446045
   0.12236000  1.09779000  6.46176004
  -1.27136004  3.45918989  6.51611996
   2.88401008  1.23070002  6.33343983
   1.56709003  3.36015010  6.39072990
  -0.24568000  1.52699995 13.04689026
  -1.69880998  4.00837994 13.09088993
   2.27093005  1.62077999 13.18459034
   1.11111999  3.93926001 13.30418968
   5.31724977 -0.15232000 11.15419006
   3.75259995  2.33050990 11.19869041
   2.51524997  0.01854000 11.22029018
   1.09720004  2.44536996 11.23808956
 


--------------------------------------------------------------------------------------------------------


 k-point  1 :   0.0833 0.0833 0.2500  plane waves:   13011
 k-point  2 :   0.2500 0.0833 0.2500  plane waves:   13028
 k-point  3 :   0.4167 0.0833 0.2500  plane waves:   13048
 k-point  4 :  -0.4167 0.0833 0.2500  plane waves:   13016
 k-point  5 :  -0.2500 0.0833 0.2500  plane waves:   13016
 k-point  6 :  -0.0833 0.0833 0.2500  plane waves:   13010
 k-point  7 :   0.0833 0.2500 0.2500  plane waves:   13041
 k-point  8 :   0.2500 0.2500 0.2500  plane waves:   13068
 k-point  9 :   0.4167 0.2500 0.2500  plane waves:   13050
 k-point 10 :  -0.4167 0.2500 0.2500  plane waves:   13024
 k-point 11 :  -0.2500 0.2500 0.2500  plane waves:   13041
 k-point 12 :  -0.0833 0.2500 0.2500  plane waves:   13025
 k-point 13 :   0.0833 0.4167 0.2500  plane waves:   13042
 k-point 14 :   0.2500 0.4167 0.2500  plane waves:   13049
 k-point 15 :   0.4167 0.4167 0.2500  plane waves:   13039
 k-point 16 :  -0.4167 0.4167 0.2500  plane waves:   13043
 k-point 17 :  -0.2500 0.4167 0.2500  plane waves:   13064
 k-point 18 :  -0.0833 0.4167 0.2500  plane waves:   13052
 k-point 19 :   0.0833-0.4167 0.2500  plane waves:   13047
 k-point 20 :   0.2500-0.4167 0.2500  plane waves:   13047
 k-point 21 :   0.4167-0.4167 0.2500  plane waves:   13062
 k-point 22 :  -0.4167-0.4167 0.2500  plane waves:   13040
 k-point 23 :  -0.2500-0.4167 0.2500  plane waves:   13057
 k-point 24 :  -0.0833-0.4167 0.2500  plane waves:   13026
 k-point 25 :   0.0833-0.2500 0.2500  plane waves:   13031
 k-point 26 :   0.2500-0.2500 0.2500  plane waves:   13036
 k-point 27 :   0.4167-0.2500 0.2500  plane waves:   13046
 k-point 28 :  -0.4167-0.2500 0.2500  plane waves:   13044
 k-point 29 :  -0.2500-0.2500 0.2500  plane waves:   13032
 k-point 30 :  -0.0833-0.2500 0.2500  plane waves:   13037
 k-point 31 :   0.0833-0.0833 0.2500  plane waves:   13003
 k-point 32 :   0.2500-0.0833 0.2500  plane waves:   13001
 k-point 33 :   0.4167-0.0833 0.2500  plane waves:   13040
 k-point 34 :  -0.4167-0.0833 0.2500  plane waves:   13048
 k-point 35 :  -0.2500-0.0833 0.2500  plane waves:   13020
 k-point 36 :  -0.0833-0.0833 0.2500  plane waves:   13009

 maximum and minimum number of plane-waves per node :      3291     3232

 maximum number of plane-waves:     13068
 maximum index in each direction: 
   IXMAX=   11   IYMAX=   11   IZMAX=   28
   IXMIN=  -11   IYMIN=  -11   IZMIN=  -29


 real space projection operators:
  total allocation   :       7587.66 KBytes
  max/ min on nodes  :       1899.83       1894.08


 parallel 3D FFT for wavefunctions:
    minimum data exchange during FFTs selected (reduces bandwidth)
 parallel 3D FFT for charge:
    minimum data exchange during FFTs selected (reduces bandwidth)


 total amount of memory used by VASP MPI-rank0   158243. kBytes
=======================================================================

   base      :      30000. kBytes
   nonlr-proj:       4344. kBytes
   fftplans  :       1688. kBytes
   grid      :       4644. kBytes
   one-center:        342. kBytes
   wavefun   :     117225. kBytes
 
     INWAV:  cpu time    0.0000: real time    0.0003
 Broyden mixing: mesh for mixing (old mesh)
   NGX = 23   NGY = 23   NGZ = 59
  (NGX  = 72   NGY  = 72   NGZ  =180)
  gives a total of  31211 points

 initial charge density was supplied:
 charge density of overlapping atoms calculated
 number of electron     258.0000000 magnetization       6.0000000
 keeping initial charge density in first step


--------------------------------------------------------------------------------------------------------


 Maximum index for non-local projection operator          696
 Maximum index for augmentation-charges          981 (set IRDMAX)


--------------------------------------------------------------------------------------------------------


 First call to EWALD:  gamma=   0.242
 Maximum number of real-space cells 4x 4x 2
 Maximum number of reciprocal cells 2x 2x 5

    FEWALD:  cpu time    0.0060: real time    0.0060


--------------------------------------- Iteration      1(   1)  ---------------------------------------


    POTLOK:  cpu time    0.0540: real time    0.0657
    SETDIJ:  cpu time    0.0167: real time    0.0172
    TRIAL :  cpu time   22.5939: real time   22.8610
    CORREC:  cpu time    0.0037: real time    0.0037
    --------------------------------------------
      LOOP:  cpu time   22.8239: real time   23.1146

 eigenvalue-minimisations  : 23040
 total energy-change (2. order) : 0.3517754E+04  (-0.1397091E+05)
 number of electron     258.0000000 magnetization       6.0000000
 augmentation part      258.0000000 magnetization       6.0000000

 Free energy of the ion-electron system (eV)
  ---------------------------------------------------
  alpha Z        PSCENC =       750.53874564
  Ewald energy   TEWEN  =    -13040.19363505
  -Hartree energ DENC   =     -7951.44472824
  -exchange      EXHF   =         0.00000000
  -V(xc)+E(xc)   XCENC  =       845.68145553
  PAW double counting   =     17015.18481625   -17491.61297812
  entropy T*S    EENTRO =        -0.00684664
  eigenvalues    EBANDS =      3220.73647752
  atomic energy  EATOM  =     20168.87094289
  ---------------------------------------------------
  free energy    TOTEN  =      3517.75424979 eV

  energy without entropy =     3517.76109642  energy(sigma->0) =     3517.75767310


--------------------------------------------------------------------------------------------------------




--------------------------------------- Iteration      1(   2)  ---------------------------------------


    TRIAL :  cpu time   23.0616: real time   23.3941
    CORREC:  cpu time    0.0039: real time    0.0039
    --------------------------------------------
      LOOP:  cpu time   23.0659: real time   23.3984

 eigenvalue-minimisations  : 24848
 total energy-change (2. order) :-0.3099425E+04  (-0.2853494E+04)
 number of electron     258.0000000 magnetization       6.0000000
 augmentation part      258.0000000 magnetization       6.0000000

 Free energy of the ion-electron system (eV)
  ---------------------------------------------------
  alpha Z        PSCENC =       750.53874564
  Ewald energy   TEWEN  =    -13040.19363505
  -Hartree energ DENC   =     -7951.44472824
  -exchange      EXHF   =         0.00000000
  -V(xc)+E(xc)   XCENC  =       845.68145553
  PAW double counting   =     17015.18481625   -17491.61297812
  entropy T*S    EENTRO =        -0.01952976
  eigenvalues    EBANDS =       121.32390216
  atomic energy  EATOM  =     20168.87094289
  ---------------------------------------------------
  free energy    TOTEN  =       418.32899129 eV

  energy without entropy =      418.34852105  energy(sigma->0) =      418.33875617


--------------------------------------------------------------------------------------------------------




--------------------------------------- Iteration      1(   3)  ---------------------------------------


    TRIAL :  cpu time   24.1581: real time   24.2785
    CORREC:  cpu time    0.0041: real time    0.0041
    --------------------------------------------
      LOOP:  cpu time   24.1661: real time   24.2865

 eigenvalue-minimisations  : 25744
 total energy-change (2. order) :-0.6375363E+03  (-0.5824260E+03)
 number of electron     258.0000000 magnetization       6.0000000
 augmentation part      258.0000000 magnetization       6.0000000

 Free energy of the ion-electron system (eV)
  ---------------------------------------------------
  alpha Z        PSCENC =       750.53874564
  Ewald energy   TEWEN  =    -13040.19363505
  -Hartree energ DENC   =     -7951.44472824
  -exchange      EXHF   =         0.00000000
  -V(xc)+E(xc)   XCENC  =       845.68145553
  PAW double counting   =     17015.18481625   -17491.61297812
  entropy T*S    EENTRO =        -0.03355178
  eigenvalues    EBANDS =      -516.19838953
  atomic energy  EATOM  =     20168.87094289
  ---------------------------------------------------
  free energy    TOTEN  =      -219.20732242 eV

  energy without entropy =     -219.17377064  energy(sigma->0) =     -219.19054653


--------------------------------------------------------------------------------------------------------




--------------------------------------- Iteration      1(   4)  ---------------------------------------


    TRIAL :  cpu time   23.6015: real time   23.6854
    CORREC:  cpu time    0.0041: real time    0.0041
    --------------------------------------------
      LOOP:  cpu time   23.6096: real time   23.6935

 eigenvalue-minimisations  : 25312
 total energy-change (2. order) :-0.5154665E+02  (-0.5052193E+02)
 number of electron     258.0000000 magnetization       6.0000000
 augmentation part      258.0000000 magnetization       6.0000000

 Free energy of the ion-electron system (eV)
  ---------------------------------------------------
  alpha Z        PSCENC =       750.53874564
  Ewald energy   TEWEN  =    -13040.19363505
  -Hartree energ DENC   =     -7951.44472824
  -exchange      EXHF   =         0.00000000
  -V(xc)+E(xc)   XCENC  =       845.68145553
  PAW double counting   =     17015.18481625   -17491.61297812
  entropy T*S    EENTRO =        -0.02919437
  eigenvalues    EBANDS =      -567.74939340
  atomic energy  EATOM  =     20168.87094289
  ---------------------------------------------------
  free energy    TOTEN  =      -270.75396887 eV

  energy without entropy =     -270.72477450  energy(sigma->0) =     -270.73937169


--------------------------------------------------------------------------------------------------------




--------------------------------------- Iteration      1(   5)  ---------------------------------------


    TRIAL :  cpu time   25.6449: real time   25.8772
    CORREC:  cpu time    0.0046: real time    0.0046
    CHARGE:  cpu time    0.4615: real time    0.4629
    --------------------------------------------
      LOOP:  cpu time   26.1150: real time   26.3488

 eigenvalue-minimisations  : 28592
 total energy-change (2. order) :-0.1750624E+01  (-0.1747821E+01)
 number of electron     257.9999931 magnetization       6.0000000
 augmentation part       68.2720013 magnetization       4.3107383

 Free energy of the ion-electron system (eV)
  ---------------------------------------------------
  alpha Z        PSCENC =       750.53874564
  Ewald energy   TEWEN  =    -13040.19363505
  -Hartree energ DENC   =     -7951.44472824
  -exchange      EXHF   =         0.00000000
  -V(xc)+E(xc)   XCENC  =       845.68145553
  PAW double counting   =     17015.18481625   -17491.61297812
  entropy T*S    EENTRO =        -0.02950400
  eigenvalues    EBANDS =      -569.49970801
  atomic energy  EATOM  =     20168.87094289
  ---------------------------------------------------
  free energy    TOTEN  =      -272.50459311 eV

  energy without entropy =     -272.47508911  energy(sigma->0) =     -272.48984111


--------------------------------------------------------------------------------------------------------




--------------------------------------- Iteration      1(   6)  ---------------------------------------


    POTLOK:  cpu time    0.0440: real time    0.0448
    SETDIJ:  cpu time    0.0117: real time    0.0118
    TRIAL :  cpu time   12.0477: real time   12.5119
    CORREC:  cpu time    4.0993: real time    4.2194
    CHARGE:  cpu time    0.4752: real time    0.4920
    --------------------------------------------
      LOOP:  cpu time   16.6785: real time   17.2847

 eigenvalue-minimisations  :     0
 total energy-change (2. order) : 0.3885286E+03  (-0.3379367E+03)
 number of electron     257.9999935 magnetization       5.9999999
 augmentation part       71.0067087 magnetization       4.4107885

 Free energy of the ion-electron system (eV)
  ---------------------------------------------------
  alpha Z        PSCENC =       750.53874564
  Ewald energy   TEWEN  =    -13040.19363505
  -Hartree energ DENC   =     -7818.22354502
  -exchange      EXHF   =         0.00000000
  -V(xc)+E(xc)   XCENC  =       880.82121280
  PAW double counting   =     24382.88350542   -24596.41576763
  entropy T*S    EENTRO =        -0.05366438
  eigenvalues    EBANDS =      -612.22794338
  atomic energy  EATOM  =     20168.87094289
  ---------------------------------------------------
  free energy    TOTEN  =       116.02401166 eV

  energy without entropy =      116.07767603  energy(sigma->0) =      116.05084384


--------------------------------------------------------------------------------------------------------




--------------------------------------- Iteration      1(   7)  ---------------------------------------


    POTLOK:  cpu time    0.0442: real time    0.0442
    SETDIJ:  cpu time    0.0120: real time    0.0121
    TRIAL :  cpu time   12.2875: real time   12.4597
    CORREC:  cpu time    4.0800: real time    4.1624
    CHARGE:  cpu time    0.4701: real time    0.4880
    --------------------------------------------
      LOOP:  cpu time   16.8979: real time   17.1706

 eigenvalue-minimisations  :     0
 total energy-change (2. order) : 0.2037423E+02  (-0.2156774E+04)
 number of electron     257.9999938 magnetization       6.0000000
 augmentation part       73.3322523 magnetization       4.2728054

 Free energy of the ion-electron system (eV)
  ---------------------------------------------------
  alpha Z        PSCENC =       750.53874564
  Ewald energy   TEWEN  =    -13040.19363505
  -Hartree energ DENC   =     -7741.75567840
  -exchange      EXHF   =         0.00000000
  -V(xc)+E(xc)   XCENC  =       872.06193261
  PAW double counting   =     24469.39564222   -24800.90539668
  entropy T*S    EENTRO =        -0.02690100
  eigenvalues    EBANDS =      -541.56064769
  atomic energy  EATOM  =     20168.87094289
  ---------------------------------------------------
  free energy    TOTEN  =       136.39824116 eV

  energy without entropy =      136.42514216  energy(sigma->0) =      136.41169166


--------------------------------------------------------------------------------------------------------




--------------------------------------- Iteration      1(   8)  ---------------------------------------


    POTLOK:  cpu time    0.0439: real time    0.0444
    SETDIJ:  cpu time    0.0119: real time    0.0120
    TRIAL :  cpu time   12.3172: real time   12.4850
    CORREC:  cpu time    4.1639: real time    4.3069
    CHARGE:  cpu time    0.4753: real time    0.4929
    --------------------------------------------
      LOOP:  cpu time   17.0128: real time   17.3461

 eigenvalue-minimisations  :     0
 total energy-change (2. order) : 0.3425007E+04  (-0.6054712E+04)
 number of electron     257.9999938 magnetization       5.9999998
 augmentation part       78.4800851 magnetization       2.7368373

 Free energy of the ion-electron system (eV)
  ---------------------------------------------------
  alpha Z        PSCENC =       750.53874564
  Ewald energy   TEWEN  =    -13040.19363505
  -Hartree energ DENC   =    -11680.69285572
  -exchange      EXHF   =         0.00000000
  -V(xc)+E(xc)   XCENC  =       895.71222974
  PAW double counting   =     28227.95245044   -28847.63079343
  entropy T*S    EENTRO =        -0.02829698
  eigenvalues    EBANDS =      7086.87470552
  atomic energy  EATOM  =     20168.87094289
  ---------------------------------------------------
  free energy    TOTEN  =      3561.40488904 eV

  energy without entropy =     3561.43318602  energy(sigma->0) =     3561.41903753


--------------------------------------------------------------------------------------------------------




--------------------------------------- Iteration      1(   9)  ---------------------------------------


    POTLOK:  cpu time    0.0432: real time    0.0442
    SETDIJ:  cpu time    0.0119: real time    0.0120
    TRIAL :  cpu time   12.1961: real time   12.3644
    CORREC:  cpu time    4.2612: real time    4.2714
    CHARGE:  cpu time    0.4779: real time    0.4779
    --------------------------------------------
      LOOP:  cpu time   16.9908: real time   17.1746

 eigenvalue-minimisations  :     0
 total energy-change (2. order) : 0.4893631E+04  (-0.2823095E+05)
 number of electron     257.9999949 magnetization       6.0000001
 augmentation part       71.6364361 magnetization       4.4416057

 Free energy of the ion-electron system (eV)
  ---------------------------------------------------
  alpha Z        PSCENC =       750.53874564
  Ewald energy   TEWEN  =    -13040.19363505
  -Hartree energ DENC   =    -16089.25249302
  -exchange      EXHF   =         0.00000000
  -V(xc)+E(xc)   XCENC  =       920.83483498
  PAW double counting   =     33565.76581819   -34527.85248831
  entropy T*S    EENTRO =        -0.03981214
  eigenvalues    EBANDS =     16706.35219226
  atomic energy  EATOM  =     20168.87094289
  ---------------------------------------------------
  free energy    TOTEN  =      8455.03562060 eV

  energy without entropy =     8455.07543273  energy(sigma->0) =     8455.05552666


--------------------------------------------------------------------------------------------------------




--------------------------------------- Iteration      1(  10)  ---------------------------------------


    POTLOK:  cpu time    0.0435: real time    0.0436
    SETDIJ:  cpu time    0.0118: real time    0.0118
    TRIAL :  cpu time   12.2833: real time   12.4574
    CORREC:  cpu time    4.1561: real time    4.2085
    CHARGE:  cpu time    0.4685: real time    0.4687
    --------------------------------------------
      LOOP:  cpu time   16.9676: real time   17.1943

 eigenvalue-minimisations  :     0
 total energy-change (2. order) :-0.3784516E+04  (-0.8188335E+04)
 number of electron     257.9999945 magnetization       5.9999998
 augmentation part       81.7376172 magnetization       1.6372589

 Free energy of the ion-electron system (eV)
  ---------------------------------------------------
  alpha Z        PSCENC =       750.53874564
  Ewald energy   TEWEN  =    -13040.19363505
  -Hartree energ DENC   =    -10470.91426286
  -exchange      EXHF   =         0.00000000
  -V(xc)+E(xc)   XCENC  =       883.79392430
  PAW double counting   =     34994.30147721   -35753.47583256
  entropy T*S    EENTRO =        -0.01259451
  eigenvalues    EBANDS =      7137.63818449
  atomic energy  EATOM  =     20168.87094289
  ---------------------------------------------------
  free energy    TOTEN  =      4670.51973191 eV

  energy without entropy =     4670.53232642  energy(sigma->0) =     4670.52602917


--------------------------------------------------------------------------------------------------------




--------------------------------------- Iteration      1(  11)  ---------------------------------------


    POTLOK:  cpu time    0.0440: real time    0.0440
    SETDIJ:  cpu time    0.0125: real time    0.0125
    TRIAL :  cpu time   12.7658: real time   12.8159
    CORREC:  cpu time    4.1973: real time    4.2008
    CHARGE:  cpu time    0.4502: real time    0.4505
    --------------------------------------------
      LOOP:  cpu time   17.4742: real time   17.5282

 eigenvalue-minimisations  :     0
 total energy-change (2. order) : 0.4701750E+04  (-0.8980300E+04)
 number of electron     257.9999953 magnetization       5.9999996
 augmentation part       77.1427138 magnetization       1.3606478

 Free energy of the ion-electron system (eV)
  ---------------------------------------------------
  alpha Z        PSCENC =       750.53874564
  Ewald energy   TEWEN  =    -13040.19363505
  -Hartree energ DENC   =    -18631.96811775
  -exchange      EXHF   =         0.00000000
  -V(xc)+E(xc)   XCENC  =       907.63324064
  PAW double counting   =     40053.57608248   -41195.63997849
  entropy T*S    EENTRO =        -0.01325967
  eigenvalues    EBANDS =     20359.46527306
  atomic energy  EATOM  =     20168.87094289
  ---------------------------------------------------
  free energy    TOTEN  =      9372.26995890 eV

  energy without entropy =     9372.28321857  energy(sigma->0) =     9372.27658874


--------------------------------------------------------------------------------------------------------




--------------------------------------- Iteration      1(  12)  ---------------------------------------


    POTLOK:  cpu time    0.0446: real time    0.0445
    SETDIJ:  cpu time    0.0119: real time    0.0119
    TRIAL :  cpu time   12.7672: real time   12.9822
    CORREC:  cpu time    4.2140: real time    4.2188
    CHARGE:  cpu time    0.4519: real time    0.4523
    --------------------------------------------
      LOOP:  cpu time   17.4939: real time   17.7140

 eigenvalue-minimisations  :     0
 total energy-change (2. order) : 0.1193388E+04  (-0.1634213E+05)
 number of electron     257.9999945 magnetization       5.9999999
 augmentation part       72.7864730 magnetization       1.3377031

 Free energy of the ion-electron system (eV)
  ---------------------------------------------------
  alpha Z        PSCENC =       750.53874564
  Ewald energy   TEWEN  =    -13040.19363505
  -Hartree energ DENC   =    -16594.06154899
  -exchange      EXHF   =         0.00000000
  -V(xc)+E(xc)   XCENC  =       869.97956266
  PAW double counting   =     46926.09743179   -48033.91458140
  entropy T*S    EENTRO =        -0.00635300
  eigenvalues    EBANDS =     19518.35428944
  atomic energy  EATOM  =     20168.87094289
  ---------------------------------------------------
  free energy    TOTEN  =     10565.65794730 eV

  energy without entropy =    10565.66430030  energy(sigma->0) =    10565.66112380


--------------------------------------------------------------------------------------------------------




--------------------------------------- Iteration      1(  13)  ---------------------------------------


    POTLOK:  cpu time    0.0436: real time    0.0438
    SETDIJ:  cpu time    0.0120: real time    0.0120
    TRIAL :  cpu time   12.6047: real time   12.6212
    CORREC:  cpu time    4.2095: real time    4.2145
    CHARGE:  cpu time    0.4401: real time    0.4406
    --------------------------------------------
      LOOP:  cpu time   17.3146: real time   17.3367

 eigenvalue-minimisations  :     0
 total energy-change (2. order) :-0.8820218E+03  (-0.2155532E+05)
 number of electron     257.9999956 magnetization       5.9999999
 augmentation part       70.2962437 magnetization       2.8394250

 Free energy of the ion-electron system (eV)
  ---------------------------------------------------
  alpha Z        PSCENC =       750.53874564
  Ewald energy   TEWEN  =    -13040.19363505
  -Hartree energ DENC   =    -12510.50402812
  -exchange      EXHF   =         0.00000000
  -V(xc)+E(xc)   XCENC  =       807.12412848
  PAW double counting   =     65466.15273164   -66494.79979602
  entropy T*S    EENTRO =        -0.00418803
  eigenvalues    EBANDS =     14536.45340840
  atomic energy  EATOM  =     20168.87094289
  ---------------------------------------------------
  free energy    TOTEN  =      9683.63614485 eV

  energy without entropy =     9683.64033289  energy(sigma->0) =     9683.63823887


--------------------------------------------------------------------------------------------------------




--------------------------------------- Iteration      1(  14)  ---------------------------------------


    POTLOK:  cpu time    0.0438: real time    0.0438
    SETDIJ:  cpu time    0.0120: real time    0.0120
    TRIAL :  cpu time   12.3932: real time   12.7440
    CORREC:  cpu time    4.3270: real time    4.3322
    CHARGE:  cpu time    0.4444: real time    0.4449
    --------------------------------------------
      LOOP:  cpu time   17.2246: real time   17.5810

 eigenvalue-minimisations  :     0
 total energy-change (2. order) :-0.4565491E+04  (-0.7171808E+04)
 number of electron     257.9999958 magnetization       5.9999999
 augmentation part       73.4230799 magnetization       1.7631136

 Free energy of the ion-electron system (eV)
  ---------------------------------------------------
  alpha Z        PSCENC =       750.53874564
  Ewald energy   TEWEN  =    -13040.19363505
  -Hartree energ DENC   =     -5621.26260318
  -exchange      EXHF   =         0.00000000
  -V(xc)+E(xc)   XCENC  =       722.33839261
  PAW double counting   =     75430.49801058   -76279.82026698
  entropy T*S    EENTRO =        -0.00210529
  eigenvalues    EBANDS =      2987.17984585
  atomic energy  EATOM  =     20168.87094289
  ---------------------------------------------------
  free energy    TOTEN  =      5118.14524433 eV

  energy without entropy =     5118.14734962  energy(sigma->0) =     5118.14629697


--------------------------------------------------------------------------------------------------------




--------------------------------------- Iteration      1(  15)  ---------------------------------------


    POTLOK:  cpu time    0.0438: real time    0.0438
    SETDIJ:  cpu time    0.0119: real time    0.0119
    TRIAL :  cpu time   12.6315: real time   12.6480
    CORREC:  cpu time    4.2523: real time    4.3044
    CHARGE:  cpu time    0.4508: real time    0.4511
    --------------------------------------------
      LOOP:  cpu time   17.3945: real time   17.4634

 eigenvalue-minimisations  :     0
 total energy-change (2. order) :-0.2218837E+04  (-0.6211872E+03)
 number of electron     257.9999956 magnetization       5.9999999
 augmentation part       73.7965214 magnetization       1.8177701

 Free energy of the ion-electron system (eV)
  ---------------------------------------------------
  alpha Z        PSCENC =       750.53874564
  Ewald energy   TEWEN  =    -13040.19363505
  -Hartree energ DENC   =     -4900.20927467
  -exchange      EXHF   =         0.00000000
  -V(xc)+E(xc)   XCENC  =       724.35059479
  PAW double counting   =     81475.84610945   -82408.78256468
  entropy T*S    EENTRO =        -0.00257578
  eigenvalues    EBANDS =       128.88900851
  atomic energy  EATOM  =     20168.87094289
  ---------------------------------------------------
  free energy    TOTEN  =      2899.30782158 eV

  energy without entropy =     2899.31039735  energy(sigma->0) =     2899.30910947


--------------------------------------------------------------------------------------------------------




--------------------------------------- Iteration      1(  16)  ---------------------------------------


    POTLOK:  cpu time    0.0438: real time    0.0438
    SETDIJ:  cpu time    0.0120: real time    0.0120
    TRIAL :  cpu time   12.8572: real time   12.8726
    CORREC:  cpu time    4.1745: real time    4.1804
    CHARGE:  cpu time    0.4396: real time    0.4443
    --------------------------------------------
      LOOP:  cpu time   17.5312: real time   17.5573

 eigenvalue-minimisations  :     0
 total energy-change (2. order) :-0.4416904E+03  (-0.9365256E+03)
 number of electron     257.9999949 magnetization       5.9999999
 augmentation part       74.9262806 magnetization       2.1731604

 Free energy of the ion-electron system (eV)
  ---------------------------------------------------
  alpha Z        PSCENC =       750.53874564
  Ewald energy   TEWEN  =    -13040.19363505
  -Hartree energ DENC   =     -5835.64398691
  -exchange      EXHF   =         0.00000000
  -V(xc)+E(xc)   XCENC  =       736.17753875
  PAW double counting   =     75738.28699497   -76656.29861999
  entropy T*S    EENTRO =        -0.00430263
  eigenvalues    EBANDS =       595.88202545
  atomic energy  EATOM  =     20168.87094289
  ---------------------------------------------------
  free energy    TOTEN  =      2457.61742998 eV

  energy without entropy =     2457.62173261  energy(sigma->0) =     2457.61958129


--------------------------------------------------------------------------------------------------------




--------------------------------------- Iteration      1(  17)  ---------------------------------------


    POTLOK:  cpu time    0.0436: real time    0.0436
    SETDIJ:  cpu time    0.0125: real time    0.0125
    TRIAL :  cpu time   12.4475: real time   12.5490
    CORREC:  cpu time    4.0879: real time    4.1191
    CHARGE:  cpu time    0.4374: real time    0.4380
    --------------------------------------------
      LOOP:  cpu time   17.0332: real time   17.1665

 eigenvalue-minimisations  :     0
 total energy-change (2. order) :-0.9684588E+03  (-0.3420100E+03)
 number of electron     257.9999948 magnetization       5.9999999
 augmentation part       74.5985173 magnetization       2.3379686

 Free energy of the ion-electron system (eV)
  ---------------------------------------------------
  alpha Z        PSCENC =       750.53874564
  Ewald energy   TEWEN  =    -13040.19363505
  -Hartree energ DENC   =     -6531.70622272
  -exchange      EXHF   =         0.00000000
  -V(xc)+E(xc)   XCENC  =       782.53141617
  PAW double counting   =     55249.76017866   -56074.11722967
  entropy T*S    EENTRO =        -0.00496244
  eigenvalues    EBANDS =       183.47873972
  atomic energy  EATOM  =     20168.87094289
  ---------------------------------------------------
  free energy    TOTEN  =      1489.15863300 eV

  energy without entropy =     1489.16359544  energy(sigma->0) =     1489.16111422


--------------------------------------------------------------------------------------------------------




--------------------------------------- Iteration      1(  18)  ---------------------------------------


    POTLOK:  cpu time    0.0443: real time    0.0444
    SETDIJ:  cpu time    0.0118: real time    0.0118
    TRIAL :  cpu time   12.6155: real time   12.6426
    CORREC:  cpu time    4.1166: real time    4.1269
    CHARGE:  cpu time    0.4509: real time    0.4512
    --------------------------------------------
      LOOP:  cpu time   17.2434: real time   17.2810

 eigenvalue-minimisations  :     0
 total energy-change (2. order) :-0.3051175E+03  (-0.4691291E+03)
 number of electron     257.9999943 magnetization       5.9999999
 augmentation part       74.3584391 magnetization       2.8468336

 Free energy of the ion-electron system (eV)
  ---------------------------------------------------
  alpha Z        PSCENC =       750.53874564
  Ewald energy   TEWEN  =    -13040.19363505
  -Hartree energ DENC   =     -6907.33978459
  -exchange      EXHF   =         0.00000000
  -V(xc)+E(xc)   XCENC  =       795.80827519
  PAW double counting   =     49124.05216446   -49900.28126822
  entropy T*S    EENTRO =        -0.00676253
  eigenvalues    EBANDS =       192.59067857
  atomic energy  EATOM  =     20168.87094289
  ---------------------------------------------------
  free energy    TOTEN  =      1184.04115645 eV

  energy without entropy =     1184.04791898  energy(sigma->0) =     1184.04453772


--------------------------------------------------------------------------------------------------------




--------------------------------------- Iteration      1(  19)  ---------------------------------------


    POTLOK:  cpu time    0.0434: real time    0.0434
    SETDIJ:  cpu time    0.0119: real time    0.0119
    TRIAL :  cpu time   12.3119: real time   12.4266
    CORREC:  cpu time    4.1834: real time    4.2083
    CHARGE:  cpu time    0.4438: real time    0.4608
    --------------------------------------------
      LOOP:  cpu time   16.9986: real time   17.1552

 eigenvalue-minimisations  :     0
 total energy-change (2. order) :-0.4814862E+03  (-0.1863971E+03)
 number of electron     257.9999942 magnetization       5.9999999
 augmentation part       74.5951518 magnetization       3.2072581

 Free energy of the ion-electron system (eV)
  ---------------------------------------------------
  alpha Z        PSCENC =       750.53874564
  Ewald energy   TEWEN  =    -13040.19363505
  -Hartree energ DENC   =     -7457.42615145
  -exchange      EXHF   =         0.00000000
  -V(xc)+E(xc)   XCENC  =       823.80301993
  PAW double counting   =     36482.78382944   -37131.27658233
  entropy T*S    EENTRO =        -0.00781752
  eigenvalues    EBANDS =       105.46153123
  atomic energy  EATOM  =     20168.87094289
  ---------------------------------------------------
  free energy    TOTEN  =       702.55493778 eV

  energy without entropy =      702.56275531  energy(sigma->0) =      702.55884654


--------------------------------------------------------------------------------------------------------




--------------------------------------- Iteration      1(  20)  ---------------------------------------


    POTLOK:  cpu time    0.0432: real time    0.0449
    SETDIJ:  cpu time    0.0112: real time    0.0118
    TRIAL :  cpu time   12.2176: real time   12.6718
    CORREC:  cpu time    4.1875: real time    4.2158
    CHARGE:  cpu time    0.6711: real time    0.6720
    --------------------------------------------
      LOOP:  cpu time   17.1313: real time   17.6210

 eigenvalue-minimisations  :     0
 total energy-change (2. order) :-0.1838051E+03  (-0.3970273E+03)
 number of electron     257.9999939 magnetization       5.9999999
 augmentation part       77.0899545 magnetization       3.7914449

 Free energy of the ion-electron system (eV)
  ---------------------------------------------------
  alpha Z        PSCENC =       750.53874564
  Ewald energy   TEWEN  =    -13040.19363505
  -Hartree energ DENC   =     -7373.30563045
  -exchange      EXHF   =         0.00000000
  -V(xc)+E(xc)   XCENC  =       835.35471873
  PAW double counting   =     33202.58330609   -33810.29185313
  entropy T*S    EENTRO =        -0.01139908
  eigenvalues    EBANDS =      -214.79890359
  atomic energy  EATOM  =     20168.87094289
  ---------------------------------------------------
  free energy    TOTEN  =       518.74987360 eV

  energy without entropy =      518.76127268  energy(sigma->0) =      518.75557314


--------------------------------------------------------------------------------------------------------




--------------------------------------- Iteration      1(  21)  ---------------------------------------


    POTLOK:  cpu time    0.0441: real time    0.0442
    SETDIJ:  cpu time    0.0119: real time    0.0119
    TRIAL :  cpu time   12.3033: real time   12.5942
    CORREC:  cpu time    4.3290: real time    4.3360
    CHARGE:  cpu time    0.4506: real time    0.4512
    --------------------------------------------
      LOOP:  cpu time   17.1431: real time   17.4416

 eigenvalue-minimisations  :     0
 total energy-change (2. order) :-0.2172576E+03  (-0.1663810E+03)
 number of electron     257.9999939 magnetization       5.9999999
 augmentation part       77.4038099 magnetization       3.8754330

 Free energy of the ion-electron system (eV)
  ---------------------------------------------------
  alpha Z        PSCENC =       750.53874564
  Ewald energy   TEWEN  =    -13040.19363505
  -Hartree energ DENC   =     -8290.29775554
  -exchange      EXHF   =         0.00000000
  -V(xc)+E(xc)   XCENC  =       861.99865250
  PAW double counting   =     29406.87484099   -29970.78610397
  entropy T*S    EENTRO =        -0.01072367
  eigenvalues    EBANDS =       414.49794500
  atomic energy  EATOM  =     20168.87094289
  ---------------------------------------------------
  free energy    TOTEN  =       301.49223337 eV

  energy without entropy =      301.50295704  energy(sigma->0) =      301.49759521


--------------------------------------------------------------------------------------------------------




--------------------------------------- Iteration      1(  22)  ---------------------------------------


    POTLOK:  cpu time    0.0444: real time    0.0444
    SETDIJ:  cpu time    0.0119: real time    0.0119
    TRIAL :  cpu time   12.5980: real time   12.6224
    CORREC:  cpu time    4.1201: real time    4.1274
    CHARGE:  cpu time    0.4635: real time    0.4643
    --------------------------------------------
      LOOP:  cpu time   17.2423: real time   17.2747

 eigenvalue-minimisations  :     0
 total energy-change (2. order) :-0.1988818E+03  (-0.4745091E+02)
 number of electron     257.9999940 magnetization       5.9999999
 augmentation part       77.7085743 magnetization       3.9570543

 Free energy of the ion-electron system (eV)
  ---------------------------------------------------
  alpha Z        PSCENC =       750.53874564
  Ewald energy   TEWEN  =    -13040.19363505
  -Hartree energ DENC   =     -7923.98008663
  -exchange      EXHF   =         0.00000000
  -V(xc)+E(xc)   XCENC  =       860.09683124
  PAW double counting   =     28861.48596490   -29420.17085877
  entropy T*S    EENTRO =        -0.00950713
  eigenvalues    EBANDS =      -154.02676959
  atomic energy  EATOM  =     20168.87094289
  ---------------------------------------------------
  free energy    TOTEN  =       102.61041095 eV

  energy without entropy =      102.61991809  energy(sigma->0) =      102.61516452


--------------------------------------------------------------------------------------------------------




--------------------------------------- Iteration      1(  23)  ---------------------------------------


    POTLOK:  cpu time    0.0442: real time    0.0443
    SETDIJ:  cpu time    0.0119: real time    0.0119
    TRIAL :  cpu time   12.4995: real time   12.5406
    CORREC:  cpu time    4.1325: real time    4.1387
    CHARGE:  cpu time    0.4642: real time    0.4660
    --------------------------------------------
      LOOP:  cpu time   17.1565: real time   17.2057

 eigenvalue-minimisations  :     0
 total energy-change (2. order) :-0.5184671E+02  (-0.4253471E+02)
 number of electron     257.9999940 magnetization       5.9999999
 augmentation part       77.9335941 magnetization       4.0408392

 Free energy of the ion-electron system (eV)
  ---------------------------------------------------
  alpha Z        PSCENC =       750.53874564
  Ewald energy   TEWEN  =    -13040.19363505
  -Hartree energ DENC   =     -7884.93294860
  -exchange      EXHF   =         0.00000000
  -V(xc)+E(xc)   XCENC  =       859.33433261
  PAW double counting   =     28379.89762133   -28944.96433968
  entropy T*S    EENTRO =        -0.01102424
  eigenvalues    EBANDS =      -237.77751282
  atomic energy  EATOM  =     20168.87094289
  ---------------------------------------------------
  free energy    TOTEN  =        50.76369919 eV

  energy without entropy =       50.77472342  energy(sigma->0) =       50.76921131


--------------------------------------------------------------------------------------------------------




--------------------------------------- Iteration      1(  24)  ---------------------------------------


    POTLOK:  cpu time    0.0438: real time    0.0438
    SETDIJ:  cpu time    0.0119: real time    0.0119
    TRIAL :  cpu time   12.0540: real time   12.4721
    CORREC:  cpu time    4.2002: real time    4.2397
    CHARGE:  cpu time    0.4653: real time    0.4658
    --------------------------------------------
      LOOP:  cpu time   16.7798: real time   17.2379

 eigenvalue-minimisations  :     0
 total energy-change (2. order) :-0.4414053E+02  (-0.3171835E+02)
 number of electron     257.9999941 magnetization       5.9999999
 augmentation part       77.8424678 magnetization       4.1237429

 Free energy of the ion-electron system (eV)
  ---------------------------------------------------
  alpha Z        PSCENC =       750.53874564
  Ewald energy   TEWEN  =    -13040.19363505
  -Hartree energ DENC   =     -8001.32064141
  -exchange      EXHF   =         0.00000000
  -V(xc)+E(xc)   XCENC  =       858.40517119
  PAW double counting   =     27903.42817351   -28481.36265510
  entropy T*S    EENTRO =        -0.01251705
  eigenvalues    EBANDS =      -151.73190480
  atomic energy  EATOM  =     20168.87094289
  ---------------------------------------------------
  free energy    TOTEN  =         6.62317263 eV

  energy without entropy =        6.63568967  energy(sigma->0) =        6.62943115


--------------------------------------------------------------------------------------------------------




--------------------------------------- Iteration      1(  25)  ---------------------------------------


    POTLOK:  cpu time    0.0464: real time    0.0465
    SETDIJ:  cpu time    0.0118: real time    0.0119
    TRIAL :  cpu time   12.5780: real time   12.6933
    CORREC:  cpu time    4.1455: real time    4.1535
    CHARGE:  cpu time    0.4812: real time    0.4819
    --------------------------------------------
      LOOP:  cpu time   17.2671: real time   17.3913

 eigenvalue-minimisations  :     0
 total energy-change (2. order) :-0.3329752E+02  (-0.4653091E+02)
 number of electron     257.9999944 magnetization       5.9999999
[...]
   20        1.568   3.427   0.000   4.995
   21        1.582   3.364   0.000   4.946
   22        1.573   3.401   0.000   4.974
   23        1.558   3.486   0.000   5.044
   24        1.561   3.488   0.000   5.049
   25        1.568   3.431   0.000   4.999
   26        1.570   3.460   0.000   5.030
   27        1.575   3.404   0.000   4.979
   28        1.582   3.348   0.000   4.930
   29        1.568   3.478   0.000   5.046
   30        1.576   3.422   0.000   4.999
   31        1.587   3.353   0.000   4.940
   32        1.577   3.429   0.000   5.006
   33        1.579   3.366   0.000   4.945
   34        1.579   3.378   0.000   4.957
   35        1.559   3.517   0.000   5.076
   36        1.561   3.505   0.000   5.066
   37        1.566   3.459   0.000   5.025
   38        1.557   3.492   0.000   5.049
   39        1.569   3.450   0.000   5.020
   40        1.571   3.413   0.000   4.984
   41        1.556   3.517   0.000   5.073
   42        1.563   3.469   0.000   5.033
--------------------------------------------------
tot         43.838  92.682  88.062 224.581
 


 magnetization (x)
 
# of ion       s       p       d       tot
------------------------------------------
    1        0.000  -0.000   0.000  -0.000
    2       -0.000  -0.001   0.000  -0.002
    3        0.001   0.000   0.000   0.001
    4        0.002   0.001   0.000   0.003
    5        0.001  -0.000   0.000   0.001
    6        0.001   0.000   0.000   0.001
    7        0.002   0.003  -0.002   0.003
    8        0.004   0.006   0.002   0.012
    9        0.010   0.011   1.249   1.270
   10        0.010   0.013   1.203   1.226
   11        0.011   0.016   1.280   1.306
   12        0.012   0.015   1.288   1.315
   13        0.006   0.006   0.024   0.036
   14        0.011   0.017   1.249   1.277
   15        0.001   0.001  -0.039  -0.037
   16        0.001   0.001  -0.021  -0.018
   17        0.003   0.001  -0.005  -0.001
   18        0.007   0.008   1.150   1.165
   19        0.000  -0.043   0.000  -0.043
   20       -0.000  -0.062   0.000  -0.063
   21        0.001  -0.108   0.000  -0.108
   22        0.000  -0.088   0.000  -0.088
   23       -0.000  -0.028   0.000  -0.028
   24        0.000  -0.020   0.000  -0.020
   25        0.000  -0.071   0.000  -0.070
   26        0.001  -0.041   0.000  -0.040
   27        0.001  -0.069   0.000  -0.068
   28        0.001  -0.099   0.000  -0.098
   29        0.001  -0.039   0.000  -0.039
   30        0.002  -0.102   0.000  -0.100
   31        0.001  -0.170   0.000  -0.168
   32        0.001  -0.087   0.000  -0.086
   33        0.001  -0.089   0.000  -0.088
   34        0.001  -0.089   0.000  -0.088
   35       -0.001  -0.005   0.000  -0.006
   36        0.000  -0.029   0.000  -0.028
   37        0.000  -0.025   0.000  -0.025
   38        0.000  -0.010   0.000  -0.010
   39        0.001  -0.011   0.000  -0.010
   40       -0.000  -0.046   0.000  -0.046
   41       -0.001  -0.012   0.000  -0.012
   42       -0.000  -0.050   0.000  -0.050
--------------------------------------------------
tot          0.094  -1.295   7.378   6.177
 
    FORLOC:  cpu time    0.0075: real time    0.0075
    FORNL :  cpu time    4.3639: real time    4.3649
    STRESS:  cpu time   12.7288: real time   12.7314
    FORCOR:  cpu time    0.0467: real time    0.0467
    OFIELD:  cpu time    0.0005: real time    0.0005

  DFT-D2 method for vdW energy calculation
  -------------------------------------------------------------------

  Parameters of vdW forcefield:
         C6(Jnm^6/mol)     R0(A)
   -----------------------------
   Li       1.610          0.825
   Co      10.800          1.562
   O        0.700          1.342

  IVDW =   1
  VDW_RADIUS =    50.000 A
  VDW_S6 =     0.750
  VDW_SR =     1.000
  VDW_D =    20.000
  LVDW_EWALD = F

  Number of pair interactions contributing to vdW energy: 1210230
  Edisp (eV):   -9.59865
    FORVDW:  cpu time    0.1764: real time    0.1767

  FORCE on cell =-STRESS in cart. coord.  units (eV):
  Direction    XX          YY          ZZ          XY          YZ          ZX
  --------------------------------------------------------------------------------------
  Alpha Z   750.53875   750.53875   750.53875
  Ewald    -665.37005  -611.58420-11763.31028    52.37306   -38.29331   -12.73272
  Hartree  5497.23993  5522.48137 -3092.36791    21.66893    -7.26263     3.55563
  E(xc)   -1288.57408 -1288.44689 -1289.77964    -0.03176    -0.02719    -0.18121
  Local   -9793.61789 -9862.49782  9860.16249   -77.54753    41.02624     0.03829
  n-local  -587.74228  -585.10946  -593.82529     0.23760    -1.69409    -0.76700
  augment  2022.67293  2016.48863  1997.76237     3.18553     2.10304     4.75946
  Kinetic  4084.21165  4082.71177  4150.78368    -3.36251     2.68109     8.32261
  Fock        0.00000     0.00000     0.00000     0.00000     0.00000     0.00000
  vdW        -6.32033    -6.83513   -13.10901     0.37438     0.00846    -0.01708
  -------------------------------------------------------------------------------------
  Total      13.03863    17.74702     6.85515    -3.10230    -1.45839     2.97798
  in kB      53.48119    72.79382    28.11810   -12.72487    -5.98194    12.21494
  external pressure =       51.46 kB  Pullay stress =        0.00 kB


 VOLUME and BASIS-vectors are now :
 -----------------------------------------------------------------------------
  energy-cutoff  :      600.00
  volume of cell :      390.61
      direct lattice vectors                 reciprocal lattice vectors
     5.592015266  0.000000000  0.000000000     0.178826407  0.101631374  0.004692696
    -2.731917143  4.806969643  0.000000000     0.000000000  0.208031270  0.004054258
    -0.220376447 -0.283194363 14.531212807     0.000000000  0.000000000  0.068817380

  length of vectors
     5.592015266  5.529044078 14.535642760     0.205742172  0.208070772  0.068817380


 FORCES acting on ions:
    Electron-Ion                     Ewald-Force                    Non-Local-Force
 -----------------------------------------------------------------------------------------------
   -.170E+01 -.835E+00 -.202E+02   0.152E+01 0.104E+01 0.200E+02   0.387E+00 -.291E+00 0.722E+00
   0.323E+01 -.279E+01 -.119E+02   -.308E+01 0.243E+01 0.120E+02   -.519E+00 0.953E+00 0.160E+00
   0.496E+01 0.370E+00 -.177E+02   -.458E+01 -.527E+00 0.170E+02   -.793E+00 0.120E+00 0.107E+01
   -.130E+01 -.444E+01 -.174E+02   0.139E+01 0.405E+01 0.167E+02   -.279E+00 0.355E+00 0.942E+00
   -.171E+01 -.170E+01 0.287E+02   0.146E+01 0.140E+01 -.276E+02   0.223E-01 0.922E+00 -.932E+00
   0.508E+01 0.305E+01 0.286E+02   -.463E+01 -.278E+01 -.277E+02   -.642E+00 -.944E+00 -.488E+00
   0.873E+01 -.428E+02 -.261E+03   -.100E+02 0.436E+02 0.263E+03   -.151E+00 0.341E+00 -.138E+01
   -.113E+02 0.206E+02 -.328E+03   0.121E+02 -.209E+02 0.329E+03   -.647E+00 0.235E+00 -.403E+00
   0.362E+01 -.170E+02 -.202E+03   -.316E+01 0.165E+02 0.203E+03   -.919E+00 0.624E+00 -.562E+00
   0.347E+02 -.354E+01 -.326E+03   -.365E+02 0.613E+01 0.328E+03   -.285E+00 0.103E+01 -.807E+00
   0.158E+02 -.190E+02 0.209E+03   -.155E+02 0.199E+02 -.210E+03   -.175E+00 0.117E-01 -.852E+00
   0.222E+02 0.486E+01 0.179E+03   -.224E+02 -.363E+01 -.179E+03   -.781E+00 0.921E+00 0.146E+00
   -.447E+02 -.477E+02 0.204E+03   0.455E+02 0.477E+02 -.205E+03   0.112E+01 0.128E+01 0.757E+00
   0.203E+02 0.283E+02 0.141E+03   -.223E+02 -.289E+02 -.142E+03   -.374E+00 -.267E-01 0.107E+01
   0.939E+00 -.557E+01 0.163E+03   -.106E+01 0.672E+01 -.164E+03   -.267E+00 0.666E+00 -.986E+00
   0.407E+02 0.957E+00 0.106E+03   -.415E+02 -.149E+01 -.107E+03   -.176E+00 0.806E+00 0.407E+00
   -.527E+01 -.116E+02 0.520E+02   0.502E+01 0.128E+02 -.520E+02   -.120E+00 -.114E+01 0.977E+00
   -.988E+01 0.113E+02 0.601E+02   0.101E+02 -.130E+02 -.595E+02   -.878E+00 0.152E+00 0.761E+00
   -.214E+02 0.553E+01 -.545E+03   0.220E+02 -.423E+01 0.571E+03   0.889E+00 -.303E+01 -.253E+02
   -.242E+02 -.265E+02 -.515E+03   0.286E+02 0.265E+02 0.534E+03   -.416E+01 0.906E+00 -.191E+02
   0.795E+01 0.320E+02 -.533E+03   -.720E+01 -.340E+02 0.557E+03   -.646E+00 0.102E+01 -.244E+02
   0.246E+02 0.145E+02 -.530E+03   -.282E+02 -.182E+02 0.552E+03   0.375E+01 0.324E+01 -.221E+02
   0.997E+00 -.238E+01 0.161E+03   -.129E+01 0.128E+01 -.178E+03   0.825E+00 0.132E+01 0.162E+02
   0.291E+02 0.233E+02 0.149E+03   -.325E+02 -.254E+02 -.165E+03   0.368E+01 0.830E+00 0.153E+02
   -.158E+02 -.258E+02 0.169E+03   0.181E+02 0.265E+02 -.186E+03   -.160E+01 -.365E+00 0.180E+02
   -.341E+02 0.187E+02 0.174E+03   0.393E+02 -.190E+02 -.195E+03   -.518E+01 -.857E+00 0.203E+02
   -.299E+02 -.238E+01 -.219E+03   0.291E+02 0.285E+00 0.241E+03   0.261E+01 0.236E+01 -.223E+02
   -.791E+01 -.162E+02 -.227E+03   0.716E+01 0.152E+02 0.250E+03   0.169E+01 0.148E+01 -.247E+02
   0.478E+02 0.145E+02 -.209E+03   -.497E+02 -.149E+02 0.229E+03   0.208E+00 -.659E+00 -.190E+02
   -.104E+02 0.233E+02 -.235E+03   0.146E+02 -.238E+02 0.258E+03   -.413E+01 -.979E+00 -.220E+02
   -.102E+02 0.131E+02 0.472E+03   0.128E+02 -.139E+02 -.499E+03   -.228E+01 0.146E+00 0.263E+02
   -.827E+01 -.998E+01 0.473E+03   0.796E+01 0.964E+01 -.498E+03   -.431E+00 -.247E+00 0.240E+02
   -.156E+02 0.539E+02 0.450E+03   0.168E+02 -.584E+02 -.473E+03   -.762E+00 0.301E+01 0.233E+02
   0.264E+02 -.494E+02 0.461E+03   -.287E+02 0.531E+02 -.484E+03   0.219E+01 -.226E+01 0.240E+02
   0.471E+02 -.170E+02 -.284E+03   -.489E+02 0.193E+02 0.302E+03   0.517E+00 -.196E+01 -.158E+02
   -.110E+02 0.422E+02 -.301E+03   0.112E+02 -.460E+02 0.319E+03   -.971E-01 0.268E+01 -.171E+02
   -.583E+02 0.419E+01 -.294E+03   0.624E+02 -.458E+01 0.312E+03   -.142E+01 -.181E+00 -.171E+02
   0.114E+02 -.171E+02 -.277E+03   -.116E+02 0.171E+02 0.291E+03   0.364E+00 0.484E+00 -.147E+02
   0.107E+02 -.409E+02 0.429E+03   -.693E+01 0.461E+02 -.450E+03   -.467E+01 -.400E+01 0.201E+02
   -.445E+02 0.422E+01 0.409E+03   0.498E+02 -.244E+01 -.431E+03   -.404E+01 -.158E+01 0.218E+02
   -.565E+01 0.191E+02 0.415E+03   0.338E+01 -.224E+02 -.430E+03   0.264E+01 0.211E+01 0.142E+02
   0.183E+02 0.154E+02 0.424E+03   -.206E+02 -.188E+02 -.442E+03   0.296E+01 0.283E+01 0.163E+02
 -----------------------------------------------------------------------------------------------
   0.125E+02 -.123E+02 0.286E+01   0.426E-13 0.995E-13 -.398E-12   -.126E+02 0.123E+02 -.286E+01
 
 
 POSITION                                       TOTAL-FORCE (eV/Angst)
 -----------------------------------------------------------------------------------
     -0.36735      0.05787     14.30199         0.158689     -0.074951      0.406577
     -0.29413      4.49164     14.41429        -0.239979      0.480059      0.143295
      1.14447      2.34184     14.42999        -0.308477     -0.027975      0.138692
      2.91319      2.65468      4.68852        -0.114016     -0.015814      0.124222
      2.33625      1.31985      9.89750        -0.137432      0.410511      0.393357
      1.23648      4.14090      9.91659        -0.141416     -0.574576      0.348541
     -0.04063      1.74782      2.19344        -1.311681      0.909980      0.121584
     -1.43750      4.20662      2.21513         0.156587     -0.008388      0.952840
      2.76781      1.74859      2.11310        -0.398214      0.088945      0.524641
      1.43455      4.09507      2.23324        -1.884322      3.356930      0.742209
      2.93227      4.25376      7.43500         0.123693      0.858997     -1.348212
      4.34610      1.82736      7.40734        -0.832128      1.972581     -0.045573
      0.08292      4.23386      7.37188         1.576843      1.000621      0.530430
      1.56647      1.88637      7.41927        -2.079757     -0.461837     -0.177775
      1.08181      0.72180     12.14519        -0.335440      1.699799     -1.693406
     -0.28538      3.16203     12.17249        -0.726475      0.241204     -0.420187
      3.87860      0.76683     12.18459        -0.418173      0.037297      0.728985
      2.49499      3.19699     12.16189        -0.733419     -1.448575      1.150669
     -0.20018      0.24820      3.18903         1.574072     -1.773465      0.289775
     -1.50059      2.49511      3.14930         0.327506      0.924294      0.005744
      2.71628      0.25611      3.14476         0.087292     -0.991109      0.061954
      1.41941      2.54554      3.20776         0.097304     -0.464214     -0.245556
      1.30323      0.96820      1.15169         0.537160      0.221913     -0.102210
      0.00156      3.44451      1.28652         0.117960     -1.340604     -0.852927
      4.09399      0.88201      1.15201         0.630954      0.413832      0.356283
      2.76608      3.44841      1.22261         0.147533     -1.208251     -0.759888
      1.39172      0.27854      8.41353         1.730430      0.212539     -0.229968
      0.08033      2.62807      8.47171         0.990007      0.533587     -0.959864
      4.32664      0.29184      8.31321        -1.640741     -0.958301      0.747470
      2.90692      2.72976      8.38446         0.106319     -1.456547      0.880450
      0.12236      1.09779      6.46176         0.321739     -0.642450     -0.215910
     -1.27136      3.45919      6.51612        -0.761206     -0.586994     -1.237058
      2.88401      1.23070      6.33344         0.496219     -1.589441      0.802312
      1.56709      3.36015      6.39073        -0.150421      1.504630      0.326876
     -0.24568      1.52700     13.04689        -1.352743      0.369993      1.728588
     -1.69881      4.00838     13.09089         0.181852     -1.238831      1.428600
      2.27093      1.62078     13.18459         2.716677     -0.619626      0.106501
      1.11112      3.93926     13.30419         0.150971      0.471750     -1.334614
      5.31725     -0.15232     11.15419        -0.875592      1.288780     -0.430268
      3.75260      2.33051     11.19869         1.363384      0.228519     -0.352286
      2.51525      0.01854     11.22029         0.292425     -1.148184     -0.993060
      1.09720      2.44537     11.23809         0.556017     -0.596628     -1.641830
 -----------------------------------------------------------------------------------
    total drift:                               -0.003047      0.006470     -0.006041


--------------------------------------------------------------------------------------------------------



  FREE ENERGIE OF THE ION-ELECTRON SYSTEM (eV)
  ---------------------------------------------------
  free  energy   TOTEN  =      -233.42183531 eV

  energy  without entropy=     -233.41916912  energy(sigma->0) =     -233.42050221
 


--------------------------------------------------------------------------------------------------------


    POTLOK:  cpu time    0.0587: real time    0.0587


--------------------------------------------------------------------------------------------------------


     LOOP+:  cpu time 4566.1818: real time 4579.4428
    4ORBIT:  cpu time    0.0000: real time    0.0000
 


 total charge     
 
# of ion       s       p       d       tot
------------------------------------------
    1        0.106   0.229   0.000   0.335
    2        0.108   0.235   0.000   0.342
    3        0.112   0.246   0.000   0.358
    4        0.067   0.130   0.000   0.197
    5        0.092   0.190   0.000   0.283
    6        0.097   0.202   0.000   0.299
    7        0.436   0.687   7.378   8.500
    8        0.430   0.673   7.375   8.478
    9        0.480   0.781   7.262   8.522
   10        0.495   0.821   7.297   8.613
   11        0.492   0.819   7.278   8.589
   12        0.486   0.797   7.265   8.547
   13        0.411   0.613   7.339   8.364
   14        0.485   0.796   7.273   8.554
   15        0.491   0.816   7.521   8.828
   16        0.436   0.688   7.378   8.503
   17        0.429   0.664   7.379   8.472
   18        0.502   0.839   7.316   8.657
   19        1.578   3.398   0.000   4.976
   20        1.568   3.427   0.000   4.995
   21        1.582   3.364   0.000   4.946
   22        1.573   3.401   0.000   4.974
   23        1.558   3.486   0.000   5.044
   24        1.561   3.488   0.000   5.049
   25        1.568   3.431   0.000   4.999
   26        1.570   3.460   0.000   5.030
   27        1.575   3.404   0.000   4.979
   28        1.582   3.348   0.000   4.930
   29        1.568   3.478   0.000   5.046
   30        1.576   3.422   0.000   4.999
   31        1.587   3.353   0.000   4.940
   32        1.577   3.429   0.000   5.006
   33        1.579   3.366   0.000   4.945
   34        1.579   3.378   0.000   4.957
   35        1.559   3.517   0.000   5.076
   36        1.561   3.505   0.000   5.066
   37        1.566   3.459   0.000   5.025
   38        1.557   3.492   0.000   5.049
   39        1.569   3.450   0.000   5.020
   40        1.571   3.413   0.000   4.984
   41        1.556   3.517   0.000   5.073
   42        1.563   3.469   0.000   5.033
--------------------------------------------------
tot         43.838  92.682  88.062 224.581
 


 magnetization (x)
 
# of ion       s       p       d       tot
------------------------------------------
    1        0.000  -0.000   0.000  -0.000
    2       -0.000  -0.001   0.000  -0.002
    3        0.001   0.000   0.000   0.001
    4        0.002   0.001   0.000   0.003
    5        0.001  -0.000   0.000   0.001
    6        0.001   0.000   0.000   0.001
    7        0.002   0.003  -0.002   0.003
    8        0.004   0.006   0.002   0.012
    9        0.010   0.011   1.249   1.270
   10        0.010   0.013   1.203   1.226
   11        0.011   0.016   1.280   1.306
   12        0.012   0.015   1.288   1.315
   13        0.006   0.006   0.024   0.036
   14        0.011   0.017   1.249   1.277
   15        0.001   0.001  -0.039  -0.037
   16        0.001   0.001  -0.021  -0.018
   17        0.003   0.001  -0.005  -0.001
   18        0.007   0.008   1.150   1.165
   19        0.000  -0.043   0.000  -0.043
   20       -0.000  -0.062   0.000  -0.063
   21        0.001  -0.108   0.000  -0.108
   22        0.000  -0.088   0.000  -0.088
   23       -0.000  -0.028   0.000  -0.028
   24        0.000  -0.020   0.000  -0.020
   25        0.000  -0.071   0.000  -0.070
   26        0.001  -0.041   0.000  -0.040
   27        0.001  -0.069   0.000  -0.068
   28        0.001  -0.099   0.000  -0.098
   29        0.001  -0.039   0.000  -0.039
   30        0.002  -0.102   0.000  -0.100
   31        0.001  -0.170   0.000  -0.168
   32        0.001  -0.087   0.000  -0.086
   33        0.001  -0.089   0.000  -0.088
   34        0.001  -0.089   0.000  -0.088
   35       -0.001  -0.005   0.000  -0.006
   36        0.000  -0.029   0.000  -0.028
   37        0.000  -0.025   0.000  -0.025
   38        0.000  -0.010   0.000  -0.010
   39        0.001  -0.011   0.000  -0.010
   40       -0.000  -0.046   0.000  -0.046
   41       -0.001  -0.012   0.000  -0.012
   42       -0.000  -0.050   0.000  -0.050
--------------------------------------------------
tot          0.094  -1.295   7.378   6.177
 

 total amount of memory used by VASP MPI-rank0   158243. kBytes
=======================================================================

   base      :      30000. kBytes
   nonlr-proj:       4344. kBytes
   fftplans  :       1688. kBytes
   grid      :       4644. kBytes
   one-center:        342. kBytes
   wavefun   :     117225. kBytes
 
  
  
 General timing and accounting informations for this job:
 ========================================================
  
                  Total CPU time used (sec):     4591.115
                            User time (sec):     4285.640
                          System time (sec):      305.475
                         Elapsed time (sec):     4604.818
  
                   Maximum memory used (kb):     1036696.
                   Average memory used (kb):           0.
  
                          Minor page faults:        71041
                          Major page faults:           71
                 Voluntary context switches:          572
