 vasp.5.4.4.18Apr17-6-g9f103f2a35 (build Nov 22 2021 14:44:17) complex          
  
 executed on             LinuxIFC date 2022.08.08  11:56:37
 running on   64 total cores
 distrk:  each k-point on   64 cores,    1 groups
 distr:  one band on NCORES_PER_BAND=   4 cores,   16 groups


--------------------------------------------------------------------------------------------------------


 INCAR:
 POTCAR:    PAW_PBE Li 17Jan2003                  
 POTCAR:    PAW_PBE Co 02Aug2007                  
 POTCAR:    PAW_PBE O 08Apr2002                   
 POTCAR:    PAW_PBE Li 17Jan2003                  
   VRHFIN =Li: s1p0                                                             
   LEXCH  = PE                                                                  
   EATOM  =     5.3001 eV,    0.3895 Ry                                         
                                                                                
   TITEL  = PAW_PBE Li 17Jan2003                                                
   LULTRA =        F    use ultrasoft PP ?                                      
   IUNSCR =        1    unscreen: 0-lin 1-nonlin 2-no                           
   RPACOR =    1.500    partial core radius                                     
   POMASS =    7.010; ZVAL   =    1.000    mass and valenz                      
   RCORE  =    2.050    outmost cutoff radius                                   
   RWIGS  =    2.600; RWIGS  =    1.376    wigner-seitz radius (au A)           
   ENMAX  =  140.000; ENMIN  =  100.000 eV                                      
   ICORE  =        2    local potential                                         
   LCOR   =        T    correct aug charges                                     
   LPAW   =        T    paw PP                                                  
   EAUG   =  331.638                                                            
   DEXC   =    0.000                                                            
   RMAX   =    2.098    core radius for proj-oper                               
   RAUG   =    1.300    factor for augmentation sphere                          
   RDEP   =    2.094    radius for radial grids                                 
   RDEPT  =    1.810    core radius for aug-charge                              
                                                                                
   Atomic configuration                                                         
    4 entries                                                                   
     n  l   j            E        occ.                                          
     1  0  0.50       -51.8549   2.0000                                         
     2  0  0.50        -2.8742   1.0000                                         
     2  1  0.50        -1.3606   0.0000                                         
     3  2  1.50        -1.3606   0.0000                                         
   Description                                                                  
     l       E           TYP  RCUT    TYP  RCUT                                 
     0     -2.8742052     23  2.050                                             
     0     27.2116520     23  2.050                                             
     1     -1.3605826     23  2.050                                             
     2     -1.3605826     23  2.050                                             
  local pseudopotential read in
  partial core-charges read in
  partial kinetic energy density read in
  atomic valenz-charges read in
  non local Contribution for L=           0  read in
    real space projection operators read in
  non local Contribution for L=           0  read in
    real space projection operators read in
  non local Contribution for L=           1  read in
    real space projection operators read in
    PAW grid and wavefunctions read in
 
   number of l-projection  operators is LMAX  =           3
   number of lm-projection operators is LMMAX =           5
 
 POTCAR:    PAW_PBE Co 02Aug2007                  
   VRHFIN =Co: d8 s1                                                            
   LEXCH  = PE                                                                  
   EATOM  =   813.3670 eV,   59.7808 Ry                                         
                                                                                
   TITEL  = PAW_PBE Co 02Aug2007                                                
   LULTRA =        F    use ultrasoft PP ?                                      
   IUNSCR =        1    unscreen: 0-lin 1-nonlin 2-no                           
   RPACOR =    2.000    partial core radius                                     
   POMASS =   58.933; ZVAL   =    9.000    mass and valenz                      
   RCORE  =    2.300    outmost cutoff radius                                   
   RWIGS  =    2.460; RWIGS  =    1.302    wigner-seitz radius (au A)           
   ENMAX  =  267.968; ENMIN  =  200.976 eV                                      
   RCLOC  =    1.203    cutoff for local pot                                    
   LCOR   =        T    correct aug charges                                     
   LPAW   =        T    paw PP                                                  
   EAUG   =  477.818                                                            
   DEXC   =    0.000                                                            
   RMAX   =    2.360    core radius for proj-oper                               
   RAUG   =    1.300    factor for augmentation sphere                          
   RDEP   =    2.393    radius for radial grids                                 
   RDEPT  =    1.864    core radius for aug-charge                              
                                                                                
   Atomic configuration                                                         
    9 entries                                                                   
     n  l   j            E        occ.                                          
     1  0  0.50     -7587.6674   2.0000                                         
     2  0  0.50      -893.6084   2.0000                                         
     2  1  1.50      -764.5805   6.0000                                         
     3  0  0.50       -97.5973   2.0000                                         
     3  1  1.50       -60.9648   6.0000                                         
     3  2  2.50        -4.2382   8.0000                                         
     4  0  0.50        -4.3746   1.0000                                         
     4  1  1.50        -4.0817   0.0000                                         
     4  3  2.50        -1.3606   0.0000                                         
   Description                                                                  
     l       E           TYP  RCUT    TYP  RCUT                                 
     2     -4.2382362     23  2.300                                             
     2     -5.5988188     23  2.300                                             
     0     -4.3745797     23  2.300                                             
     0      5.7660125     23  2.300                                             
     1     -2.7211652     23  2.300                                             
     1     16.9860234     23  2.300                                             
  local pseudopotential read in
  partial core-charges read in
  partial kinetic energy density read in
  atomic valenz-charges read in
  non local Contribution for L=           2  read in
    real space projection operators read in
  non local Contribution for L=           2  read in
    real space projection operators read in
  non local Contribution for L=           0  read in
    real space projection operators read in
  non local Contribution for L=           0  read in
    real space projection operators read in
  non local Contribution for L=           1  read in
    real space projection operators read in
  non local Contribution for L=           1  read in
    real space projection operators read in
    PAW grid and wavefunctions read in
 
   number of l-projection  operators is LMAX  =           6
   number of lm-projection operators is LMMAX =          18
 
 POTCAR:    PAW_PBE O 08Apr2002                   
   VRHFIN =O: s2p4                                                              
   LEXCH  = PE                                                                  
   EATOM  =   432.3788 eV,   31.7789 Ry                                         
                                                                                
   TITEL  = PAW_PBE O 08Apr2002                                                 
   LULTRA =        F    use ultrasoft PP ?                                      
   IUNSCR =        1    unscreen: 0-lin 1-nonlin 2-no                           
   RPACOR =    1.200    partial core radius                                     
   POMASS =   16.000; ZVAL   =    6.000    mass and valenz                      
   RCORE  =    1.520    outmost cutoff radius                                   
   RWIGS  =    1.550; RWIGS  =    0.820    wigner-seitz radius (au A)           
   ENMAX  =  400.000; ENMIN  =  300.000 eV                                      
   ICORE  =        2    local potential                                         
   LCOR   =        T    correct aug charges                                     
   LPAW   =        T    paw PP                                                  
   EAUG   =  605.392                                                            
   DEXC   =    0.000                                                            
   RMAX   =    1.553    core radius for proj-oper                               
   RAUG   =    1.300    factor for augmentation sphere                          
   RDEP   =    1.550    radius for radial grids                                 
   RDEPT  =    1.329    core radius for aug-charge                              
                                                                                
   Atomic configuration                                                         
    4 entries                                                                   
     n  l   j            E        occ.                                          
     1  0  0.50      -514.6923   2.0000                                         
     2  0  0.50       -23.9615   2.0000                                         
     2  1  0.50        -9.0305   4.0000                                         
     3  2  1.50        -9.5241   0.0000                                         
   Description                                                                  
     l       E           TYP  RCUT    TYP  RCUT                                 
     0    -23.9615318     23  1.200                                             
     0     -9.5240782     23  1.200                                             
     1     -9.0304911     23  1.520                                             
     1      8.1634956     23  1.520                                             
     2     -9.5240782      7  1.500                                             
  local pseudopotential read in
  partial core-charges read in
  partial kinetic energy density read in
  kinetic energy density of atom read in
  atomic valenz-charges read in
  non local Contribution for L=           0  read in
    real space projection operators read in
  non local Contribution for L=           0  read in
    real space projection operators read in
  non local Contribution for L=           1  read in
    real space projection operators read in
  non local Contribution for L=           1  read in
    real space projection operators read in
    PAW grid and wavefunctions read in
 
   number of l-projection  operators is LMAX  =           4
   number of lm-projection operators is LMMAX =           8
 
 Optimization of the real space projectors (new method)

 maximal supplied QI-value         = 18.33
 optimisation between [QCUT,QGAM] = [ 12.46, 24.93] = [ 43.51,174.03] Ry 
 Optimized for a Real-space Cutoff    1.13 Angstroem

   l    n(q)    QCUT    max X(q) W(low)/X(q) W(high)/X(q)  e(spline) 
   0      8    12.465    33.825    0.12E-03    0.29E-03    0.99E-07
   0      8    12.465     8.944    0.86E-04    0.22E-03    0.72E-07
   1      8    12.465     4.214    0.27E-03    0.11E-03    0.82E-07
 Optimization of the real space projectors (new method)

 maximal supplied QI-value         = 16.25
 optimisation between [QCUT,QGAM] = [ 12.51, 25.03] = [ 43.85,175.40] Ry 
 Optimized for a Real-space Cutoff    1.31 Angstroem

   l    n(q)    QCUT    max X(q) W(low)/X(q) W(high)/X(q)  e(spline) 
   2      9    12.514    65.824    0.30E-03    0.46E-03    0.43E-06
   2      9    12.514    61.429    0.31E-03    0.46E-03    0.44E-06
   0     10    12.514    56.174    0.90E-04    0.33E-03    0.30E-06
   0     10    12.514    31.263    0.81E-04    0.30E-03    0.28E-06
   1      9    12.514    19.828    0.38E-03    0.65E-04    0.24E-06
   1      9    12.514    15.139    0.32E-03    0.60E-04    0.20E-06
 Optimization of the real space projectors (new method)

 maximal supplied QI-value         = 24.76
 optimisation between [QCUT,QGAM] = [ 12.38, 25.00] = [ 42.90,175.06] Ry 
 Optimized for a Real-space Cutoff    1.13 Angstroem

   l    n(q)    QCUT    max X(q) W(low)/X(q) W(high)/X(q)  e(spline) 
   0      8    12.378    20.381    0.16E-03    0.54E-05    0.27E-06
   0      8    12.378    15.268    0.17E-03    0.61E-05    0.29E-06
   1      8    12.378     5.964    0.38E-03    0.23E-03    0.28E-06
   1      8    12.378     5.382    0.33E-03    0.20E-03    0.25E-06
  PAW_PBE Li 17Jan2003                  :
 energy of atom  1       EATOM=   -5.3001
 kinetic energy error for atom=    0.0000 (will be added to EATOM!!)
  PAW_PBE Co 02Aug2007                  :
 energy of atom  2       EATOM= -813.3670
 kinetic energy error for atom=    0.0018 (will be added to EATOM!!)
  PAW_PBE O 08Apr2002                   :
 energy of atom  3       EATOM= -432.3788
 kinetic energy error for atom=    0.0168 (will be added to EATOM!!)
 
 
 POSCAR: Li6 Co12 O24                            
  positions in cartesian coordinates
  No initial velocities read in
 exchange correlation table for  LEXCH =        8
   RHO(1)=    0.500       N(1)  =     2000
   RHO(2)=  100.500       N(2)  =     4000
 


--------------------------------------------------------------------------------------------------------


 ion  position               nearest neighbor table
   1  0.473  0.773  0.029-  26 1.94  23 1.94   9 2.38  25 2.50  35 2.53
   2  0.777  0.143  0.343-  19 1.96  32 2.07  33 2.11  22 2.13  34 2.17  20 2.30  12 2.79   3 2.83
                            14 2.85  11 2.85  10 2.89   8 2.92   3 2.93   9 2.94
   3  0.650  0.571  0.341-  21 1.80  34 2.02  33 2.07  20 2.24  31 2.48  19 2.55  13 2.65   9 2.71
                             2 2.83  10 2.87   2 2.93  12 3.02  11 3.02
   4  0.173  0.873  0.658-  40 1.97  29 1.98  39 2.09  28 2.10  27 2.17  42 2.23   6 2.74  17 2.74
                             5 2.75   6 2.84  12 2.86   5 2.88  11 2.90  14 2.94  15 3.01  16 3.07
   5  0.164  0.380  0.658-  39 1.92  27 2.01  30 2.13  28 2.18  40 2.29  41 2.35   6 2.60  18 2.72
                             4 2.75  11 2.80  15 2.83   4 2.88  13 2.90   6 2.95  12 3.02
   6  0.692  0.373  0.656-  41 2.01  29 2.03  30 2.10  42 2.14  28 2.17  39 2.19   5 2.60   4 2.74
                            13 2.81   4 2.84  11 2.86  14 2.89   5 2.95  16 2.96  17 2.99  18 3.01
   7  0.065  0.736  0.182-  25 1.77  23 1.81  22 1.92  20 1.93  24 1.96  19 1.97   9 2.70  10 2.71
                             8 2.74   9 2.86  10 2.87   8 2.89
   8  0.069  0.252  0.182-  21 1.80  19 1.84  26 1.88  23 1.90  24 1.99  20 2.05   7 2.74  10 2.76
                             9 2.78   9 2.79  10 2.79   7 2.89   2 2.92
   9  0.562  0.759  0.185-  26 1.82  22 1.83  23 1.86  20 1.91  21 1.91  25 2.06   1 2.38   7 2.70
                             3 2.71   8 2.78   8 2.79  10 2.79  10 2.83   7 2.86   2 2.94
  10  0.569  0.259  0.178-  24 1.82  21 1.83  19 1.83  22 1.86  26 1.89  25 1.94   7 2.71   8 2.76
                             8 2.79   9 2.79   9 2.83   7 2.87   3 2.87   2 2.89
  11  0.982  0.511  0.498-  31 1.79  27 1.82  34 1.84  29 1.88  32 1.91  30 2.04  12 2.72  13 2.75
                            14 2.75   5 2.80  13 2.81  14 2.83   2 2.85   6 2.86   4 2.90  12 2.90
  12  0.969  0.989  0.495-  33 1.78  31 1.85  28 1.88  32 1.93  29 1.93  30 1.99  11 2.72  13 2.73
                            14 2.73   2 2.79  14 2.83  13 2.85   4 2.86  11 2.90   5 3.02   3 3.02
  13  0.476  0.508  0.503-  32 1.88  27 1.89  28 1.90  33 1.93  34 1.93  29 1.95   3 2.65  12 2.73
                            14 2.73  11 2.75  11 2.81   6 2.81  12 2.85  14 2.89   5 2.90
  14  0.483  0.997  0.499-  30 1.76  33 1.83  34 1.87  27 1.96  31 1.99  28 2.05  12 2.73  13 2.73
                            11 2.75  11 2.83  12 2.83   2 2.85   6 2.89  13 2.89   4 2.94
  15  0.437  0.729  0.814-  35 1.83  36 1.86  41 1.88  39 1.93  42 1.94  37 1.96  18 2.69  17 2.72
                            16 2.81   5 2.83  16 2.84  17 2.84  18 2.88   4 3.01
  16  0.456  0.241  0.830-  36 1.82  42 1.85  38 1.85  41 1.95  35 2.00  40 2.09  18 2.72  17 2.77
                            15 2.81  17 2.82  15 2.84  18 2.85   6 2.96   4 3.07
  17  0.942  0.758  0.818-  40 1.72  37 1.86  35 1.89  41 1.94  39 1.94  38 1.94  15 2.72   4 2.74
                            16 2.77  18 2.77  16 2.82  15 2.84  18 2.85   6 2.99
  18  0.948  0.254  0.819-  38 1.83  36 1.87  39 1.89  40 1.94  37 1.96  42 2.02  15 2.69  16 2.72
                             5 2.72  17 2.77  16 2.85  17 2.85  15 2.88   6 3.01
  19  0.902  0.398  0.247-  10 1.83   8 1.84   2 1.96   7 1.97   3 2.55
  20  0.914  0.907  0.254-   9 1.91   7 1.93   8 2.05   3 2.24   2 2.30
  21  0.413  0.417  0.242-   3 1.80   8 1.80  10 1.83   9 1.91
  22  0.430  0.949  0.245-   9 1.83  10 1.86   7 1.92   2 2.13
  23  0.216  0.577  0.118-   7 1.81   9 1.86   8 1.90   1 1.94
  24  0.229  0.067  0.114-  10 1.82   7 1.96   8 1.99
  25  0.746  0.590  0.113-   7 1.77  10 1.94   9 2.06   1 2.50
  26  0.713  0.063  0.120-   9 1.82   8 1.88  10 1.89   1 1.94
  27  0.312  0.669  0.568-  11 1.82  13 1.89  14 1.96   5 2.01   4 2.17
  28  0.309  0.184  0.567-  12 1.88  13 1.90  14 2.05   4 2.10   6 2.17   5 2.18
  29  0.842  0.681  0.570-  11 1.88  12 1.93  13 1.95   4 1.98   6 2.03
  30  0.803  0.162  0.566-  14 1.76  12 1.99  11 2.04   6 2.10   5 2.13
  31  0.107  0.806  0.432-  11 1.79  12 1.85  14 1.99   3 2.48
  32  0.129  0.327  0.434-  13 1.88  11 1.91  12 1.93   2 2.07
  33  0.633  0.832  0.435-  12 1.78  14 1.83  13 1.93   3 2.07   2 2.11
  34  0.629  0.322  0.439-  11 1.84  14 1.87  13 1.93   3 2.02   2 2.17
  35  0.289  0.877  0.886-  15 1.83  17 1.89  16 2.00   1 2.53
  36  0.301  0.422  0.882-  16 1.82  15 1.86  18 1.87
  37  0.796  0.923  0.887-  17 1.86  18 1.96  15 1.96
  38  0.815  0.431  0.886-  18 1.83  16 1.85  17 1.94
  39  0.073  0.561  0.747-  18 1.89   5 1.92  15 1.93  17 1.94   4 2.09   6 2.19
  40  0.070  0.038  0.754-  17 1.72  18 1.94   4 1.97  16 2.09   5 2.29
  41  0.581  0.543  0.751-  15 1.88  17 1.94  16 1.95   6 2.01   5 2.35
  42  0.563  0.064  0.752-  16 1.85  15 1.94  18 2.02   6 2.14   4 2.23
 

IMPORTANT INFORMATION: All symmetrisations will be switched off!
NOSYMM: (Re-)initialisation of all symmetry stuff for point group C_1.

 
 

Automatic generation of k-mesh.
 generate k-points for:    6    6    2
Space group operators:
 irot       det(A)        alpha          n_x          n_y          n_z        tau_x        tau_y        tau_z
    1     1.000000     0.000001     1.000000     0.000000     0.000000     0.000000     0.000000     0.000000
 
 Subroutine IBZKPT returns following result:
 ===========================================
 
 Found     36 irreducible k-points:
 
 Following reciprocal coordinates:
            Coordinates               Weight
  0.083333  0.083333  0.250000      2.000000
  0.250000  0.083333  0.250000      2.000000
  0.416667  0.083333  0.250000      2.000000
 -0.416667  0.083333  0.250000      2.000000
 -0.250000  0.083333  0.250000      2.000000
 -0.083333  0.083333  0.250000      2.000000
  0.083333  0.250000  0.250000      2.000000
  0.250000  0.250000  0.250000      2.000000
  0.416667  0.250000  0.250000      2.000000
 -0.416667  0.250000  0.250000      2.000000
 -0.250000  0.250000  0.250000      2.000000
 -0.083333  0.250000  0.250000      2.000000
  0.083333  0.416667  0.250000      2.000000
  0.250000  0.416667  0.250000      2.000000
  0.416667  0.416667  0.250000      2.000000
 -0.416667  0.416667  0.250000      2.000000
 -0.250000  0.416667  0.250000      2.000000
 -0.083333  0.416667  0.250000      2.000000
  0.083333 -0.416667  0.250000      2.000000
  0.250000 -0.416667  0.250000      2.000000
  0.416667 -0.416667  0.250000      2.000000
 -0.416667 -0.416667  0.250000      2.000000
 -0.250000 -0.416667  0.250000      2.000000
 -0.083333 -0.416667  0.250000      2.000000
  0.083333 -0.250000  0.250000      2.000000
  0.250000 -0.250000  0.250000      2.000000
  0.416667 -0.250000  0.250000      2.000000
 -0.416667 -0.250000  0.250000      2.000000
 -0.250000 -0.250000  0.250000      2.000000
 -0.083333 -0.250000  0.250000      2.000000
  0.083333 -0.083333  0.250000      2.000000
  0.250000 -0.083333  0.250000      2.000000
  0.416667 -0.083333  0.250000      2.000000
 -0.416667 -0.083333  0.250000      2.000000
 -0.250000 -0.083333  0.250000      2.000000
 -0.083333 -0.083333  0.250000      2.000000
 
 Following cartesian coordinates:
            Coordinates               Weight
  0.015004  0.025884  0.019316      2.000000
  0.045012  0.043357  0.022539      2.000000
  0.075020  0.060829  0.025761      2.000000
 -0.075020 -0.026533  0.009648      2.000000
 -0.045012 -0.009061  0.012871      2.000000
 -0.015004  0.008412  0.016093      2.000000
  0.015004  0.060180  0.021403      2.000000
  0.045012  0.077652  0.024626      2.000000
  0.075020  0.095125  0.027848      2.000000
 -0.075020  0.007763  0.011735      2.000000
 -0.045012  0.025235  0.014958      2.000000
 -0.015004  0.042707  0.018180      2.000000
  0.015004  0.094476  0.023490      2.000000
  0.045012  0.111948  0.026713      2.000000
  0.075020  0.129421  0.029935      2.000000
 -0.075020  0.042058  0.013822      2.000000
 -0.045012  0.059531  0.017045      2.000000
 -0.015004  0.077003  0.020267      2.000000
  0.015004 -0.077003  0.013055      2.000000
  0.045012 -0.059531  0.016278      2.000000
  0.075020 -0.042058  0.019501      2.000000
 -0.075020 -0.129421  0.003387      2.000000
 -0.045012 -0.111948  0.006610      2.000000
 -0.015004 -0.094476  0.009832      2.000000
  0.015004 -0.042707  0.015142      2.000000
  0.045012 -0.025235  0.018365      2.000000
  0.075020 -0.007763  0.021588      2.000000
 -0.075020 -0.095125  0.005474      2.000000
 -0.045012 -0.077652  0.008697      2.000000
 -0.015004 -0.060180  0.011919      2.000000
  0.015004 -0.008412  0.017229      2.000000
  0.045012  0.009061  0.020452      2.000000
  0.075020  0.026533  0.023674      2.000000
 -0.075020 -0.060829  0.007561      2.000000
 -0.045012 -0.043357  0.010784      2.000000
 -0.015004 -0.025884  0.014006      2.000000
 


--------------------------------------------------------------------------------------------------------




 Dimension of arrays:
   k-points           NKPTS =     36   k-points in BZ     NKDIM =     36   number of bands    NBANDS=    160
   number of dos      NEDOS =    301   number of ions     NIONS =     42
   non local maximal  LDIM  =      6   non local SUM 2l+1 LMDIM =     18
   total plane-waves  NPLWV = 116640
   max r-space proj   IRMAX =   2741   max aug-charges    IRDMAX=  11557
   dimension x,y,z NGX =    36 NGY =   36 NGZ =   90
   dimension x,y,z NGXF=    72 NGYF=   72 NGZF=  180
   support grid    NGXF=    72 NGYF=   72 NGZF=  180
   ions per type =               6  12  24
   NGX,Y,Z   is equivalent  to a cutoff of  10.78, 10.64,  9.93 a.u.
   NGXF,Y,Z  is equivalent  to a cutoff of  21.55, 21.29, 19.86 a.u.

 SYSTEM =  LiCoO2                                  
 POSCAR =  Li6 Co12 O24                            

 Startparameter for this run:
   NWRITE =      2    write-flag & timer
   PREC   = normal    normal or accurate (medium, high low for compatibility)
   ISTART =      0    job   : 0-new  1-cont  2-samecut
   ICHARG =      2    charge: 1-file 2-atom 10-const
   ISPIN  =      2    spin polarized calculation?
   LNONCOLLINEAR =      F non collinear calculations
   LSORBIT =      F    spin-orbit coupling
   INIWAV =      1    electr: 0-lowe 1-rand  2-diag
   LASPH  =      F    aspherical Exc in radial PAW
   METAGGA=      F    non-selfconsistent MetaGGA calc.

 Electronic Relaxation 1
   ENCUT  =  600.0 eV  44.10 Ry    6.64 a.u.  11.09 11.23 30.10*2*pi/ulx,y,z
   ENINI  =  600.0     initial cutoff
   ENAUG  =  605.4 eV  augmentation charge cutoff
   NELM   =    600;   NELMIN=  2; NELMDL= -5     # of ELM steps 
   EDIFF  = 0.1E-05   stopping-criterion for ELM
   LREAL  =      T    real-space projection
   NLSPLINE    = F    spline interpolate recip. space projectors
   LCOMPAT=      F    compatible to vasp.4.4
   GGA_COMPAT  = T    GGA compatible to vasp.4.4-vasp.4.6
   LMAXPAW     = -100 max onsite density
   LMAXMIX     =    2 max onsite mixed and CHGCAR
   VOSKOWN=      0    Vosko Wilk Nusair interpolation
   ROPT   =   -0.00050  -0.00050  -0.00050
 Ionic relaxation
   EDIFFG = 0.1E-04   stopping-criterion for IOM
   NSW    =      0    number of steps for IOM
   NBLOCK =      1;   KBLOCK =      1    inner block; outer block 
   IBRION =     -1    ionic relax: 0-MD 1-quasi-New 2-CG
   NFREE  =      0    steps in history (QN), initial steepest desc. (CG)
   ISIF   =      2    stress and relaxation
   IWAVPR =     10    prediction:  0-non 1-charg 2-wave 3-comb
   ISYM   =      0    0-nonsym 1-usesym 2-fastsym
   LCORR  =      T    Harris-Foulkes like correction to forces

   POTIM  = 0.5000    time-step for ionic-motion
   TEIN   =    0.0    initial temperature
   TEBEG  =    0.0;   TEEND  =   0.0 temperature during run
   SMASS  =  -3.00    Nose mass-parameter (am)
   estimated Nose-frequenzy (Omega)   =  0.10E-29 period in steps =****** mass=  -0.705E-27a.u.
   SCALEE = 1.0000    scale energy and forces
   NPACO  =    256;   APACO  = 16.0  distance and # of slots for P.C.
   PSTRESS=    0.0 pullay stress

  Mass of Ions in am
   POMASS =   7.01 58.93 16.00
  Ionic Valenz
   ZVAL   =   1.00  9.00  6.00
  Atomic Wigner-Seitz radii
   RWIGS  =  -1.00 -1.00 -1.00
  virtual crystal weights 
   VCA    =   1.00  1.00  1.00
   NELECT =     258.0000    total number of electrons
   NUPDOWN=       6.0000    fix difference up-down

 DOS related values:
   EMIN   =  10.00;   EMAX   =-10.00  energy-range for DOS
   EFERMI =   0.00
   ISMEAR =     0;   SIGMA  =   0.05  broadening in eV -4-tet -1-fermi 0-gaus

 Electronic relaxation 2 (details)
   IALGO  =     58    algorithm
   LDIAG  =      T    sub-space diagonalisation (order eigenvalues)
   LSUBROT=      F    optimize rotation matrix (better conditioning)
   TURBO    =      0    0=normal 1=particle mesh
   IRESTART =      0    0=no restart 2=restart with 2 vectors
   NREBOOT  =      0    no. of reboots
   NMIN     =      0    reboot dimension
   EREF     =   0.00    reference energy to select bands
   IMIX   =      4    mixing-type and parameters
     AMIX     =   0.40;   BMIX     =  1.00
     AMIX_MAG =   1.60;   BMIX_MAG =  1.00
     AMIN     =   0.10
     WC   =   100.;   INIMIX=   1;  MIXPRE=   1;  MAXMIX= -45

 Intra band minimization:
   WEIMIN = 0.0000     energy-eigenvalue tresh-hold
   EBREAK =  0.16E-08  absolut break condition
   DEPER  =   0.30     relativ break condition  

   TIME   =   0.40     timestep for ELM

  volume/ion in A,a.u.               =       9.64        65.07
  Fermi-wavevector in a.u.,A,eV,Ry     =   1.408631  2.661927 26.997254  1.984242
  Thomas-Fermi vector in A             =   2.530769
 
 Write flags
   LWAVE        =      F    write WAVECAR
   LDOWNSAMPLE  =      F    k-point downsampling of WAVECAR
   LCHARG       =      F    write CHGCAR
   LVTOT        =      F    write LOCPOT, total local potential
   LVHAR        =      F    write LOCPOT, Hartree potential only
   LELF         =      F    write electronic localiz. function (ELF)
   LORBIT       =     11    0 simple, 1 ext, 2 COOP (PROOUT), +10 PAW based schemes


 Dipole corrections
   LMONO  =      F    monopole corrections only (constant potential shift)
   LDIPOL =      F    correct potential (dipole corrections)
   IDIPOL =      0    1-x, 2-y, 3-z, 4-all directions 
   EPSILON=  1.0000000 bulk dielectric constant

 LDA+U is selected, type is set to LDAUTYPE =  2
   angular momentum for each species LDAUL =    -1    2   -1
   U (eV)           for each species LDAUU =   0.0  5.1  0.0
   J (eV)           for each species LDAUJ =   0.0  0.0  0.0
 Exchange correlation treatment:
   GGA     =    --    GGA type
   LEXCH   =     8    internal setting for exchange type
   VOSKOWN=      0    Vosko Wilk Nusair interpolation
   LHFCALC =     F    Hartree Fock is set to
   LHFONE  =     F    Hartree Fock one center treatment
   AEXX    =    0.0000 exact exchange contribution

 Linear response parameters
   LEPSILON=     F    determine dielectric tensor
   LRPA    =     F    only Hartree local field effects (RPA)
   LNABLA  =     F    use nabla operator in PAW spheres
   LVEL    =     F    velocity operator in full k-point grid
   LINTERFAST=   F  fast interpolation
   KINTER  =     0    interpolate to denser k-point grid
   CSHIFT  =0.1000    complex shift for real part using Kramers Kronig
   OMEGAMAX=  -1.0    maximum frequency
   DEG_THRESHOLD= 0.2000000E-02 threshold for treating states as degnerate
   RTIME   =   -0.100 relaxation time in fs
  (WPLASMAI=    0.000 imaginary part of plasma frequency in eV, 0.658/RTIME)
   DFIELD  = 0.0000000 0.0000000 0.0000000 field for delta impulse in time
 
 Orbital magnetization related:
   ORBITALMAG=     F  switch on orbital magnetization
   LCHIMAG   =     F  perturbation theory with respect to B field
   DQ        =  0.001000  dq finite difference perturbation B field
   LLRAUG    =     F  two centre corrections for induced B field



--------------------------------------------------------------------------------------------------------


 Static calculation
 charge density and potential will be updated during run
 spin polarized calculation
 Conjugate gradient for all bands (Freysoldt, et al. PRB 79, 241103 (2009))
 preconditioned conjugated gradient                                        
 perform sub-space diagonalisation
    before iterative eigenvector-optimisation
 modified Broyden-mixing scheme, WC =      100.0
 initial mixing is a Kerker type mixing with AMIX =  0.4000 and BMIX =      1.0000
 Hartree-type preconditioning will be used
 using additional bands           31
 real space projection scheme for non local part
 use partial core corrections
 no Harris-corrections to forces 
 use gradient corrections 
 use of overlap-Matrix (Vanderbilt PP)
 Gauss-broadening in eV      SIGMA  =   0.05


--------------------------------------------------------------------------------------------------------


  energy-cutoff  :      600.00
  volume of cell :      405.00
      direct lattice vectors                 reciprocal lattice vectors
     5.554084301  0.000000000  0.000000000     0.180047681  0.104834453  0.019336118
    -2.829595804  4.859682560  0.000000000     0.000000000  0.205774757  0.012521908
    -1.079786777 -0.913082898 15.004855156     0.000000000  0.000000000  0.066645095

  length of vectors
     5.554084301  5.623444407 15.071341616     0.209239852  0.206155400  0.066645095


 
 k-points in units of 2pi/SCALE and weight: read from INCAR                         
   0.01500397  0.02588410  0.01931611       0.028
   0.04501192  0.04335651  0.02253880       0.028
   0.07501987  0.06082892  0.02576148       0.028
  -0.07501987 -0.02653313  0.00964805       0.028
  -0.04501192 -0.00906072  0.01287074       0.028
  -0.01500397  0.00841169  0.01609342       0.028
   0.01500397  0.06017989  0.02140309       0.028
   0.04501192  0.07765230  0.02462578       0.028
   0.07501987  0.09512471  0.02784847       0.028
  -0.07501987  0.00776267  0.01173503       0.028
  -0.04501192  0.02523508  0.01495772       0.028
  -0.01500397  0.04270748  0.01818041       0.028
   0.01500397  0.09447569  0.02349008       0.028
   0.04501192  0.11194810  0.02671276       0.028
   0.07501987  0.12942050  0.02993545       0.028
  -0.07501987  0.04205846  0.01382202       0.028
  -0.04501192  0.05953087  0.01704471       0.028
  -0.01500397  0.07700328  0.02026739       0.028
   0.01500397 -0.07700328  0.01305516       0.028
   0.04501192 -0.05953087  0.01627784       0.028
   0.07501987 -0.04205846  0.01950053       0.028
  -0.07501987 -0.12942050  0.00338710       0.028
  -0.04501192 -0.11194810  0.00660978       0.028
  -0.01500397 -0.09447569  0.00983247       0.028
   0.01500397 -0.04270748  0.01514214       0.028
   0.04501192 -0.02523508  0.01836483       0.028
   0.07501987 -0.00776267  0.02158751       0.028
  -0.07501987 -0.09512471  0.00547408       0.028
  -0.04501192 -0.07765230  0.00869677       0.028
  -0.01500397 -0.06017989  0.01191945       0.028
   0.01500397 -0.00841169  0.01722912       0.028
   0.04501192  0.00906072  0.02045181       0.028
   0.07501987  0.02653313  0.02367450       0.028
  -0.07501987 -0.06082892  0.00756107       0.028
  -0.04501192 -0.04335651  0.01078375       0.028
  -0.01500397 -0.02588410  0.01400644       0.028
 
 k-points in reciprocal lattice and weights: read from INCAR                         
   0.08333333  0.08333333  0.25000000       0.028
   0.25000000  0.08333333  0.25000000       0.028
   0.41666667  0.08333333  0.25000000       0.028
  -0.41666667  0.08333333  0.25000000       0.028
  -0.25000000  0.08333333  0.25000000       0.028
  -0.08333333  0.08333333  0.25000000       0.028
   0.08333333  0.25000000  0.25000000       0.028
   0.25000000  0.25000000  0.25000000       0.028
   0.41666667  0.25000000  0.25000000       0.028
  -0.41666667  0.25000000  0.25000000       0.028
  -0.25000000  0.25000000  0.25000000       0.028
  -0.08333333  0.25000000  0.25000000       0.028
   0.08333333  0.41666667  0.25000000       0.028
   0.25000000  0.41666667  0.25000000       0.028
   0.41666667  0.41666667  0.25000000       0.028
  -0.41666667  0.41666667  0.25000000       0.028
  -0.25000000  0.41666667  0.25000000       0.028
  -0.08333333  0.41666667  0.25000000       0.028
   0.08333333 -0.41666667  0.25000000       0.028
   0.25000000 -0.41666667  0.25000000       0.028
   0.41666667 -0.41666667  0.25000000       0.028
  -0.41666667 -0.41666667  0.25000000       0.028
  -0.25000000 -0.41666667  0.25000000       0.028
  -0.08333333 -0.41666667  0.25000000       0.028
   0.08333333 -0.25000000  0.25000000       0.028
   0.25000000 -0.25000000  0.25000000       0.028
   0.41666667 -0.25000000  0.25000000       0.028
  -0.41666667 -0.25000000  0.25000000       0.028
  -0.25000000 -0.25000000  0.25000000       0.028
  -0.08333333 -0.25000000  0.25000000       0.028
   0.08333333 -0.08333333  0.25000000       0.028
   0.25000000 -0.08333333  0.25000000       0.028
   0.41666667 -0.08333333  0.25000000       0.028
  -0.41666667 -0.08333333  0.25000000       0.028
  -0.25000000 -0.08333333  0.25000000       0.028
  -0.08333333 -0.08333333  0.25000000       0.028
 
 position of ions in fractional coordinates (direct lattice) 
   0.47326386  0.77304429  0.02900061
   0.77719703  0.14337835  0.34343351
   0.64996835  0.57082684  0.34091898
   0.17344602  0.87286278  0.65834760
   0.16403532  0.37981173  0.65828029
   0.69162453  0.37264753  0.65565644
   0.06459057  0.73634413  0.18155924
   0.06939874  0.25227083  0.18221369
   0.56231426  0.75896060  0.18488749
   0.56936967  0.25873714  0.17777179
   0.98188900  0.51132878  0.49809877
   0.96904977  0.98885526  0.49507310
   0.47555390  0.50797898  0.50265598
   0.48297377  0.99721267  0.49897650
   0.43722350  0.72865601  0.81382191
   0.45562959  0.24119506  0.82997002
   0.94223806  0.75801914  0.81815388
   0.94822556  0.25368394  0.81886693
   0.90208433  0.39843930  0.24709535
   0.91422310  0.90728702  0.25386183
   0.41336203  0.41726402  0.24167643
   0.42960270  0.94864465  0.24466748
   0.21598463  0.57743815  0.11771790
   0.22866638  0.06739786  0.11368321
   0.74569561  0.59029675  0.11253624
   0.71312528  0.06268231  0.11959063
   0.31151488  0.66945032  0.56843269
   0.30865745  0.18377536  0.56699114
   0.84221660  0.68085745  0.57040940
   0.80282533  0.16186642  0.56635537
   0.10711584  0.80594170  0.43184557
   0.12936935  0.32679713  0.43360831
   0.63303102  0.83221304  0.43514250
   0.62890321  0.32205666  0.43855072
   0.28867137  0.87683811  0.88559865
   0.30103952  0.42152294  0.88205315
   0.79622341  0.92346324  0.88693826
   0.81538673  0.43095151  0.88564531
   0.07296947  0.56107232  0.74741674
   0.06992942  0.03841395  0.75384135
   0.58072994  0.54336138  0.75088897
   0.56324997  0.06413699  0.75163539
 
 position of ions in cartesian coordinates  (Angst):
   0.40983000  3.73026991  0.43515000
   3.54008007  0.38319001  5.15317011
   1.62664998  2.46274996  5.11543989
  -2.21739006  3.64071012  9.87841034
  -0.87445003  1.24469996  9.87740040
   2.07892990  1.21228003  9.83802986
  -1.92086005  3.41262007  2.72427011
  -0.52512997  1.05957997  2.73409009
   0.77595001  3.51949000  2.77420998
   2.23825002  1.09505999  2.66743994
   3.46880007  2.03009009  7.47389984
   2.04955006  4.35347986  7.42850018
   0.66113001  2.00964999  7.54228020
  -0.67802000  4.39053011  7.48707008
  -0.51217997  2.79795003 12.21127987
   0.95192999  0.41429999 12.45357990
   2.20495009  2.93669009 12.27628040
   3.66450000  0.48513001 12.28697968
   3.61601996  1.71066999  3.70762992
   2.23629999  4.17733002  3.80915999
   0.85420001  1.80710006  3.62631989
  -0.56242001  4.38671017  3.67120004
  -0.56142998  2.69867992  1.76634002
   0.95657003  0.22373000  1.70580006
   2.34983993  2.76589990  1.68859005
   3.65425992  0.19542000  1.79444003
  -0.77788001  2.73428988  8.52925015
   0.58206999  0.37538001  8.50761986
   2.13527012  2.78792000  8.55891037
   3.38940001  0.26949000  8.49808025
  -2.15186000  3.52231002  6.47978020
  -0.67438000  1.19220996  6.50622988
   0.69121999  3.64697003  6.52925015
   2.10815001  1.16465998  6.58038998
  -1.83405006  3.45252991 13.28827953
  -0.47317001  1.24308002 13.23507977
   0.85156000  3.67789006 13.30838013
   2.35299993  1.28561997 13.28897953
  -1.98938000  2.04417992 11.21487999
  -0.53429002 -0.50164002 11.31128025
   0.87712997  1.95493996 11.26698017
   2.13525009 -0.37461999 11.27818012
 


--------------------------------------------------------------------------------------------------------


 k-point  1 :   0.0833 0.0833 0.2500  plane waves:   13511
 k-point  2 :   0.2500 0.0833 0.2500  plane waves:   13516
 k-point  3 :   0.4167 0.0833 0.2500  plane waves:   13541
 k-point  4 :  -0.4167 0.0833 0.2500  plane waves:   13536
 k-point  5 :  -0.2500 0.0833 0.2500  plane waves:   13508
 k-point  6 :  -0.0833 0.0833 0.2500  plane waves:   13490
 k-point  7 :   0.0833 0.2500 0.2500  plane waves:   13506
 k-point  8 :   0.2500 0.2500 0.2500  plane waves:   13532
 k-point  9 :   0.4167 0.2500 0.2500  plane waves:   13515
 k-point 10 :  -0.4167 0.2500 0.2500  plane waves:   13528
 k-point 11 :  -0.2500 0.2500 0.2500  plane waves:   13509
 k-point 12 :  -0.0833 0.2500 0.2500  plane waves:   13472
 k-point 13 :   0.0833 0.4167 0.2500  plane waves:   13520
 k-point 14 :   0.2500 0.4167 0.2500  plane waves:   13546
 k-point 15 :   0.4167 0.4167 0.2500  plane waves:   13519
 k-point 16 :  -0.4167 0.4167 0.2500  plane waves:   13527
 k-point 17 :  -0.2500 0.4167 0.2500  plane waves:   13522
 k-point 18 :  -0.0833 0.4167 0.2500  plane waves:   13507
 k-point 19 :   0.0833-0.4167 0.2500  plane waves:   13508
 k-point 20 :   0.2500-0.4167 0.2500  plane waves:   13510
 k-point 21 :   0.4167-0.4167 0.2500  plane waves:   13515
 k-point 22 :  -0.4167-0.4167 0.2500  plane waves:   13524
 k-point 23 :  -0.2500-0.4167 0.2500  plane waves:   13537
 k-point 24 :  -0.0833-0.4167 0.2500  plane waves:   13514
 k-point 25 :   0.0833-0.2500 0.2500  plane waves:   13474
 k-point 26 :   0.2500-0.2500 0.2500  plane waves:   13501
 k-point 27 :   0.4167-0.2500 0.2500  plane waves:   13515
 k-point 28 :  -0.4167-0.2500 0.2500  plane waves:   13518
 k-point 29 :  -0.2500-0.2500 0.2500  plane waves:   13527
 k-point 30 :  -0.0833-0.2500 0.2500  plane waves:   13503
 k-point 31 :   0.0833-0.0833 0.2500  plane waves:   13494
 k-point 32 :   0.2500-0.0833 0.2500  plane waves:   13510
 k-point 33 :   0.4167-0.0833 0.2500  plane waves:   13524
 k-point 34 :  -0.4167-0.0833 0.2500  plane waves:   13527
 k-point 35 :  -0.2500-0.0833 0.2500  plane waves:   13522
 k-point 36 :  -0.0833-0.0833 0.2500  plane waves:   13487

 maximum and minimum number of plane-waves per node :      3426     3346

 maximum number of plane-waves:     13546
 maximum index in each direction: 
   IXMAX=   11   IYMAX=   11   IZMAX=   29
   IXMIN=  -11   IYMIN=  -11   IZMIN=  -30


 real space projection operators:
  total allocation   :       7314.75 KBytes
  max/ min on nodes  :       1829.18       1827.98


 parallel 3D FFT for wavefunctions:
    minimum data exchange during FFTs selected (reduces bandwidth)
 parallel 3D FFT for charge:
    minimum data exchange during FFTs selected (reduces bandwidth)


 total amount of memory used by VASP MPI-rank0   163620. kBytes
=======================================================================

   base      :      30000. kBytes
   nonlr-proj:       4185. kBytes
   fftplans  :       1692. kBytes
   grid      :       4644. kBytes
   one-center:        342. kBytes
   wavefun   :     122757. kBytes
 
     INWAV:  cpu time    0.0000: real time    0.0002
 Broyden mixing: mesh for mixing (old mesh)
   NGX = 23   NGY = 23   NGZ = 61
  (NGX  = 72   NGY  = 72   NGZ  =180)
  gives a total of  32269 points

 initial charge density was supplied:
 charge density of overlapping atoms calculated
 number of electron     258.0000000 magnetization       6.0000000
 keeping initial charge density in first step


--------------------------------------------------------------------------------------------------------


 Maximum index for non-local projection operator          671
 Maximum index for augmentation-charges          986 (set IRDMAX)


--------------------------------------------------------------------------------------------------------


 First call to EWALD:  gamma=   0.240
 Maximum number of real-space cells 4x 4x 2
 Maximum number of reciprocal cells 2x 2x 5

    FEWALD:  cpu time    0.0046: real time    0.0053


--------------------------------------- Iteration      1(   1)  ---------------------------------------


    POTLOK:  cpu time    0.0688: real time    0.0835
    SETDIJ:  cpu time    0.0194: real time    0.0205
    TRIAL :  cpu time   21.9020: real time   22.0522
    CORREC:  cpu time    0.0040: real time    0.0040
    --------------------------------------------
      LOOP:  cpu time   22.2034: real time   22.3720

 eigenvalue-minimisations  : 23040
 total energy-change (2. order) : 0.3492139E+04  (-0.1394908E+05)
 number of electron     258.0000000 magnetization       6.0000000
 augmentation part      258.0000000 magnetization       6.0000000

 Free energy of the ion-electron system (eV)
  ---------------------------------------------------
  alpha Z        PSCENC =       723.87325590
  Ewald energy   TEWEN  =    -12463.26641469
  -Hartree energ DENC   =     -8426.00445973
  -exchange      EXHF   =         0.00000000
  -V(xc)+E(xc)   XCENC  =       843.61005915
  PAW double counting   =     17015.18481625   -17491.61297812
  entropy T*S    EENTRO =        -0.00809376
  eigenvalues    EBANDS =      3121.49189452
  atomic energy  EATOM  =     20168.87094289
  ---------------------------------------------------
  free energy    TOTEN  =      3492.13902241 eV

  energy without entropy =     3492.14711617  energy(sigma->0) =     3492.14306929


--------------------------------------------------------------------------------------------------------




--------------------------------------- Iteration      1(   2)  ---------------------------------------


    TRIAL :  cpu time   22.7702: real time   22.7931
    CORREC:  cpu time    0.0043: real time    0.0043
    --------------------------------------------
      LOOP:  cpu time   22.7756: real time   22.7986

 eigenvalue-minimisations  : 24832
 total energy-change (2. order) :-0.3072270E+04  (-0.2832249E+04)
 number of electron     258.0000000 magnetization       6.0000000
 augmentation part      258.0000000 magnetization       6.0000000

 Free energy of the ion-electron system (eV)
  ---------------------------------------------------
  alpha Z        PSCENC =       723.87325590
  Ewald energy   TEWEN  =    -12463.26641469
  -Hartree energ DENC   =     -8426.00445973
  -exchange      EXHF   =         0.00000000
  -V(xc)+E(xc)   XCENC  =       843.61005915
  PAW double counting   =     17015.18481625   -17491.61297812
  entropy T*S    EENTRO =        -0.02204500
  eigenvalues    EBANDS =        49.23630069
  atomic energy  EATOM  =     20168.87094289
  ---------------------------------------------------
  free energy    TOTEN  =       419.86947733 eV

  energy without entropy =      419.89152233  energy(sigma->0) =      419.88049983


--------------------------------------------------------------------------------------------------------




--------------------------------------- Iteration      1(   3)  ---------------------------------------


    TRIAL :  cpu time   24.3532: real time   24.3663
    CORREC:  cpu time    0.0041: real time    0.0041
    --------------------------------------------
      LOOP:  cpu time   24.3613: real time   24.3745

 eigenvalue-minimisations  : 26528
 total energy-change (2. order) :-0.6378072E+03  (-0.5855884E+03)
 number of electron     258.0000000 magnetization       6.0000000
 augmentation part      258.0000000 magnetization       6.0000000

 Free energy of the ion-electron system (eV)
  ---------------------------------------------------
  alpha Z        PSCENC =       723.87325590
  Ewald energy   TEWEN  =    -12463.26641469
  -Hartree energ DENC   =     -8426.00445973
  -exchange      EXHF   =         0.00000000
  -V(xc)+E(xc)   XCENC  =       843.61005915
  PAW double counting   =     17015.18481625   -17491.61297812
  entropy T*S    EENTRO =        -0.02688894
  eigenvalues    EBANDS =      -588.56602660
  atomic energy  EATOM  =     20168.87094289
  ---------------------------------------------------
  free energy    TOTEN  =      -217.93769390 eV

  energy without entropy =     -217.91080496  energy(sigma->0) =     -217.92424943


--------------------------------------------------------------------------------------------------------




--------------------------------------- Iteration      1(   4)  ---------------------------------------


    TRIAL :  cpu time   23.0807: real time   23.1438
    CORREC:  cpu time    0.0032: real time    0.0032
    --------------------------------------------
      LOOP:  cpu time   23.0880: real time   23.1511

 eigenvalue-minimisations  : 25200
 total energy-change (2. order) :-0.5164457E+02  (-0.5047705E+02)
 number of electron     258.0000000 magnetization       6.0000000
 augmentation part      258.0000000 magnetization       6.0000000

 Free energy of the ion-electron system (eV)
  ---------------------------------------------------
  alpha Z        PSCENC =       723.87325590
  Ewald energy   TEWEN  =    -12463.26641469
  -Hartree energ DENC   =     -8426.00445973
  -exchange      EXHF   =         0.00000000
  -V(xc)+E(xc)   XCENC  =       843.61005915
  PAW double counting   =     17015.18481625   -17491.61297812
  entropy T*S    EENTRO =        -0.02851710
  eigenvalues    EBANDS =      -640.20896886
  atomic energy  EATOM  =     20168.87094289
  ---------------------------------------------------
  free energy    TOTEN  =      -269.58226432 eV

  energy without entropy =     -269.55374721  energy(sigma->0) =     -269.56800576


--------------------------------------------------------------------------------------------------------




--------------------------------------- Iteration      1(   5)  ---------------------------------------


    TRIAL :  cpu time   25.4546: real time   25.7048
    CORREC:  cpu time    0.0036: real time    0.0036
    CHARGE:  cpu time    0.4505: real time    0.4530
    --------------------------------------------
      LOOP:  cpu time   25.9128: real time   26.1656

 eigenvalue-minimisations  : 28560
 total energy-change (2. order) :-0.1792939E+01  (-0.1789468E+01)
 number of electron     258.0000070 magnetization       6.0000004
 augmentation part       68.2285130 magnetization       4.3310839

 Free energy of the ion-electron system (eV)
  ---------------------------------------------------
  alpha Z        PSCENC =       723.87325590
  Ewald energy   TEWEN  =    -12463.26641469
  -Hartree energ DENC   =     -8426.00445973
  -exchange      EXHF   =         0.00000000
  -V(xc)+E(xc)   XCENC  =       843.61005915
  PAW double counting   =     17015.18481625   -17491.61297812
  entropy T*S    EENTRO =        -0.02880891
  eigenvalues    EBANDS =      -642.00161586
  atomic energy  EATOM  =     20168.87094289
  ---------------------------------------------------
  free energy    TOTEN  =      -271.37520313 eV

  energy without entropy =     -271.34639422  energy(sigma->0) =     -271.36079868


--------------------------------------------------------------------------------------------------------




--------------------------------------- Iteration      1(   6)  ---------------------------------------


    POTLOK:  cpu time    0.0469: real time    0.0469
    SETDIJ:  cpu time    0.0131: real time    0.0135
    TRIAL :  cpu time   12.4607: real time   12.4932
    CORREC:  cpu time    4.3001: real time    4.3068
    CHARGE:  cpu time    0.4618: real time    0.4619
    --------------------------------------------
      LOOP:  cpu time   17.2869: real time   17.3266

 eigenvalue-minimisations  :     0
 total energy-change (2. order) : 0.3565614E+03  (-0.5922680E+02)
 number of electron     258.0000072 magnetization       6.0000001
 augmentation part       69.2368050 magnetization       4.3573637

 Free energy of the ion-electron system (eV)
  ---------------------------------------------------
  alpha Z        PSCENC =       723.87325590
  Ewald energy   TEWEN  =    -12463.26641469
  -Hartree energ DENC   =     -8207.44974635
  -exchange      EXHF   =         0.00000000
  -V(xc)+E(xc)   XCENC  =       878.45449073
  PAW double counting   =     24059.51774622   -24272.29707198
  entropy T*S    EENTRO =        -0.06019361
  eigenvalues    EBANDS =      -802.48817385
  atomic energy  EATOM  =     20168.87094289
  ---------------------------------------------------
  free energy    TOTEN  =        85.18621995 eV

  energy without entropy =       85.24641356  energy(sigma->0) =       85.21631675


--------------------------------------------------------------------------------------------------------




--------------------------------------- Iteration      1(   7)  ---------------------------------------


    POTLOK:  cpu time    0.0475: real time    0.0475
    SETDIJ:  cpu time    0.0132: real time    0.0132
    TRIAL :  cpu time   12.4278: real time   12.4324
    CORREC:  cpu time    4.3130: real time    4.3145
    CHARGE:  cpu time    0.4575: real time    0.4575
    --------------------------------------------
      LOOP:  cpu time   17.2632: real time   17.2693

 eigenvalue-minimisations  :     0
 total energy-change (2. order) :-0.8202170E+02  (-0.7367438E+02)
 number of electron     258.0000071 magnetization       5.9999998
 augmentation part       69.2412528 magnetization       3.9992716

 Free energy of the ion-electron system (eV)
  ---------------------------------------------------
  alpha Z        PSCENC =       723.87325590
  Ewald energy   TEWEN  =    -12463.26641469
  -Hartree energ DENC   =     -7982.13810431
  -exchange      EXHF   =         0.00000000
  -V(xc)+E(xc)   XCENC  =       872.33358998
  PAW double counting   =     23895.83519989   -24147.65240069
  entropy T*S    EENTRO =        -0.03337993
  eigenvalues    EBANDS =     -1064.63135327
  atomic energy  EATOM  =     20168.87094289
  ---------------------------------------------------
  free energy    TOTEN  =         3.16452209 eV

  energy without entropy =        3.19790202  energy(sigma->0) =        3.18121205


--------------------------------------------------------------------------------------------------------




--------------------------------------- Iteration      1(   8)  ---------------------------------------


    POTLOK:  cpu time    0.0471: real time    0.0471
    SETDIJ:  cpu time    0.0131: real time    0.0131
    TRIAL :  cpu time   12.4287: real time   12.4320
    CORREC:  cpu time    4.2998: real time    4.3021
    CHARGE:  cpu time    0.4599: real time    0.4599
    --------------------------------------------
      LOOP:  cpu time   17.2528: real time   17.2585

 eigenvalue-minimisations  :     0
 total energy-change (2. order) : 0.5092034E+02  (-0.4995986E+03)
 number of electron     258.0000058 magnetization       6.0000003
 augmentation part       72.8158610 magnetization       3.8792581

 Free energy of the ion-electron system (eV)
  ---------------------------------------------------
  alpha Z        PSCENC =       723.87325590
  Ewald energy   TEWEN  =    -12463.26641469
  -Hartree energ DENC   =     -7776.64694077
  -exchange      EXHF   =         0.00000000
  -V(xc)+E(xc)   XCENC  =       860.45821564
  PAW double counting   =     23563.28682461   -23828.64287610
  entropy T*S    EENTRO =        -0.06512605
  eigenvalues    EBANDS =     -1193.81476289
  atomic energy  EATOM  =     20168.87094289
  ---------------------------------------------------
  free energy    TOTEN  =        54.08486464 eV

  energy without entropy =       54.14999069  energy(sigma->0) =       54.11742767


--------------------------------------------------------------------------------------------------------




--------------------------------------- Iteration      1(   9)  ---------------------------------------


    POTLOK:  cpu time    0.0468: real time    0.0468
    SETDIJ:  cpu time    0.0132: real time    0.0132
    TRIAL :  cpu time   12.3547: real time   12.3603
    CORREC:  cpu time    5.6497: real time    5.7111
    CHARGE:  cpu time    0.5165: real time    0.5256
    --------------------------------------------
      LOOP:  cpu time   18.5851: real time   18.6613

 eigenvalue-minimisations  :     0
 total energy-change (2. order) : 0.6704691E+02  (-0.2430763E+04)
 number of electron     258.0000075 magnetization       6.0000002
 augmentation part       74.1022519 magnetization       3.9036697

 Free energy of the ion-electron system (eV)
  ---------------------------------------------------
  alpha Z        PSCENC =       723.87325590
  Ewald energy   TEWEN  =    -12463.26641469
  -Hartree energ DENC   =     -8763.86724343
  -exchange      EXHF   =         0.00000000
  -V(xc)+E(xc)   XCENC  =       858.69756154
  PAW double counting   =     23813.82598883   -24220.06201061
  entropy T*S    EENTRO =        -0.04426817
  eigenvalues    EBANDS =         3.12482075
  atomic energy  EATOM  =     20168.87094289
  ---------------------------------------------------
  free energy    TOTEN  =       121.13177513 eV

  energy without entropy =      121.17604330  energy(sigma->0) =      121.15390921


--------------------------------------------------------------------------------------------------------




--------------------------------------- Iteration      1(  10)  ---------------------------------------


    POTLOK:  cpu time    0.0497: real time    0.0499
    SETDIJ:  cpu time    0.0142: real time    0.0142
    TRIAL :  cpu time   12.9157: real time   12.9600
    CORREC:  cpu time    4.2779: real time    4.2875
    CHARGE:  cpu time    0.4572: real time    0.4579
    --------------------------------------------
      LOOP:  cpu time   17.7190: real time   17.7738

 eigenvalue-minimisations  :     0
 total energy-change (2. order) : 0.2040481E+04  (-0.2203150E+05)
 number of electron     258.0000033 magnetization       6.0000006
 augmentation part       77.0705348 magnetization       2.5414082

 Free energy of the ion-electron system (eV)
  ---------------------------------------------------
  alpha Z        PSCENC =       723.87325590
  Ewald energy   TEWEN  =    -12463.26641469
  -Hartree energ DENC   =     -9301.29656026
  -exchange      EXHF   =         0.00000000
  -V(xc)+E(xc)   XCENC  =       875.66479360
  PAW double counting   =     25514.84387854   -26069.54485191
  entropy T*S    EENTRO =        -0.03778732
  eigenvalues    EBANDS =      2712.51193595
  atomic energy  EATOM  =     20168.87094289
  ---------------------------------------------------
  free energy    TOTEN  =      2161.61271185 eV

  energy without entropy =     2161.65049917  energy(sigma->0) =     2161.63160551


--------------------------------------------------------------------------------------------------------




--------------------------------------- Iteration      1(  11)  ---------------------------------------


    POTLOK:  cpu time    0.0473: real time    0.0473
    SETDIJ:  cpu time    0.0130: real time    0.0130
    TRIAL :  cpu time   12.3339: real time   12.3638
    CORREC:  cpu time    4.2574: real time    4.2980
    CHARGE:  cpu time    0.4484: real time    0.4491
    --------------------------------------------
      LOOP:  cpu time   17.1043: real time   17.1755

 eigenvalue-minimisations  :     0
 total energy-change (2. order) : 0.4433732E+04  (-0.1481658E+05)
 number of electron     258.0000049 magnetization       6.0000005
 augmentation part       82.1673116 magnetization       1.5360710

 Free energy of the ion-electron system (eV)
  ---------------------------------------------------
  alpha Z        PSCENC =       723.87325590
  Ewald energy   TEWEN  =    -12463.26641469
  -Hartree energ DENC   =    -16406.19252661
  -exchange      EXHF   =         0.00000000
  -V(xc)+E(xc)   XCENC  =       905.39943150
  PAW double counting   =     30879.25111607   -31731.59820743
  entropy T*S    EENTRO =        -0.01309662
  eigenvalues    EBANDS =     14519.04533458
  atomic energy  EATOM  =     20168.87094289
  ---------------------------------------------------
  free energy    TOTEN  =      6595.34514489 eV

  energy without entropy =     6595.35824151  energy(sigma->0) =     6595.35169320


--------------------------------------------------------------------------------------------------------




--------------------------------------- Iteration      1(  12)  ---------------------------------------


    POTLOK:  cpu time    0.0477: real time    0.0477
    SETDIJ:  cpu time    0.0136: real time    0.0138
    TRIAL :  cpu time   12.3116: real time   12.3585
    CORREC:  cpu time    4.1985: real time    4.2787
    CHARGE:  cpu time    0.4362: real time    0.4520
    --------------------------------------------
      LOOP:  cpu time   17.0119: real time   17.1551

 eigenvalue-minimisations  :     0
 total energy-change (2. order) : 0.3225267E+04  (-0.4149663E+04)
 number of electron     258.0000055 magnetization       6.0000000
 augmentation part       74.3635982 magnetization       3.6544065

 Free energy of the ion-electron system (eV)
  ---------------------------------------------------
  alpha Z        PSCENC =       723.87325590
  Ewald energy   TEWEN  =    -12463.26641469
  -Hartree energ DENC   =    -19672.30493220
  -exchange      EXHF   =         0.00000000
  -V(xc)+E(xc)   XCENC  =       925.07771049
  PAW double counting   =     36176.36063244   -37282.25506732
  entropy T*S    EENTRO =        -0.02125497
  eigenvalues    EBANDS =     21244.26871458
  atomic energy  EATOM  =     20168.87094289
  ---------------------------------------------------
  free energy    TOTEN  =      9820.61174546 eV

  energy without entropy =     9820.63300042  energy(sigma->0) =     9820.62237294


--------------------------------------------------------------------------------------------------------




--------------------------------------- Iteration      1(  13)  ---------------------------------------


    POTLOK:  cpu time    0.0470: real time    0.0471
    SETDIJ:  cpu time    0.0132: real time    0.0131
    TRIAL :  cpu time   12.1470: real time   12.4451
    CORREC:  cpu time    4.2895: real time    4.2987
    CHARGE:  cpu time    0.4531: real time    0.4543
    --------------------------------------------
      LOOP:  cpu time   16.9540: real time   17.2626

 eigenvalue-minimisations  :     0
 total energy-change (2. order) :-0.3759246E+04  (-0.4335447E+04)
 number of electron     258.0000049 magnetization       6.0000001
 augmentation part       62.7205432 magnetization       2.1027674

 Free energy of the ion-electron system (eV)
  ---------------------------------------------------
  alpha Z        PSCENC =       723.87325590
  Ewald energy   TEWEN  =    -12463.26641469
  -Hartree energ DENC   =    -12491.95031643
  -exchange      EXHF   =         0.00000000
  -V(xc)+E(xc)   XCENC  =       875.68292415
  PAW double counting   =     36729.08062976   -37587.58621701
  entropy T*S    EENTRO =        -0.02105488
  eigenvalues    EBANDS =     10106.68235272
  atomic energy  EATOM  =     20168.87094289
  ---------------------------------------------------
  free energy    TOTEN  =      6061.36590232 eV

  energy without entropy =     6061.38695720  energy(sigma->0) =     6061.37642976


--------------------------------------------------------------------------------------------------------




--------------------------------------- Iteration      1(  14)  ---------------------------------------


    POTLOK:  cpu time    0.0463: real time    0.0463
    SETDIJ:  cpu time    0.0132: real time    0.0132
    TRIAL :  cpu time   12.3694: real time   12.4318
    CORREC:  cpu time    4.2741: real time    4.2828
    CHARGE:  cpu time    0.4438: real time    0.4448
    --------------------------------------------
      LOOP:  cpu time   17.1510: real time   17.2231

 eigenvalue-minimisations  :     0
 total energy-change (2. order) : 0.8082777E+03  (-0.1729089E+05)
 number of electron     258.0000024 magnetization       6.0000002
 augmentation part       60.8499560 magnetization       1.4202632

 Free energy of the ion-electron system (eV)
  ---------------------------------------------------
  alpha Z        PSCENC =       723.87325590
  Ewald energy   TEWEN  =    -12463.26641469
  -Hartree energ DENC   =     -8415.33237011
  -exchange      EXHF   =         0.00000000
  -V(xc)+E(xc)   XCENC  =       791.27862549
  PAW double counting   =     41807.35066048   -42322.66147613
  entropy T*S    EENTRO =        -0.01493383
  eigenvalues    EBANDS =      6579.55144205
  atomic energy  EATOM  =     20168.87094289
  ---------------------------------------------------
  free energy    TOTEN  =      6869.64361099 eV

  energy without entropy =     6869.65854482  energy(sigma->0) =     6869.65107791


--------------------------------------------------------------------------------------------------------




--------------------------------------- Iteration      1(  15)  ---------------------------------------


    POTLOK:  cpu time    0.0463: real time    0.0463
    SETDIJ:  cpu time    0.0131: real time    0.0131
    TRIAL :  cpu time   12.3679: real time   12.4104
    CORREC:  cpu time    4.3886: real time    4.3906
    CHARGE:  cpu time    0.4323: real time    0.4324
    --------------------------------------------
      LOOP:  cpu time   17.2526: real time   17.2971

 eigenvalue-minimisations  :     0
 total energy-change (2. order) :-0.1197593E+04  (-0.5917866E+04)
 number of electron     258.0000019 magnetization       6.0000003
 augmentation part       64.1707427 magnetization       2.7118870

 Free energy of the ion-electron system (eV)
  ---------------------------------------------------
  alpha Z        PSCENC =       723.87325590
  Ewald energy   TEWEN  =    -12463.26641469
  -Hartree energ DENC   =     -8407.61689746
  -exchange      EXHF   =         0.00000000
  -V(xc)+E(xc)   XCENC  =       764.74170115
  PAW double counting   =     45926.81595285   -46483.41446171
  entropy T*S    EENTRO =        -0.01325837
  eigenvalues    EBANDS =      5442.06105914
  atomic energy  EATOM  =     20168.87094289
  ---------------------------------------------------
  free energy    TOTEN  =      5672.05020422 eV

  energy without entropy =     5672.06346259  energy(sigma->0) =     5672.05683341


--------------------------------------------------------------------------------------------------------




--------------------------------------- Iteration      1(  16)  ---------------------------------------


    POTLOK:  cpu time    0.0455: real time    0.0455
    SETDIJ:  cpu time    0.0131: real time    0.0131
    TRIAL :  cpu time   11.9767: real time   12.1877
    CORREC:  cpu time    4.2212: real time    4.3687
    CHARGE:  cpu time    0.4632: real time    0.4820
    --------------------------------------------
      LOOP:  cpu time   16.7239: real time   17.1011

 eigenvalue-minimisations  :     0
 total energy-change (2. order) :-0.3425644E+04  (-0.6676979E+03)
 number of electron     258.0000021 magnetization       6.0000002
 augmentation part       67.4805457 magnetization       2.9655118

 Free energy of the ion-electron system (eV)
  ---------------------------------------------------
  alpha Z        PSCENC =       723.87325590
  Ewald energy   TEWEN  =    -12463.26641469
  -Hartree energ DENC   =     -6622.56827249
  -exchange      EXHF   =         0.00000000
  -V(xc)+E(xc)   XCENC  =       748.17843748
  PAW double counting   =     38992.95035828   -39474.03675253
  entropy T*S    EENTRO =        -0.01862035
  eigenvalues    EBANDS =       172.41826332
  atomic energy  EATOM  =     20168.87094289
  ---------------------------------------------------
  free energy    TOTEN  =      2246.40655978 eV

  energy without entropy =     2246.42518013  energy(sigma->0) =     2246.41586996


--------------------------------------------------------------------------------------------------------




--------------------------------------- Iteration      1(  17)  ---------------------------------------


    POTLOK:  cpu time    0.0465: real time    0.0475
    SETDIJ:  cpu time    0.0132: real time    0.0133
    TRIAL :  cpu time   12.0202: real time   12.4158
    CORREC:  cpu time    4.2712: real time    4.2731
    CHARGE:  cpu time    0.4488: real time    0.4488
    --------------------------------------------
      LOOP:  cpu time   16.8003: real time   17.2032

 eigenvalue-minimisations  :     0
 total energy-change (2. order) :-0.4097267E+03  (-0.6793483E+03)
 number of electron     258.0000024 magnetization       6.0000003
 augmentation part       69.7208743 magnetization       2.5199816

 Free energy of the ion-electron system (eV)
  ---------------------------------------------------
  alpha Z        PSCENC =       723.87325590
  Ewald energy   TEWEN  =    -12463.26641469
  -Hartree energ DENC   =     -6206.22817090
  -exchange      EXHF   =         0.00000000
  -V(xc)+E(xc)   XCENC  =       748.60794296
  PAW double counting   =     39597.88678503   -40145.92377881
  entropy T*S    EENTRO =        -0.01718198
  eigenvalues    EBANDS =      -587.12208740
  atomic energy  EATOM  =     20168.87094289
  ---------------------------------------------------
  free energy    TOTEN  =      1836.67985462 eV

  energy without entropy =     1836.69703660  energy(sigma->0) =     1836.68844561


--------------------------------------------------------------------------------------------------------




--------------------------------------- Iteration      1(  18)  ---------------------------------------


    POTLOK:  cpu time    0.0463: real time    0.0463
    SETDIJ:  cpu time    0.0131: real time    0.0131
    TRIAL :  cpu time   12.1937: real time   12.3272
    CORREC:  cpu time    4.2930: real time    4.2947
    CHARGE:  cpu time    0.4430: real time    0.4430
    --------------------------------------------
      LOOP:  cpu time   16.9934: real time   17.1287

 eigenvalue-minimisations  :     0
 total energy-change (2. order) :-0.1960328E+03  (-0.7379885E+03)
 number of electron     258.0000022 magnetization       6.0000002
 augmentation part       70.7221021 magnetization       2.4364019

 Free energy of the ion-electron system (eV)
  ---------------------------------------------------
  alpha Z        PSCENC =       723.87325590
  Ewald energy   TEWEN  =    -12463.26641469
  -Hartree energ DENC   =     -5985.88165452
  -exchange      EXHF   =         0.00000000
  -V(xc)+E(xc)   XCENC  =       752.19372507
  PAW double counting   =     40181.50913797   -40802.30371744
  entropy T*S    EENTRO =        -0.01890544
  eigenvalues    EBANDS =      -934.33102816
  atomic energy  EATOM  =     20168.87094289
  ---------------------------------------------------
  free energy    TOTEN  =      1640.64706504 eV

  energy without entropy =     1640.66597048  energy(sigma->0) =     1640.65651776


--------------------------------------------------------------------------------------------------------




--------------------------------------- Iteration      1(  19)  ---------------------------------------


    POTLOK:  cpu time    0.0482: real time    0.0482
    SETDIJ:  cpu time    0.0132: real time    0.0132
    TRIAL :  cpu time   12.3616: real time   12.3945
    CORREC:  cpu time    4.1586: real time    4.2832
    CHARGE:  cpu time    0.4357: real time    0.4509
    --------------------------------------------
      LOOP:  cpu time   17.0217: real time   17.1944

 eigenvalue-minimisations  :     0
 total energy-change (2. order) :-0.9244756E+02  (-0.2072031E+03)
 number of electron     258.0000020 magnetization       6.0000003
 augmentation part       70.0372547 magnetization       2.7156401

 Free energy of the ion-electron system (eV)
  ---------------------------------------------------
  alpha Z        PSCENC =       723.87325590
  Ewald energy   TEWEN  =    -12463.26641469
  -Hartree energ DENC   =     -5977.73067762
  -exchange      EXHF   =         0.00000000
  -V(xc)+E(xc)   XCENC  =       751.29665219
  PAW double counting   =     41431.08034705   -42095.46327580
  entropy T*S    EENTRO =        -0.01564114
  eigenvalues    EBANDS =      -990.44241751
  atomic energy  EATOM  =     20168.87094289
  ---------------------------------------------------
  free energy    TOTEN  =      1548.19950697 eV

  energy without entropy =     1548.21514811  energy(sigma->0) =     1548.20732754


--------------------------------------------------------------------------------------------------------




--------------------------------------- Iteration      1(  20)  ---------------------------------------


    POTLOK:  cpu time    0.0455: real time    0.0462
    SETDIJ:  cpu time    0.0129: real time    0.0136
    TRIAL :  cpu time   11.9589: real time   12.4159
    CORREC:  cpu time    4.2021: real time    4.3297
    CHARGE:  cpu time    0.4583: real time    0.4603
    --------------------------------------------
      LOOP:  cpu time   16.6783: real time   17.2704

 eigenvalue-minimisations  :     0
 total energy-change (2. order) :-0.1873110E+03  (-0.2835512E+03)
 number of electron     258.0000028 magnetization       6.0000002
 augmentation part       69.5370582 magnetization       3.0593545

 Free energy of the ion-electron system (eV)
  ---------------------------------------------------
  alpha Z        PSCENC =       723.87325590
  Ewald energy   TEWEN  =    -12463.26641469
  -Hartree energ DENC   =     -6312.47819993
  -exchange      EXHF   =         0.00000000
  -V(xc)+E(xc)   XCENC  =       755.85571712
  PAW double counting   =     39602.64044811   -40231.01222479
  entropy T*S    EENTRO =        -0.01986544
  eigenvalues    EBANDS =      -883.57935487
  atomic energy  EATOM  =     20168.87094289
  ---------------------------------------------------
  free energy    TOTEN  =      1360.88852860 eV

  energy without entropy =     1360.90839404  energy(sigma->0) =     1360.89846132


--------------------------------------------------------------------------------------------------------




--------------------------------------- Iteration      1(  21)  ---------------------------------------


    POTLOK:  cpu time    0.0476: real time    0.0476
    SETDIJ:  cpu time    0.0131: real time    0.0131
    TRIAL :  cpu time   12.4099: real time   12.4144
    CORREC:  cpu time    4.2549: real time    4.2569
    CHARGE:  cpu time    0.5469: real time    0.5470
    --------------------------------------------
      LOOP:  cpu time   17.2768: real time   17.2833

 eigenvalue-minimisations  :     0
 total energy-change (2. order) :-0.2893168E+03  (-0.3692397E+03)
 number of electron     258.0000036 magnetization       6.0000004
 augmentation part       72.5778860 magnetization       3.3502263

 Free energy of the ion-electron system (eV)
  ---------------------------------------------------
  alpha Z        PSCENC =       723.87325590
  Ewald energy   TEWEN  =    -12463.26641469
  -Hartree energ DENC   =     -6543.42747723
  -exchange      EXHF   =         0.00000000
  -V(xc)+E(xc)   XCENC  =       778.19766507
  PAW double counting   =     35867.29495170   -36442.36492170
  entropy T*S    EENTRO =        -0.01621249
  eigenvalues    EBANDS =     -1017.58643841
  atomic energy  EATOM  =     20168.87094289
  ---------------------------------------------------
  free energy    TOTEN  =      1071.57169810 eV

  energy without entropy =     1071.58791059  energy(sigma->0) =     1071.57980434


--------------------------------------------------------------------------------------------------------




--------------------------------------- Iteration      1(  22)  ---------------------------------------


    POTLOK:  cpu time    0.0462: real time    0.0462
    SETDIJ:  cpu time    0.0131: real time    0.0131
    TRIAL :  cpu time   12.1667: real time   12.1883
    CORREC:  cpu time    4.3919: real time    4.3936
    CHARGE:  cpu time    0.4324: real time    0.4325
    --------------------------------------------
      LOOP:  cpu time   17.0543: real time   17.0777

 eigenvalue-minimisations  :     0
 total energy-change (2. order) :-0.3661571E+03  (-0.3218249E+03)
 number of electron     258.0000039 magnetization       6.0000005
 augmentation part       76.4553995 magnetization       3.4794054

 Free energy of the ion-electron system (eV)
  ---------------------------------------------------
  alpha Z        PSCENC =       723.87325590
  Ewald energy   TEWEN  =    -12463.26641469
  -Hartree energ DENC   =     -7670.92008870
  -exchange      EXHF   =         0.00000000
  -V(xc)+E(xc)   XCENC  =       817.14419979
  PAW double counting   =     31596.64933875   -32172.42398068
  entropy T*S    EENTRO =        -0.01498427
  eigenvalues    EBANDS =      -294.49640294
  atomic energy  EATOM  =     20168.87094289
  ---------------------------------------------------
  free energy    TOTEN  =       705.41463782 eV

  energy without entropy =      705.42962209  energy(sigma->0) =      705.42212996


--------------------------------------------------------------------------------------------------------




--------------------------------------- Iteration      1(  23)  ---------------------------------------


    POTLOK:  cpu time    0.0459: real time    0.0459
    SETDIJ:  cpu time    0.0131: real time    0.0131
    TRIAL :  cpu time   12.1245: real time   12.1279
    CORREC:  cpu time    4.3519: real time    4.3541
    CHARGE:  cpu time    0.4455: real time    0.4463
    --------------------------------------------
      LOOP:  cpu time   16.9852: real time   16.9916

 eigenvalue-minimisations  :     0
 total energy-change (2. order) :-0.2459641E+03  (-0.1267613E+03)
 number of electron     258.0000049 magnetization       6.0000004
 augmentation part       79.7505980 magnetization       3.4264311

 Free energy of the ion-electron system (eV)
  ---------------------------------------------------
  alpha Z        PSCENC =       723.87325590
  Ewald energy   TEWEN  =    -12463.26641469
  -Hartree energ DENC   =     -8766.39205715
  -exchange      EXHF   =         0.00000000
  -V(xc)+E(xc)   XCENC  =       851.33393391
  PAW double counting   =     30055.69326993   -30670.30663329
  entropy T*S    EENTRO =        -0.01698907
  eigenvalues    EBANDS =       559.65922523
  atomic energy  EATOM  =     20168.87094289
  ---------------------------------------------------
  free energy    TOTEN  =       459.45053846 eV

  energy without entropy =      459.46752754  energy(sigma->0) =      459.45903300


--------------------------------------------------------------------------------------------------------




--------------------------------------- Iteration      1(  24)  ---------------------------------------


    POTLOK:  cpu time    0.0458: real time    0.0458
    SETDIJ:  cpu time    0.0131: real time    0.0131
    TRIAL :  cpu time   12.4136: real time   12.4198
    CORREC:  cpu time    4.2500: real time    4.2517
    CHARGE:  cpu time    0.4314: real time    0.4314
    --------------------------------------------
      LOOP:  cpu time   17.1582: real time   17.1662

 eigenvalue-minimisations  :     0
 total energy-change (2. order) :-0.1144646E+03  (-0.1311135E+03)
 number of electron     258.0000055 magnetization       6.0000003
 augmentation part       81.9861733 magnetization       3.7177878

 Free energy of the ion-electron system (eV)
  ---------------------------------------------------
  alpha Z        PSCENC =       723.87325590
  Ewald energy   TEWEN  =    -12463.26641469
  -Hartree energ DENC   =     -8991.59166062
  -exchange      EXHF   =         0.00000000
  -V(xc)+E(xc)   XCENC  =       871.15955705
  PAW double counting   =     29472.90163553   -30128.74407910
  entropy T*S    EENTRO =        -0.01253551
  eigenvalues    EBANDS =       691.79964421
  atomic energy  EATOM  =     20168.87094289
  ---------------------------------------------------
  free energy    TOTEN  =       344.98589209 eV

  energy without entropy =      344.99842760  energy(sigma->0) =      344.99215985


--------------------------------------------------------------------------------------------------------




--------------------------------------- Iteration      1(  25)  ---------------------------------------


    POTLOK:  cpu time    0.0457: real time    0.0457
    SETDIJ:  cpu time    0.0131: real time    0.0131
    TRIAL :  cpu time   12.3138: real time   12.3171
    CORREC:  cpu time    4.2913: real time    4.2936
    CHARGE:  cpu time    0.4310: real time    0.4310
    --------------------------------------------
      LOOP:  cpu time   17.0991: real time   17.1048

 eigenvalue-minimisations  :     0
 total energy-change (2. order) :-0.1067843E+03  (-0.1585519E+03)
 number of electron     258.0000050 magnetization       6.0000004
 augmentation part       79.7431724 magnetization       3.9129878

 Free energy of the ion-electron system (eV)
[...]
   20        1.566   3.389   0.000   4.955
   21        1.566   3.488   0.000   5.054
   22        1.573   3.420   0.000   4.993
   23        1.570   3.445   0.000   5.015
   24        1.583   3.339   0.000   4.922
   25        1.580   3.367   0.000   4.947
   26        1.569   3.447   0.000   5.015
   27        1.564   3.460   0.000   5.024
   28        1.557   3.455   0.000   5.011
   29        1.564   3.447   0.000   5.010
   30        1.567   3.436   0.000   5.002
   31        1.579   3.386   0.000   4.966
   32        1.570   3.400   0.000   4.970
   33        1.563   3.487   0.000   5.049
   34        1.561   3.466   0.000   5.027
   35        1.576   3.370   0.000   4.946
   36        1.578   3.401   0.000   4.979
   37        1.579   3.342   0.000   4.921
   38        1.585   3.356   0.000   4.941
   39        1.556   3.485   0.000   5.041
   40        1.568   3.451   0.000   5.019
   41        1.565   3.426   0.000   4.992
   42        1.567   3.415   0.000   4.982
--------------------------------------------------
tot         43.671  91.893  87.980 223.544
 


 magnetization (x)
 
# of ion       s       p       d       tot
------------------------------------------
    1        0.001   0.000   0.000   0.001
    2        0.001  -0.001   0.000  -0.000
    3        0.001   0.002   0.000   0.003
    4        0.000  -0.001   0.000  -0.000
    5        0.001   0.000   0.000   0.001
    6        0.000  -0.001   0.000  -0.000
    7        0.011   0.012   1.299   1.322
    8        0.002   0.006   0.040   0.048
    9        0.004   0.009   0.055   0.068
   10        0.009   0.014   1.218   1.241
   11        0.009   0.012   1.204   1.224
   12        0.004   0.005   0.518   0.528
   13        0.002   0.003   0.003   0.007
   14        0.003   0.007  -0.011  -0.001
   15        0.004   0.006   0.010   0.019
   16        0.014   0.016   1.466   1.497
   17        0.003   0.007   0.006   0.016
   18        0.013   0.013   1.482   1.508
   19        0.001  -0.042   0.000  -0.041
   20        0.001  -0.016   0.000  -0.015
   21        0.000  -0.004   0.000  -0.004
   22        0.000  -0.066   0.000  -0.066
   23        0.000  -0.014   0.000  -0.014
   24        0.000  -0.142   0.000  -0.142
   25        0.001  -0.062   0.000  -0.061
   26        0.000  -0.020   0.000  -0.020
   27        0.000  -0.024   0.000  -0.023
   28        0.000   0.019   0.000   0.019
   29        0.000  -0.047   0.000  -0.047
   30        0.000  -0.049   0.000  -0.049
   31        0.001  -0.030   0.000  -0.029
   32        0.000  -0.058   0.000  -0.058
   33        0.000   0.026   0.000   0.026
   34       -0.000  -0.016   0.000  -0.016
   35       -0.000  -0.076   0.000  -0.076
   36        0.001  -0.107   0.000  -0.107
   37       -0.000  -0.131   0.000  -0.131
   38        0.001  -0.165   0.000  -0.165
   39        0.001  -0.024   0.000  -0.023
   40        0.001  -0.090   0.000  -0.089
   41        0.000  -0.069   0.000  -0.069
   42        0.001  -0.090   0.000  -0.090
--------------------------------------------------
tot          0.091  -1.189   7.292   6.194
 
    FORLOC:  cpu time    0.0081: real time    0.0081
    FORNL :  cpu time    4.2132: real time    4.2161
    STRESS:  cpu time   12.6937: real time   12.7037
    FORCOR:  cpu time    0.0491: real time    0.0491
    OFIELD:  cpu time    0.0004: real time    0.0004

  DFT-D2 method for vdW energy calculation
  -------------------------------------------------------------------

  Parameters of vdW forcefield:
         C6(Jnm^6/mol)     R0(A)
   -----------------------------
   Li       1.610          0.825
   Co      10.800          1.562
   O        0.700          1.342

  IVDW =   1
  VDW_RADIUS =    50.000 A
  VDW_S6 =     0.750
  VDW_SR =     1.000
  VDW_D =    20.000
  LVDW_EWALD = F

  Number of pair interactions contributing to vdW energy: 1167114
  Edisp (eV):   -9.14816
    FORVDW:  cpu time    0.1740: real time    0.1749

  FORCE on cell =-STRESS in cart. coord.  units (eV):
  Direction    XX          YY          ZZ          XY          YZ          ZX
  --------------------------------------------------------------------------------------
  Alpha Z   723.87326   723.87326   723.87326
  Ewald     -50.92400  -220.23144-12192.17947    -0.91078    92.80991    48.86623
  Hartree  6003.05464  5926.07358 -3527.78126    -0.97602    33.79555    18.39272
  E(xc)   -1285.88848 -1286.30262 -1287.62375    -0.03947     0.13407     0.07284
  Local  -10870.72087-10644.74202 10752.40410     3.11551  -119.71489   -61.69086
  n-local  -587.81728  -594.97960  -598.58706     1.50781     3.73851     1.98805
  augment  2012.91877  2026.67730  2001.09387    -1.45171    -4.11074    -2.20045
  Kinetic  4073.28254  4078.72097  4137.17435     1.96460    -2.20150    -3.81386
  Fock        0.00000     0.00000     0.00000     0.00000     0.00000     0.00000
  vdW        -6.61527    -5.73694   -11.58598     0.05030    -0.17567    -0.00363
  -------------------------------------------------------------------------------------
  Total      11.16330     3.35248    -3.21194     3.26025     4.27524     1.61103
  in kB      44.16223    13.26249   -12.70651    12.89760    16.91291     6.37327
  external pressure =       14.91 kB  Pullay stress =        0.00 kB


 VOLUME and BASIS-vectors are now :
 -----------------------------------------------------------------------------
  energy-cutoff  :      600.00
  volume of cell :      405.00
      direct lattice vectors                 reciprocal lattice vectors
     5.554084301  0.000000000  0.000000000     0.180047681  0.104834453  0.019336118
    -2.829595804  4.859682560  0.000000000     0.000000000  0.205774757  0.012521908
    -1.079786777 -0.913082898 15.004855156     0.000000000  0.000000000  0.066645095

  length of vectors
     5.554084301  5.623444407 15.071341616     0.209239852  0.206155400  0.066645095


 FORCES acting on ions:
    Electron-Ion                     Ewald-Force                    Non-Local-Force
 -----------------------------------------------------------------------------------------------
   -.251E+01 0.128E+01 0.442E+02   0.219E+01 -.957E+00 -.436E+02   0.299E+00 -.205E+00 -.198E+01
   0.729E+00 0.151E+01 0.153E+02   -.597E+00 -.126E+01 -.157E+02   0.635E-02 -.440E+00 0.218E+00
   -.228E+01 -.736E+00 0.122E+02   0.180E+01 0.410E+00 -.128E+02   0.940E+00 0.793E+00 0.944E+00
   -.393E+01 -.377E+01 -.145E+02   0.356E+01 0.387E+01 0.146E+02   0.693E+00 0.112E+00 -.939E-02
   -.413E+01 0.569E+01 -.158E+02   0.409E+01 -.532E+01 0.158E+02   0.761E+00 -.757E+00 -.104E+00
   0.132E+00 0.356E+01 -.160E+02   -.466E+00 -.348E+01 0.164E+02   0.102E+00 -.301E+00 -.739E-01
   0.110E+02 -.264E+02 0.193E+03   -.119E+02 0.288E+02 -.192E+03   0.420E+00 0.262E+00 0.905E+00
   -.285E+02 0.407E+02 0.259E+03   0.291E+02 -.424E+02 -.260E+03   0.664E-01 -.845E+00 0.261E-01
   -.418E+02 0.408E+02 0.217E+03   0.437E+02 -.408E+02 -.215E+03   0.640E+00 -.109E+01 -.108E+01
   0.175E+02 -.348E+02 0.304E+03   -.175E+02 0.339E+02 -.306E+03   0.477E+00 -.229E+00 0.444E+00
   -.980E+01 0.452E+02 0.229E+02   0.992E+01 -.468E+02 -.233E+02   -.140E+00 -.818E+00 0.870E+00
   -.151E+02 -.366E+02 0.309E+02   0.162E+02 0.386E+02 -.299E+02   -.466E+00 0.504E-01 0.713E+00
   -.173E+02 0.664E+01 -.222E+01   0.169E+02 -.838E+01 0.248E+01   0.871E+00 0.767E+00 -.256E+00
   0.716E+02 0.510E+01 0.265E+02   -.734E+02 -.475E+01 -.269E+02   -.199E+01 -.782E+00 0.237E+00
   -.344E+02 -.275E+02 -.192E+03   0.347E+02 0.290E+02 0.194E+03   -.119E+00 -.328E+00 -.707E+00
   0.227E+02 0.316E+02 -.363E+03   -.227E+02 -.321E+02 0.363E+03   -.787E+00 -.720E+00 -.962E+00
   0.149E+02 0.172E+02 -.280E+03   -.147E+02 -.196E+02 0.283E+03   0.455E+00 -.178E+01 -.819E+00
   -.703E+00 0.462E+02 -.237E+03   0.296E+00 -.477E+02 0.238E+03   -.234E+00 -.710E+00 -.129E+01
   -.874E+01 -.272E+02 -.213E+03   0.103E+02 0.301E+02 0.233E+03   -.175E+01 -.117E+01 -.192E+02
   -.211E+02 -.136E+02 -.187E+03   0.246E+02 0.165E+02 0.205E+03   -.358E+01 -.230E+01 -.187E+02
   0.347E+01 -.585E+01 -.197E+03   -.579E+01 0.479E+01 0.215E+03   0.252E+01 0.209E+01 -.174E+02
   0.305E+02 0.103E+02 -.216E+03   -.349E+02 -.997E+01 0.238E+03   0.389E+01 -.977E+00 -.209E+02
   -.154E+02 0.255E+02 0.533E+03   0.150E+02 -.298E+02 -.555E+03   0.613E+00 0.389E+01 0.216E+02
   0.351E+02 0.114E+01 0.524E+03   -.391E+02 -.303E+01 -.548E+03   0.291E+01 0.176E+01 0.245E+02
   0.404E+02 -.732E+00 0.529E+03   -.440E+02 0.124E+01 -.553E+03   0.193E+01 -.167E+01 0.244E+02
   -.217E+02 -.989E+01 0.534E+03   0.243E+02 0.132E+02 -.554E+03   -.278E+01 -.257E+01 0.196E+02
   -.169E+02 -.161E+02 -.363E+03   0.201E+02 0.200E+02 0.382E+03   -.285E+01 -.314E+01 -.191E+02
   -.166E+02 0.559E+01 -.339E+03   0.176E+02 -.645E+01 0.353E+03   0.464E-01 0.441E+00 -.138E+02
   0.217E+02 -.281E+01 -.360E+03   -.251E+02 0.502E+01 0.377E+03   0.291E+01 -.227E+01 -.181E+02
   -.276E+02 -.156E+02 -.363E+03   0.320E+02 0.147E+02 0.381E+03   -.226E+01 0.263E+01 -.178E+02
   -.285E+02 -.313E+02 0.389E+03   0.327E+02 0.352E+02 -.414E+03   -.387E+01 -.306E+01 0.252E+02
   -.136E+02 0.367E+01 0.370E+03   0.166E+02 -.283E+01 -.391E+03   -.360E+01 -.128E+01 0.213E+02
   0.219E+02 0.264E+02 0.385E+03   -.255E+02 -.297E+02 -.405E+03   0.357E+01 0.209E+01 0.190E+02
   0.312E+02 0.105E+02 0.361E+03   -.353E+02 -.125E+02 -.378E+03   0.396E+01 0.248E+01 0.162E+02
   0.580E+01 -.265E+02 -.531E+03   -.683E+01 0.249E+02 0.553E+03   0.390E+00 0.355E+01 -.222E+02
   -.160E+01 0.133E+02 -.531E+03   -.198E+00 -.113E+02 0.555E+03   0.149E+01 -.202E+01 -.241E+02
   0.135E+02 -.134E+02 -.526E+03   -.151E+02 0.142E+02 0.550E+03   0.124E+01 -.423E+00 -.249E+02
   0.348E+01 -.380E+01 -.535E+03   -.177E+01 0.883E+01 0.560E+03   -.226E+01 -.504E+01 -.256E+02
   -.857E+00 0.876E+01 0.186E+03   -.184E+01 -.622E+01 -.199E+03   0.318E+01 -.273E+01 0.119E+02
   0.419E+00 -.546E+02 0.186E+03   0.277E+00 0.594E+02 -.204E+03   -.410E+00 -.146E+01 0.174E+02
   0.508E+01 0.112E+02 0.186E+03   -.401E+01 -.115E+02 -.203E+03   -.108E+01 0.247E+00 0.172E+02
   -.228E+02 0.391E+01 0.181E+03   0.251E+02 -.572E+01 -.199E+03   -.101E+01 0.205E+01 0.181E+02
 -----------------------------------------------------------------------------------------------
   -.513E+01 0.159E+02 0.832E+01   -.178E-13 0.666E-13 0.654E-12   0.517E+01 -.159E+02 -.828E+01
 
 
 POSITION                                       TOTAL-FORCE (eV/Angst)
 -----------------------------------------------------------------------------------
      0.40983      3.73027      0.43515        -0.078050      0.147830     -1.300150
      3.54008      0.38319      5.15317         0.164509     -0.155117     -0.246967
      1.62665      2.46275      5.11544         0.466819      0.382263      0.109879
     -2.21739      3.64071      9.87841         0.263395      0.164156      0.054201
     -0.87445      1.24470      9.87740         0.617615     -0.270341      0.033059
      2.07893      1.21228      9.83803        -0.180554     -0.143798      0.249911
     -1.92086      3.41262      2.72427        -0.427347      2.410832      0.794803
     -0.52513      1.05958      2.73409         0.551271     -2.269911     -0.949754
      0.77595      3.51949      2.77421         2.293686     -0.888700      0.432043
      2.23825      1.09506      2.66744         0.462289     -1.260031     -1.030735
      3.46880      2.03009      7.47390        -0.090656     -2.054189      0.455789
      2.04955      4.35348      7.42850         0.541446      1.833727      1.526556
      0.66113      2.00965      7.54228         0.366216     -1.030724      0.075099
     -0.67802      4.39053      7.48707        -3.288087     -0.242983     -0.059654
     -0.51218      2.79795     12.21128         0.042484      0.946390      0.508538
      0.95193      0.41430     12.45358        -0.598465     -1.041543     -1.163811
      2.20495      2.93669     12.27628         0.580260     -3.741490      1.790780
      3.66450      0.48513     12.28698        -0.609196     -1.983734      0.377229
      3.61602      1.71067      3.70763        -0.262606      1.840833      0.659322
      2.23630      4.17733      3.80916        -0.147508      0.620895     -0.629951
      0.85420      1.80710      3.62632         0.166648      1.020300      0.778231
     -0.56242      4.38671      3.67120        -0.538762     -0.693147      0.843983
     -0.56143      2.69868      1.76634         0.202593     -0.512605     -0.360629
      0.95657      0.22373      1.70580        -1.049207     -0.114242      0.489816
      2.34984      2.76590      1.68859        -1.708625     -1.159182      0.277991
      3.65426      0.19542      1.79444        -0.205687      0.820489     -0.715668
     -0.77788      2.73429      8.52925         0.403288      0.753924     -0.063801
      0.58207      0.37538      8.50762         1.080385     -0.393990      0.156297
      2.13527      2.78792      8.55891        -0.526974     -0.033565     -0.604425
      3.38940      0.26949      8.49808         2.108024      1.654991      0.549494
     -2.15186      3.52231      6.47978         0.297277      0.804513     -0.021230
     -0.67438      1.19221      6.50623        -0.603606     -0.391090      0.130444
      0.69122      3.64697      6.52925        -0.108142     -1.200536     -0.914729
      2.10815      1.16466      6.58039        -0.179451      0.435490     -0.783099
     -1.83405      3.45253     13.28828        -0.617284      2.014296      0.159614
     -0.47317      1.24308     13.23508        -0.298761     -0.007058      0.558227
      0.85156      3.67789     13.30838        -0.386425      0.382457     -1.034841
      2.35300      1.28562     13.28898        -0.573865     -0.028846     -0.061663
     -1.98938      2.04418     11.21488         0.499885     -0.234591     -0.506373
     -0.53429     -0.50164     11.31128         0.204887      3.458941     -0.852377
      0.87713      1.95494     11.26698        -0.133754     -0.001639      0.005142
      2.13525     -0.37462     11.27818         1.300034      0.160725      0.283408
 -----------------------------------------------------------------------------------
    total drift:                                0.035588      0.018343      0.039774


--------------------------------------------------------------------------------------------------------



  FREE ENERGIE OF THE ION-ELECTRON SYSTEM (eV)
  ---------------------------------------------------
  free  energy   TOTEN  =      -232.51527580 eV

  energy  without entropy=     -232.49870016  energy(sigma->0) =     -232.50698798
 


--------------------------------------------------------------------------------------------------------


    POTLOK:  cpu time    0.0682: real time    0.0682


--------------------------------------------------------------------------------------------------------


     LOOP+:  cpu time 4470.9009: real time 4480.6048
    4ORBIT:  cpu time    0.0000: real time    0.0000
 


 total charge     
 
# of ion       s       p       d       tot
------------------------------------------
    1        0.067   0.137   0.000   0.203
    2        0.083   0.170   0.000   0.253
    3        0.096   0.201   0.000   0.297
    4        0.093   0.191   0.000   0.284
    5        0.089   0.186   0.000   0.275
    6        0.089   0.183   0.000   0.272
    7        0.466   0.747   7.229   8.443
    8        0.438   0.688   7.369   8.495
    9        0.459   0.724   7.450   8.633
   10        0.489   0.810   7.273   8.572
   11        0.489   0.793   7.291   8.573
   12        0.460   0.737   7.347   8.545
   13        0.429   0.669   7.366   8.463
   14        0.444   0.691   7.412   8.547
   15        0.442   0.705   7.396   8.542
   16        0.450   0.690   7.211   8.351
   17        0.467   0.751   7.440   8.658
   18        0.446   0.690   7.198   8.334
   19        1.568   3.453   0.000   5.020
   20        1.566   3.389   0.000   4.955
   21        1.566   3.488   0.000   5.054
   22        1.573   3.420   0.000   4.993
   23        1.570   3.445   0.000   5.015
   24        1.583   3.339   0.000   4.922
   25        1.580   3.367   0.000   4.947
   26        1.569   3.447   0.000   5.015
   27        1.564   3.460   0.000   5.024
   28        1.557   3.455   0.000   5.011
   29        1.564   3.447   0.000   5.010
   30        1.567   3.436   0.000   5.002
   31        1.579   3.386   0.000   4.966
   32        1.570   3.400   0.000   4.970
   33        1.563   3.487   0.000   5.049
   34        1.561   3.466   0.000   5.027
   35        1.576   3.370   0.000   4.946
   36        1.578   3.401   0.000   4.979
   37        1.579   3.342   0.000   4.921
   38        1.585   3.356   0.000   4.941
   39        1.556   3.485   0.000   5.041
   40        1.568   3.451   0.000   5.019
   41        1.565   3.426   0.000   4.992
   42        1.567   3.415   0.000   4.982
--------------------------------------------------
tot         43.671  91.893  87.980 223.544
 


 magnetization (x)
 
# of ion       s       p       d       tot
------------------------------------------
    1        0.001   0.000   0.000   0.001
    2        0.001  -0.001   0.000  -0.000
    3        0.001   0.002   0.000   0.003
    4        0.000  -0.001   0.000  -0.000
    5        0.001   0.000   0.000   0.001
    6        0.000  -0.001   0.000  -0.000
    7        0.011   0.012   1.299   1.322
    8        0.002   0.006   0.040   0.048
    9        0.004   0.009   0.055   0.068
   10        0.009   0.014   1.218   1.241
   11        0.009   0.012   1.204   1.224
   12        0.004   0.005   0.518   0.528
   13        0.002   0.003   0.003   0.007
   14        0.003   0.007  -0.011  -0.001
   15        0.004   0.006   0.010   0.019
   16        0.014   0.016   1.466   1.497
   17        0.003   0.007   0.006   0.016
   18        0.013   0.013   1.482   1.508
   19        0.001  -0.042   0.000  -0.041
   20        0.001  -0.016   0.000  -0.015
   21        0.000  -0.004   0.000  -0.004
   22        0.000  -0.066   0.000  -0.066
   23        0.000  -0.014   0.000  -0.014
   24        0.000  -0.142   0.000  -0.142
   25        0.001  -0.062   0.000  -0.061
   26        0.000  -0.020   0.000  -0.020
   27        0.000  -0.024   0.000  -0.023
   28        0.000   0.019   0.000   0.019
   29        0.000  -0.047   0.000  -0.047
   30        0.000  -0.049   0.000  -0.049
   31        0.001  -0.030   0.000  -0.029
   32        0.000  -0.058   0.000  -0.058
   33        0.000   0.026   0.000   0.026
   34       -0.000  -0.016   0.000  -0.016
   35       -0.000  -0.076   0.000  -0.076
   36        0.001  -0.107   0.000  -0.107
   37       -0.000  -0.131   0.000  -0.131
   38        0.001  -0.165   0.000  -0.165
   39        0.001  -0.024   0.000  -0.023
   40        0.001  -0.090   0.000  -0.089
   41        0.000  -0.069   0.000  -0.069
   42        0.001  -0.090   0.000  -0.090
--------------------------------------------------
tot          0.091  -1.189   7.292   6.194
 

 total amount of memory used by VASP MPI-rank0   163620. kBytes
=======================================================================

   base      :      30000. kBytes
   nonlr-proj:       4185. kBytes
   fftplans  :       1692. kBytes
   grid      :       4644. kBytes
   one-center:        342. kBytes
   wavefun   :     122757. kBytes
 
  
  
 General timing and accounting informations for this job:
 ========================================================
  
                  Total CPU time used (sec):     4496.306
                            User time (sec):     4192.888
                          System time (sec):      303.418
                         Elapsed time (sec):     4506.757
  
                   Maximum memory used (kb):     1038036.
                   Average memory used (kb):           0.
  
                          Minor page faults:        72387
                          Major page faults:           76
                 Voluntary context switches:          615
