 running on   64 total cores
 distrk:  each k-point on   64 cores,    1 groups
 distr:  one band on    4 cores,   16 groups
 using from now: INCAR     
 vasp.5.4.4.18Apr17-6-g9f103f2a35 (build Nov 22 2021 14:44:17) complex          
  
 POSCAR found type information on POSCAR  Li Co O 
 POSCAR found :  3 types and      42 ions
 scaLAPACK will be used
 LDA part: xc-table for Pade appr. of Perdew
 generate k-points for:    6    6    2
 POSCAR, INCAR and KPOINTS ok, starting setup
 FFT: planning ...
 WAVECAR not read
 entering main loop
       N       E                     dE             d eps       ncg     rms          ort
DAV:   1     0.345290714628E+04    0.34529E+04   -0.13901E+05  5760   0.216E+03
DAV:   2     0.413375339241E+03   -0.30395E+04   -0.28035E+04  5760   0.524E+02
DAV:   3    -0.217958716680E+03   -0.63133E+03   -0.57906E+03  5760   0.251E+02
DAV:   4    -0.269318130403E+03   -0.51359E+02   -0.50116E+02  5760   0.733E+01
DAV:   5    -0.271174992667E+03   -0.18569E+01   -0.18526E+01  5760   0.140E+01
 gam= 0.000 g(H,U,f)=  0.172E+04 0.119E+04 0.770E+03 ort(H,U,f) = 0.000E+00 0.000E+00 0.000E+00
SDA:   6     0.766635486348E+02    0.34784E+03   -0.18526E+01  5760   0.368E+04 0.000E+00
 gam= 0.000 trial= 0.400  step= 0.109 mean= 0.400
 gam= 1.154 g(H,U,f)=  0.748E+03 0.152E+04 0.198E+04 ort(H,U,f) = 0.688E+03 0.180E+03-0.315E+03
CGA:   7     0.158000878937E+02   -0.60863E+02   -0.20020E+03  5760   0.425E+04 0.553E+03
 gam= 1.154 trial= 0.385  step= 0.061 mean= 0.385
 gam= 0.520 g(H,U,f)=  0.245E+03 0.844E+03 0.112E+04 ort(H,U,f) = 0.379E+03 0.314E+03-0.191E+03
CGA:   8    -0.123701109380E+03   -0.13950E+03   -0.14810E+03  5760   0.221E+04 0.503E+03
 gam= 0.520 trial= 0.369  step= 0.074 mean= 0.369
 gam= 1.509 g(H,U,f)=  0.170E+03 0.152E+04 0.165E+04 ort(H,U,f) =-0.275E+03-0.155E+03-0.201E+03
CGA:   9    -0.162389117520E+03   -0.38688E+02   -0.91538E+02  5760   0.334E+04-0.631E+03
 gam= 1.509 trial= 0.354  step= 0.028 mean= 0.354
 gam= 0.177 g(H,U,f)=  0.182E+03 0.286E+03 0.123E+03 ort(H,U,f) =-0.451E+03-0.360E+03 0.159E+03
CGA:  10    -0.177490443863E+03   -0.15101E+02   -0.32796E+02  5760   0.591E+03-0.651E+03
 gam= 0.177 trial= 0.338  step= 0.070 mean= 0.338
 gam= 0.000 g(H,U,f)=  0.178E+03 0.267E+03 0.131E+03 ort(H,U,f) = 0.402E+02-0.257E+03-0.130E+03
CGA:  11    -0.179866755433E+03   -0.23763E+01   -0.16667E+02  5760   0.576E+03-0.347E+03
 gam= 0.000 trial= 0.325  step= 0.086 mean= 0.325
 gam= 0.000 g(H,U,f)=  0.101E+03 0.432E+03 0.376E+03 ort(H,U,f) = 0.815E+02-0.299E+03-0.285E+03
CGA:  12    -0.191337421280E+03   -0.11471E+02   -0.24639E+02  5760   0.908E+03-0.502E+03
 gam= 0.000 trial= 0.313  step= 0.082 mean= 0.313
 gam= 0.000 g(H,U,f)=  0.770E+02 0.448E+03 0.283E+03 ort(H,U,f) = 0.218E+02-0.389E+03-0.241E+03
CGA:  13    -0.195320701814E+03   -0.39833E+01   -0.37363E+02  5760   0.808E+03-0.608E+03
 gam= 0.000 trial= 0.301  step= 0.072 mean= 0.301
 gam= 0.000 g(H,U,f)=  0.471E+02 0.294E+03 0.268E+03 ort(H,U,f) = 0.600E+01-0.370E+03-0.333E+03
CGA:  14    -0.203382475780E+03   -0.80618E+01   -0.28981E+02  5760   0.609E+03-0.697E+03
 gam= 0.000 trial= 0.290  step= 0.099 mean= 0.290
 gam= 0.000 g(H,U,f)=  0.617E+02 0.600E+03 0.357E+03 ort(H,U,f) =-0.891E+01-0.402E+03-0.230E+03
CGA:  15    -0.197215286987E+03    0.61672E+01   -0.30241E+02  5760   0.102E+04-0.640E+03
 gam= 0.000 trial= 0.280  step= 0.068 mean= 0.280
 gam= 0.000 g(H,U,f)=  0.309E+02 0.216E+03 0.192E+03 ort(H,U,f) =-0.128E+02-0.332E+03-0.297E+03
CGA:  16    -0.208160727991E+03   -0.10945E+02   -0.34836E+02  5760   0.439E+03-0.642E+03
 gam= 0.000 trial= 0.270  step= 0.084 mean= 0.270
 gam= 0.000 g(H,U,f)=  0.294E+02 0.186E+03 0.138E+03 ort(H,U,f) =-0.714E+01-0.172E+03-0.125E+03
CGA:  17    -0.208976956800E+03   -0.81623E+00   -0.18492E+02  5760   0.353E+03-0.304E+03
 gam= 0.000 trial= 0.260  step= 0.060 mean= 0.260
 gam= 0.196 g(H,U,f)=  0.117E+02 0.413E+02 0.164E+02 ort(H,U,f) = 0.166E+01-0.839E+02-0.379E+02
CGA:  18    -0.215573303470E+03   -0.65963E+01   -0.10680E+02  5760   0.693E+02-0.120E+03
 gam= 0.196 trial= 0.250  step= 0.069 mean= 0.250
 gam= 0.222 g(H,U,f)=  0.646E+01 0.704E+01 0.185E+01 ort(H,U,f) = 0.848E+01-0.176E+01-0.824E+00
CGA:  19    -0.217448415433E+03   -0.18751E+01   -0.15835E+01  5760   0.153E+02 0.590E+01
 gam= 0.222 trial= 0.241  step= 0.095 mean= 0.241
 gam= 1.370 g(H,U,f)=  0.502E+01 0.105E+02 0.553E+01 ort(H,U,f) = 0.623E+01-0.526E+01-0.335E+01
CGA:  20    -0.218113685154E+03   -0.66527E+00   -0.79353E+00  5760   0.210E+02-0.238E+01
 gam= 1.370 trial= 0.234  step= 0.216 mean= 0.234
 gam= 1.445 g(H,U,f)=  0.202E+01 0.195E+02 0.883E+01 ort(H,U,f) = 0.181E+01-0.387E+00-0.490E+00
CGA:  21    -0.220012191900E+03   -0.18985E+01   -0.19180E+01  5760   0.304E+02 0.929E+00
 gam= 1.445 trial= 0.233  step= 0.065 mean= 0.233
 gam= 0.188 g(H,U,f)=  0.116E+01 0.366E+01 0.900E+00 ort(H,U,f) =-0.446E+01-0.194E+01-0.152E+01
CGA:  22    -0.220701459301E+03   -0.68927E+00   -0.10357E+01  5760   0.572E+01-0.793E+01
 gam= 0.188 trial= 0.225  step= 0.081 mean= 0.225
 gam= 0.405 g(H,U,f)=  0.880E+00 0.108E+01 0.354E+00 ort(H,U,f) =-0.119E+00 0.301E+00-0.294E+00
CGA:  23    -0.220869955036E+03   -0.16850E+00   -0.17167E+00  5760   0.232E+01-0.112E+00
 gam= 0.405 trial= 0.218  step= 0.144 mean= 0.218
 gam= 1.511 g(H,U,f)=  0.683E+00 0.213E+01 0.687E+00 ort(H,U,f) = 0.455E+00-0.186E+00-0.275E+00
CGA:  24    -0.221025805048E+03   -0.15585E+00   -0.16325E+00  5760   0.350E+01-0.588E-02
 gam= 1.511 trial= 0.214  step= 0.165 mean= 0.214
 gam= 0.683 g(H,U,f)=  0.463E+00 0.156E+01 0.369E+00 ort(H,U,f) = 0.160E+00-0.169E-02-0.157E+00
CGA:  25    -0.221313787713E+03   -0.28798E+00   -0.28740E+00  5760   0.239E+01 0.196E-02
 gam= 0.683 trial= 0.211  step= 0.120 mean= 0.211
 gam= 0.807 g(H,U,f)=  0.299E+00 0.112E+01 0.509E+00 ort(H,U,f) =-0.622E-01 0.217E+00-0.214E+00
CGA:  26    -0.221449409615E+03   -0.13562E+00   -0.14313E+00  5760   0.193E+01-0.589E-01
 gam= 0.807 trial= 0.207  step= 0.127 mean= 0.207
 gam= 0.699 g(H,U,f)=  0.282E+00 0.793E+00 0.276E+00 ort(H,U,f) =-0.375E+00 0.338E+00 0.340E-02
CGA:  27    -0.221559627003E+03   -0.11022E+00   -0.11920E+00  5760   0.135E+01-0.330E-01
 gam= 0.699 trial= 0.203  step= 0.140 mean= 0.203
 gam= 0.945 g(H,U,f)=  0.402E+00 0.690E+00 0.185E+00 ort(H,U,f) =-0.250E+00 0.320E+00-0.716E-01
CGA:  28    -0.221647924812E+03   -0.88298E-01   -0.92788E-01  5760   0.128E+01-0.157E-02
 gam= 0.945 trial= 0.200  step= 0.303 mean= 0.200
 gam= 1.429 g(H,U,f)=  0.670E+00 0.926E+00 0.228E+00 ort(H,U,f) =-0.165E+00 0.170E+00-0.798E-01
CGA:  29    -0.221836163654E+03   -0.18824E+00   -0.19322E+00  5760   0.182E+01-0.747E-01
 gam= 1.429 trial= 0.205  step= 0.294 mean= 0.205
 gam= 0.772 g(H,U,f)=  0.534E+00 0.707E+00 0.166E+00 ort(H,U,f) =-0.278E+00 0.393E+00-0.375E-02
CGA:  30    -0.222097187616E+03   -0.26102E+00   -0.25242E+00  5760   0.141E+01 0.111E+00
 gam= 0.772 trial= 0.209  step= 0.252 mean= 0.209
 gam= 1.053 g(H,U,f)=  0.454E+00 0.711E+00 0.318E+00 ort(H,U,f) =-0.232E+00 0.354E+00 0.190E-01
CGA:  31    -0.222290288649E+03   -0.19310E+00   -0.18844E+00  5760   0.148E+01 0.140E+00
 gam= 1.053 trial= 0.211  step= 0.321 mean= 0.211
 gam= 1.718 g(H,U,f)=  0.671E+00 0.124E+01 0.638E+00 ort(H,U,f) =-0.362E+00 0.413E+00-0.246E+00
CGA:  32    -0.222544914800E+03   -0.25463E+00   -0.26179E+00  5760   0.255E+01-0.195E+00
 gam= 1.718 trial= 0.217  step= 0.184 mean= 0.217
 gam= 0.913 g(H,U,f)=  0.932E+00 0.101E+01 0.389E+00 ort(H,U,f) =-0.554E+00 0.606E+00-0.319E-01
CGA:  33    -0.222746012195E+03   -0.20110E+00   -0.20310E+00  5760   0.233E+01 0.194E-01
 gam= 0.913 trial= 0.215  step= 0.136 mean= 0.215
 gam= 0.798 g(H,U,f)=  0.815E+00 0.772E+00 0.269E+00 ort(H,U,f) =-0.194E+00 0.340E+00-0.158E+00
CGA:  34    -0.222904968271E+03   -0.15896E+00   -0.15953E+00  5760   0.186E+01-0.123E-01
 gam= 0.798 trial= 0.211  step= 0.243 mean= 0.211
 gam= 1.089 g(H,U,f)=  0.639E+00 0.102E+01 0.365E+00 ort(H,U,f) =-0.221E+00 0.284E+00-0.249E-01
CGA:  35    -0.223130119904E+03   -0.22515E+00   -0.22424E+00  5760   0.202E+01 0.383E-01
 gam= 1.089 trial= 0.213  step= 0.186 mean= 0.213
 gam= 0.671 g(H,U,f)=  0.626E+00 0.700E+00 0.303E-01 ort(H,U,f) =-0.390E+00 0.697E+00-0.471E-01
CGA:  36    -0.223314107773E+03   -0.18399E+00   -0.19223E+00  5760   0.136E+01 0.260E+00
 gam= 0.671 trial= 0.212  step= 0.272 mean= 0.212
 gam= 0.753 g(H,U,f)=  0.535E+00 0.400E+00 0.869E-01 ort(H,U,f) =-0.244E+00 0.397E+00 0.191E-01
CGA:  37    -0.223530333513E+03   -0.21623E+00   -0.20851E+00  5760   0.102E+01 0.172E+00
 gam= 0.753 trial= 0.215  step= 0.374 mean= 0.215
 gam= 1.484 g(H,U,f)=  0.489E+00 0.561E+00 0.466E+00 ort(H,U,f) =-0.174E+00 0.325E+00-0.298E+00
CGA:  38    -0.223728681068E+03   -0.19835E+00   -0.21555E+00  5760   0.152E+01-0.147E+00
 gam= 1.484 trial= 0.223  step= 0.148 mean= 0.223
 gam= 0.587 g(H,U,f)=  0.434E+00 0.432E+00 0.241E-01 ort(H,U,f) =-0.228E+00 0.244E+00-0.119E-01
CGA:  39    -0.223829165316E+03   -0.10048E+00   -0.96196E-01  5760   0.890E+00 0.453E-02
 gam= 0.587 trial= 0.219  step= 0.234 mean= 0.219
 gam= 1.551 g(H,U,f)=  0.336E+00 0.417E+00 0.628E+00 ort(H,U,f) =-0.286E-01-0.195E-01-0.216E-01
CGA:  40    -0.223932614181E+03   -0.10345E+00   -0.10435E+00  5760   0.138E+01-0.697E-01
 gam= 1.551 trial= 0.220  step= 0.111 mean= 0.220
 gam= 0.676 g(H,U,f)=  0.318E+00 0.387E+00 0.228E+00 ort(H,U,f) =-0.818E-01-0.491E-01 0.137E+00
CGA:  41    -0.223999405323E+03   -0.66791E-01   -0.70917E-01  5760   0.933E+00 0.642E-02
 gam= 0.676 trial= 0.214  step= 0.171 mean= 0.214
 gam= 0.615 g(H,U,f)=  0.272E+00 0.266E+00 0.351E-01 ort(H,U,f) =-0.331E-01 0.104E+00-0.495E-01
CGA:  42    -0.224073582932E+03   -0.74178E-01   -0.79957E-01  5760   0.574E+00 0.215E-01
 gam= 0.615 trial= 0.212  step= 0.265 mean= 0.212
 gam= 0.646 g(H,U,f)=  0.195E+00 0.160E+00 0.154E-01 ort(H,U,f) =-0.568E-01 0.906E-02-0.813E-02
CGA:  43    -0.224142065049E+03   -0.68482E-01   -0.77688E-01  5760   0.371E+00-0.558E-01
 gam= 0.646 trial= 0.215  step= 0.046 mean= 0.215
 gam= 0.000 g(H,U,f)=  0.184E+00 0.187E+00 0.188E-01 ort(H,U,f) = 0.138E+00 0.139E+00-0.942E-02
CGA:  44    -0.224146866821E+03   -0.48018E-02   -0.77632E-02  5760   0.390E+00 0.267E+00
 gam= 0.000 trial= 0.206  step= 0.556 mean= 0.206
 gam= 1.249 g(H,U,f)=  0.215E+00 0.272E+00 0.164E-03 ort(H,U,f) =-0.592E-01-0.116E-01-0.163E-03
CGA:  45    -0.224225769912E+03   -0.78903E-01   -0.10840E+00  5760   0.487E+00-0.710E-01
 gam= 1.249 trial= 0.224  step= 0.402 mean= 0.224
 gam= 0.440 g(H,U,f)=  0.139E+00 0.755E-01 0.206E-05 ort(H,U,f) =-0.110E+00 0.110E+00-0.121E-05
CGA:  46    -0.224305749401E+03   -0.79979E-01   -0.80002E-01  5760   0.214E+00-0.407E-03
 gam= 0.440 trial= 0.233  step= 0.432 mean= 0.233
 gam= 0.611 g(H,U,f)=  0.691E-01 0.618E-01 0.132E-05 ort(H,U,f) =-0.236E-01 0.236E-01 0.170E-05
CGA:  47    -0.224351946695E+03   -0.46197E-01   -0.46186E-01  5760   0.131E+00 0.261E-04
 gam= 0.611 trial= 0.243  step= 0.401 mean= 0.243
 gam= 0.500 g(H,U,f)=  0.371E-01 0.284E-01 0.301E-05 ort(H,U,f) =-0.266E-01 0.268E-01 0.617E-05
CGA:  48    -0.224378217760E+03   -0.26271E-01   -0.26239E-01  5760   0.655E-01 0.272E-03
 gam= 0.500 trial= 0.250  step= 0.557 mean= 0.250
 gam= 0.951 g(H,U,f)=  0.339E-01 0.283E-01 0.197E-05 ort(H,U,f) =-0.689E-02 0.586E-02-0.509E-06
CGA:  49    -0.224396284107E+03   -0.18066E-01   -0.18282E-01  5760   0.623E-01-0.103E-02
 gam= 0.951 trial= 0.266  step= 0.398 mean= 0.266
 gam= 0.389 g(H,U,f)=  0.136E-01 0.106E-01 0.104E-04 ort(H,U,f) =-0.106E-01 0.112E-01-0.156E-04
CGA:  50    -0.224408528527E+03   -0.12244E-01   -0.12200E-01  5760   0.242E-01 0.585E-03
 gam= 0.389 trial= 0.272  step= 0.505 mean= 0.272
 gam= 1.094 g(H,U,f)=  0.126E-01 0.138E-01 0.813E-05 ort(H,U,f) =-0.307E-02 0.322E-02-0.971E-06
CGA:  51    -0.224414718489E+03   -0.61900E-02   -0.61677E-02  5760   0.265E-01 0.147E-03
 gam= 1.094 trial= 0.284  step= 0.541 mean= 0.284
 gam= 0.707 g(H,U,f)=  0.100E-01 0.871E-02 0.358E-05 ort(H,U,f) =-0.888E-02 0.637E-02-0.291E-05
CGA:  52    -0.224421375338E+03   -0.66568E-02   -0.72084E-02  5760   0.187E-01-0.252E-02
 gam= 0.707 trial= 0.297  step= 0.707 mean= 0.297
 gam= 1.124 g(H,U,f)=  0.118E-01 0.918E-02 0.427E-04 ort(H,U,f) =-0.514E-02 0.545E-02 0.196E-04
CGA:  53    -0.224427429978E+03   -0.60546E-02   -0.59893E-02  5760   0.210E-01 0.332E-03
 gam= 1.124 trial= 0.317  step= 0.520 mean= 0.317
 gam= 0.814 g(H,U,f)=  0.879E-02 0.826E-02 0.793E-04 ort(H,U,f) =-0.356E-02 0.386E-02 0.839E-04
CGA:  54    -0.224432915365E+03   -0.54854E-02   -0.55663E-02  5760   0.171E-01 0.375E-03
 gam= 0.814 trial= 0.328  step= 0.674 mean= 0.328
 gam= 1.259 g(H,U,f)=  0.989E-02 0.117E-01 0.104E-04 ort(H,U,f) =-0.490E-02 0.967E-03 0.535E-04
CGA:  55    -0.224437697803E+03   -0.47824E-02   -0.58787E-02  5760   0.216E-01-0.388E-02
 gam= 1.259 trial= 0.345  step= 0.391 mean= 0.345
 gam= 0.513 g(H,U,f)=  0.671E-02 0.434E-02 0.128E-05 ort(H,U,f) =-0.303E-02 0.404E-02 0.469E-05
CGA:  56    -0.224440985116E+03   -0.32873E-02   -0.32578E-02  5760   0.111E-01 0.101E-02
 gam= 0.513 trial= 0.347  step= 0.371 mean= 0.347
 gam= 0.856 g(H,U,f)=  0.415E-02 0.530E-02 0.332E-05 ort(H,U,f) = 0.536E-04 0.356E-04 0.179E-04
CGA:  57    -0.224443123304E+03   -0.21382E-02   -0.21439E-02  5760   0.946E-02 0.107E-03
 gam= 0.856 trial= 0.348  step= 0.436 mean= 0.348
 gam= 0.866 g(H,U,f)=  0.349E-02 0.468E-02 0.150E-04 ort(H,U,f) =-0.191E-02 0.134E-02 0.425E-04
CGA:  58    -0.224445145926E+03   -0.20226E-02   -0.20804E-02  5760   0.819E-02-0.523E-03
 gam= 0.866 trial= 0.353  step= 0.466 mean= 0.353
 gam= 0.846 g(H,U,f)=  0.366E-02 0.326E-02 0.933E-05 ort(H,U,f) =-0.250E-02 0.269E-02 0.386E-04
CGA:  59    -0.224446959689E+03   -0.18138E-02   -0.18011E-02  5760   0.693E-02 0.234E-03
 gam= 0.846 trial= 0.358  step= 0.424 mean= 0.358
 gam= 1.178 g(H,U,f)=  0.374E-02 0.442E-02 0.130E-05 ort(H,U,f) =-0.171E-02 0.192E-02-0.570E-05
CGA:  60    -0.224448456455E+03   -0.14968E-02   -0.15105E-02  5760   0.816E-02 0.205E-03
 gam= 1.178 trial= 0.362  step= 0.721 mean= 0.362
 gam= 1.597 g(H,U,f)=  0.682E-02 0.618E-02 0.289E-04 ort(H,U,f) =-0.364E-02 0.228E-02-0.736E-04
CGA:  61    -0.224451093777E+03   -0.26373E-02   -0.30283E-02  5760   0.130E-01-0.144E-02
 gam= 1.597 trial= 0.380  step= 0.487 mean= 0.380
 gam= 0.917 g(H,U,f)=  0.736E-02 0.455E-02 0.432E-04 ort(H,U,f) =-0.456E-02 0.496E-02-0.950E-04
CGA:  62    -0.224453715739E+03   -0.26220E-02   -0.26156E-02  5760   0.119E-01 0.313E-03
 gam= 0.917 trial= 0.385  step= 0.472 mean= 0.385
 gam= 1.432 g(H,U,f)=  0.949E-02 0.761E-02 0.193E-04 ort(H,U,f) =-0.263E-02 0.210E-02-0.242E-04
CGA:  63    -0.224456476269E+03   -0.27605E-02   -0.28892E-02  5760   0.171E-01-0.562E-03
 gam= 1.432 trial= 0.389  step= 0.466 mean= 0.389
 gam= 0.996 g(H,U,f)=  0.863E-02 0.840E-02 0.145E-04 ort(H,U,f) =-0.415E-02 0.446E-02-0.383E-05
CGA:  64    -0.224460290563E+03   -0.38143E-02   -0.37995E-02  5760   0.170E-01 0.309E-03
 gam= 0.996 trial= 0.393  step= 0.346 mean= 0.393
 gam= 0.807 g(H,U,f)=  0.772E-02 0.603E-02 0.156E-04 ort(H,U,f) =-0.447E-02 0.446E-02 0.111E-04
CGA:  65    -0.224463299937E+03   -0.30094E-02   -0.29992E-02  5760   0.138E-01 0.653E-05
 gam= 0.807 trial= 0.391  step= 0.359 mean= 0.391
 gam= 0.873 g(H,U,f)=  0.685E-02 0.515E-02 0.785E-05 ort(H,U,f) =-0.194E-02 0.176E-02 0.144E-04
CGA:  66    -0.224465781035E+03   -0.24811E-02   -0.24720E-02  5760   0.120E-01-0.172E-03
 gam= 0.873 trial= 0.389  step= 0.370 mean= 0.389
 gam= 0.830 g(H,U,f)=  0.495E-02 0.491E-02 0.107E-03 ort(H,U,f) =-0.128E-02 0.137E-02 0.333E-04
CGA:  67    -0.224467975054E+03   -0.21940E-02   -0.21946E-02  5760   0.997E-02 0.127E-03
 gam= 0.830 trial= 0.388  step= 0.316 mean= 0.388
 gam= 0.695 g(H,U,f)=  0.403E-02 0.281E-02 0.789E-04 ort(H,U,f) =-0.874E-03 0.964E-03 0.119E-03
CGA:  68    -0.224469570113E+03   -0.15951E-02   -0.15894E-02  5760   0.693E-02 0.210E-03
 gam= 0.695 trial= 0.385  step= 0.350 mean= 0.385
 gam= 0.650 g(H,U,f)=  0.235E-02 0.213E-02 0.140E-04 ort(H,U,f) =-0.263E-03 0.256E-03 0.755E-04
CGA:  69    -0.224470806096E+03   -0.12360E-02   -0.12383E-02  5760   0.450E-02 0.683E-04
 gam= 0.650 trial= 0.383  step= 0.298 mean= 0.383
 gam= 0.614 g(H,U,f)=  0.152E-02 0.125E-02 0.764E-06 ort(H,U,f) =-0.127E-03 0.220E-03 0.588E-05
CGA:  70    -0.224471490125E+03   -0.68403E-03   -0.67782E-03  5760   0.277E-02 0.995E-04
 gam= 0.614 trial= 0.379  step= 0.419 mean= 0.379
 gam= 0.906 g(H,U,f)=  0.119E-02 0.131E-02 0.156E-05 ort(H,U,f) =-0.158E-03 0.113E-03-0.137E-04
CGA:  71    -0.224472081407E+03   -0.59128E-03   -0.59217E-03  5760   0.250E-02-0.587E-04
 gam= 0.906 trial= 0.381  step= 0.377 mean= 0.381
 gam= 0.834 g(H,U,f)=  0.971E-03 0.112E-02 0.840E-06 ort(H,U,f) =-0.263E-03 0.302E-03-0.704E-05
CGA:  72    -0.224472544029E+03   -0.46262E-03   -0.46213E-03  5760   0.209E-02 0.327E-04
 gam= 0.834 trial= 0.381  step= 0.403 mean= 0.381
 gam= 0.730 g(H,U,f)=  0.778E-03 0.744E-03 0.177E-05 ort(H,U,f) =-0.396E-03 0.300E-03 0.238E-05
CGA:  73    -0.224472969009E+03   -0.42498E-03   -0.42633E-03  5760   0.152E-02-0.937E-04
 gam= 0.730 trial= 0.382  step= 0.455 mean= 0.382
 gam= 1.169 g(H,U,f)=  0.791E-03 0.990E-03 0.974E-06 ort(H,U,f) =-0.306E-03 0.287E-03-0.195E-06
CGA:  74    -0.224473292357E+03   -0.32335E-03   -0.33151E-03  5760   0.178E-02-0.191E-04
 gam= 1.169 trial= 0.385  step= 0.401 mean= 0.385
 gam= 0.000 g(H,U,f)=  0.819E-03 0.692E-03 0.331E-05 ort(H,U,f) =-0.444E-03 0.509E-03-0.124E-04
SDA:  75    -0.224473645546E+03   -0.35319E-03   -0.35258E-03  5760   0.151E-02 0.532E-04
 gam= 0.000 trial= 0.386  step= 0.542 mean= 0.386
 gam= 0.611 g(H,U,f)=  0.294E-03 0.629E-03 0.224E-05 ort(H,U,f) =-0.358E-04-0.132E-04 0.262E-05
CGA:  76    -0.224474047301E+03   -0.40176E-03   -0.41049E-03  5760   0.926E-03-0.465E-04
 gam= 0.611 trial= 0.394  step= 0.744 mean= 0.394
 gam= 0.918 g(H,U,f)=  0.364E-03 0.482E-03 0.364E-05 ort(H,U,f) =-0.218E-03 0.227E-03 0.480E-05
CGA:  77    -0.224474383477E+03   -0.33618E-03   -0.33391E-03  5760   0.850E-03 0.137E-04
 gam= 0.918 trial= 0.411  step= 0.855 mean= 0.411
 gam= 1.304 g(H,U,f)=  0.433E-03 0.674E-03 0.562E-06 ort(H,U,f) =-0.205E-03 0.227E-03 0.277E-05
CGA:  78    -0.224474758030E+03   -0.37455E-03   -0.36859E-03  5760   0.111E-02 0.247E-04
 gam= 1.304 trial= 0.434  step= 0.624 mean= 0.434
 gam= 0.954 g(H,U,f)=  0.528E-03 0.526E-03 0.163E-05 ort(H,U,f) =-0.285E-03 0.284E-03-0.757E-05
CGA:  79    -0.224475095593E+03   -0.33756E-03   -0.35549E-03  5760   0.106E-02-0.912E-05
 gam= 0.954 trial= 0.443  step= 0.802 mean= 0.443
 gam= 1.452 g(H,U,f)=  0.637E-03 0.892E-03 0.418E-05 ort(H,U,f) =-0.267E-03 0.718E-04-0.907E-05
CGA:  80    -0.224475449187E+03   -0.35359E-03   -0.42025E-03  5760   0.153E-02-0.204E-03
 gam= 1.452 trial= 0.461  step= 0.546 mean= 0.461
 gam= 0.646 g(H,U,f)=  0.498E-03 0.488E-03 0.425E-05 ort(H,U,f) =-0.265E-03 0.235E-03-0.903E-05
CGA:  81    -0.224475784266E+03   -0.33508E-03   -0.33753E-03  5760   0.990E-03-0.387E-04
 gam= 0.646 trial= 0.465  step= 0.599 mean= 0.465
 gam= 0.715 g(H,U,f)=  0.311E-03 0.394E-03 0.191E-05 ort(H,U,f) =-0.101E-03 0.105E-03-0.120E-05
CGA:  82    -0.224476073393E+03   -0.28913E-03   -0.28911E-03  5760   0.708E-03 0.234E-05
 gam= 0.715 trial= 0.472  step= 0.636 mean= 0.472
 gam= 1.129 g(H,U,f)=  0.282E-03 0.517E-03 0.113E-05 ort(H,U,f) =-0.696E-04 0.769E-04 0.728E-06
CGA:  83    -0.224476298487E+03   -0.22509E-03   -0.22565E-03  5760   0.799E-03 0.803E-05
 gam= 1.129 trial= 0.480  step= 0.476 mean= 0.480
 gam= 0.573 g(H,U,f)=  0.249E-03 0.208E-03 0.143E-05 ort(H,U,f) =-0.155E-03 0.169E-03 0.220E-05
CGA:  84    -0.224476490871E+03   -0.19238E-03   -0.19231E-03  5760   0.458E-03 0.162E-04
 gam= 0.573 trial= 0.480  step= 0.665 mean= 0.480
 gam= 0.891 g(H,U,f)=  0.184E-03 0.224E-03 0.500E-06 ort(H,U,f) =-0.878E-04 0.458E-04 0.150E-05
CGA:  85    -0.224476635376E+03   -0.14450E-03   -0.15539E-03  5760   0.408E-03-0.405E-04
 gam= 0.891 trial= 0.489  step= 0.669 mean= 0.489
 gam= 0.603 g(H,U,f)=  0.140E-03 0.106E-03 0.481E-06 ort(H,U,f) =-0.524E-04 0.455E-04-0.173E-05
CGA:  86    -0.224476759094E+03   -0.12372E-03   -0.12434E-03  5760   0.246E-03-0.859E-05
 gam= 0.603 trial= 0.498  step= 0.718 mean= 0.498
 gam= 0.802 g(H,U,f)=  0.813E-04 0.115E-03 0.100E-05 ort(H,U,f) =-0.382E-04 0.294E-04-0.990E-06
CGA:  87    -0.224476841963E+03   -0.82869E-04   -0.86448E-04  5760   0.197E-03-0.974E-05
 gam= 0.802 trial= 0.509  step= 0.609 mean= 0.509
 gam= 1.214 g(H,U,f)=  0.104E-03 0.135E-03 0.439E-06 ort(H,U,f) =-0.432E-04 0.382E-04 0.131E-06
CGA:  88    -0.224476899053E+03   -0.57091E-04   -0.57674E-04  5760   0.239E-03-0.482E-05
 gam= 1.214 trial= 0.514  step= 0.701 mean= 0.514
 gam= 1.106 g(H,U,f)=  0.121E-03 0.144E-03 0.731E-07 ort(H,U,f) =-0.678E-04 0.673E-04 0.728E-07
CGA:  89    -0.224476980718E+03   -0.81665E-04   -0.81826E-04  5760   0.265E-03-0.397E-06
 gam= 1.106 trial= 0.524  step= 0.596 mean= 0.524
 gam= 0.909 g(H,U,f)=  0.125E-03 0.116E-03 0.139E-06 ort(H,U,f) =-0.781E-04 0.739E-04 0.346E-06
CGA:  90    -0.224477058891E+03   -0.78173E-04   -0.78747E-04  5760   0.241E-03-0.382E-05
 gam= 0.909 trial= 0.527  step= 0.902 mean= 0.527
 gam= 1.323 g(H,U,f)=  0.165E-03 0.153E-03 0.529E-06 ort(H,U,f) =-0.644E-04 0.553E-04 0.749E-06
CGA:  91    -0.224477164046E+03   -0.10515E-03   -0.10692E-03  5760   0.318E-03-0.836E-05
 gam= 1.323 trial= 0.546  step= 0.595 mean= 0.546
 gam= 0.773 g(H,U,f)=  0.135E-03 0.111E-03 0.115E-06 ort(H,U,f) =-0.556E-04 0.693E-04 0.519E-06
CGA:  92    -0.224477255223E+03   -0.91177E-04   -0.91401E-04  5760   0.246E-03 0.143E-04
 gam= 0.773 trial= 0.548  step= 0.606 mean= 0.548
 gam= 1.030 g(H,U,f)=  0.116E-03 0.138E-03 0.111E-06 ort(H,U,f) =-0.431E-04 0.330E-04-0.437E-06
CGA:  93    -0.224477331742E+03   -0.76519E-04   -0.77839E-04  5760   0.253E-03-0.106E-04
 gam= 1.030 trial= 0.551  step= 0.510 mean= 0.551
 gam= 0.728 g(H,U,f)=  0.987E-04 0.853E-04 0.350E-06 ort(H,U,f) =-0.510E-04 0.479E-04-0.526E-06
CGA:  94    -0.224477393719E+03   -0.61977E-04   -0.61844E-04  5760   0.184E-03-0.367E-05
 gam= 0.728 trial= 0.549  step= 0.651 mean= 0.549
 gam= 0.888 g(H,U,f)=  0.739E-04 0.896E-04 0.100E-06 ort(H,U,f) =-0.296E-04 0.310E-04 0.913E-07
CGA:  95    -0.224477452846E+03   -0.59127E-04   -0.59101E-04  5760   0.164E-03 0.152E-05
 gam= 0.888 trial= 0.554  step= 0.486 mean= 0.554
 gam= 0.606 g(H,U,f)=  0.446E-04 0.545E-04 0.335E-07 ort(H,U,f) =-0.256E-04 0.266E-04 0.375E-07
CGA:  96    -0.224477492972E+03   -0.40126E-04   -0.40099E-04  5760   0.991E-04 0.993E-06
 gam= 0.606 trial= 0.551  step= 0.548 mean= 0.551
 gam= 1.188 g(H,U,f)=  0.464E-04 0.713E-04 0.369E-07 ort(H,U,f) =-0.735E-05 0.867E-05 0.154E-07
CGA:  97    -0.224477520270E+03   -0.27298E-04   -0.27291E-04  5760   0.118E-03 0.134E-05
 gam= 1.188 trial= 0.551  step= 0.655 mean= 0.551
 gam= 0.609 g(H,U,f)=  0.429E-04 0.286E-04 0.152E-06 ort(H,U,f) =-0.334E-04 0.296E-04-0.964E-07
CGA:  98    -0.224477558915E+03   -0.38645E-04   -0.39051E-04  5760   0.717E-04-0.397E-05
 gam= 0.609 trial= 0.556  step= 0.686 mean= 0.556
 gam= 1.152 g(H,U,f)=  0.383E-04 0.442E-04 0.552E-08 ort(H,U,f) =-0.103E-04 0.113E-04 0.212E-07
CGA:  99    -0.224477582734E+03   -0.23819E-04   -0.23754E-04  5760   0.825E-04 0.994E-06
 gam= 1.152 trial= 0.562  step= 0.597 mean= 0.562
 gam= 0.776 g(H,U,f)=  0.275E-04 0.360E-04 0.452E-06 ort(H,U,f) =-0.164E-04 0.183E-04-0.174E-06
CGA: 100    -0.224477607650E+03   -0.24916E-04   -0.24985E-04  5760   0.640E-04 0.173E-05
 gam= 0.776 trial= 0.564  step= 0.506 mean= 0.564
 gam= 0.910 g(H,U,f)=  0.297E-04 0.279E-04 0.532E-06 ort(H,U,f) =-0.109E-04 0.785E-05 0.355E-06
CGA: 101    -0.224477624540E+03   -0.16890E-04   -0.16514E-04  5760   0.582E-04-0.271E-05
 gam= 0.910 trial= 0.561  step= 0.637 mean= 0.561
 gam= 0.690 g(H,U,f)=  0.206E-04 0.195E-04 0.382E-07 ort(H,U,f) =-0.931E-05 0.118E-04 0.233E-06
CGA: 102    -0.224477642431E+03   -0.17891E-04   -0.17746E-04  5760   0.402E-04 0.276E-05
 gam= 0.690 trial= 0.565  step= 0.498 mean= 0.565
 gam= 0.793 g(H,U,f)=  0.155E-04 0.164E-04 0.103E-07 ort(H,U,f) =-0.459E-05 0.539E-05 0.781E-07
CGA: 103    -0.224477652882E+03   -0.10451E-04   -0.10480E-04  5760   0.318E-04 0.875E-06
 gam= 0.793 trial= 0.562  step= 0.624 mean= 0.562
 gam= 1.048 g(H,U,f)=  0.135E-04 0.199E-04 0.328E-07 ort(H,U,f) =-0.501E-05 0.495E-05 0.163E-06
CGA: 104    -0.224477663028E+03   -0.10146E-04   -0.10153E-04  5760   0.334E-04 0.101E-06
 gam= 1.048 trial= 0.565  step= 0.492 mean= 0.565
 gam= 0.753 g(H,U,f)=  0.127E-04 0.124E-04 0.363E-07 ort(H,U,f) =-0.818E-05 0.833E-05 0.205E-06
CGA: 105    -0.224477671410E+03   -0.83815E-05   -0.82415E-05  5760   0.251E-04 0.354E-06
 gam= 0.753 trial= 0.561  step= 0.836 mean= 0.561
 gam= 0.000 g(H,U,f)=  0.155E-04 0.166E-04 0.931E-08 ort(H,U,f) =-0.789E-05 0.662E-05-0.233E-07
SDA: 106    -0.224477681741E+03   -0.10332E-04   -0.10605E-04  5760   0.321E-04-0.129E-05
 gam= 0.000 trial= 0.575  step= 0.437 mean= 0.575
 gam= 0.402 g(H,U,f)=  0.437E-05 0.852E-05 0.139E-07 ort(H,U,f) = 0.988E-06-0.103E-05 0.692E-08
CGA: 107    -0.224477688758E+03   -0.70167E-05   -0.70102E-05  5760   0.129E-04-0.327E-07
 gam= 0.402 trial= 0.568  step= 0.951 mean= 0.568
 gam= 1.389 g(H,U,f)=  0.601E-05 0.119E-04 0.485E-08 ort(H,U,f) =-0.311E-05 0.290E-05 0.956E-08
CGA: 108    -0.224477694849E+03   -0.60912E-05   -0.61316E-05  5760   0.179E-04-0.194E-06
 gam= 1.389 trial= 0.587  step= 0.653 mean= 0.587
 gam= 0.812 g(H,U,f)=  0.779E-05 0.677E-05 0.902E-09 ort(H,U,f) =-0.582E-05 0.571E-05-0.514E-08
CGA: 109    -0.224477700605E+03   -0.57554E-05   -0.57681E-05  5760   0.146E-04-0.108E-06
 gam= 0.812 trial= 0.590  step= 1.154 mean= 0.590
 gam= 1.596 g(H,U,f)=  0.997E-05 0.132E-04 0.795E-07 ort(H,U,f) =-0.352E-05 0.377E-05-0.451E-07
CGA: 110    -0.224477709033E+03   -0.84282E-05   -0.83534E-05  5760   0.232E-04 0.206E-06
 gam= 1.596 trial= 0.619  step= 0.629 mean= 0.619
 gam= 0.833 g(H,U,f)=  0.102E-04 0.906E-05 0.115E-06 ort(H,U,f) =-0.605E-05 0.635E-05 0.713E-08
CGA: 111    -0.224477716447E+03   -0.74143E-05   -0.74145E-05  5760   0.194E-04 0.304E-06
 gam= 0.833 trial= 0.619  step= 0.834 mean= 0.619
 gam= 1.734 g(H,U,f)=  0.120E-04 0.215E-04 0.346E-07 ort(H,U,f) =-0.322E-05 0.464E-05 0.508E-07
CGA: 112    -0.224477724142E+03   -0.76950E-05   -0.81790E-05  5760   0.336E-04 0.147E-05
 gam= 1.734 trial= 0.630  step= 0.547 mean= 0.630
 gam= 0.805 g(H,U,f)=  0.148E-04 0.122E-04 0.156E-07 ort(H,U,f) =-0.950E-05 0.842E-05 0.614E-07
CGA: 113    -0.224477734177E+03   -0.10035E-04   -0.98821E-05  5760   0.270E-04-0.101E-05
 gam= 0.805 trial= 0.626  step= 0.913 mean= 0.626
 gam= 0.819 g(H,U,f)=  0.136E-04 0.849E-05 0.125E-07 ort(H,U,f) =-0.704E-05 0.808E-05 0.749E-07
CGA: 114    -0.224477746277E+03   -0.12099E-04   -0.11951E-04  5760   0.221E-04 0.112E-05
 gam= 0.819 trial= 0.640  step= 0.795 mean= 0.640
 gam= 1.060 g(H,U,f)=  0.944E-05 0.140E-04 0.174E-07 ort(H,U,f) =-0.403E-05 0.373E-05 0.810E-07
CGA: 115    -0.224477755398E+03   -0.91216E-05   -0.91569E-05  5760   0.235E-04-0.217E-06
 gam= 1.060 trial= 0.648  step= 0.625 mean= 0.648
 gam= 1.049 g(H,U,f)=  0.102E-04 0.144E-04 0.432E-08 ort(H,U,f) =-0.509E-05 0.485E-05 0.459E-07
CGA: 116    -0.224477762662E+03   -0.72639E-05   -0.72607E-05  5760   0.246E-04-0.194E-06
 gam= 1.049 trial= 0.647  step= 0.686 mean= 0.647
 gam= 1.151 g(H,U,f)=  0.129E-04 0.154E-04 0.266E-07 ort(H,U,f) =-0.483E-05 0.564E-05-0.975E-07
CGA: 117    -0.224477771014E+03   -0.83517E-05   -0.83733E-05  5760   0.283E-04 0.712E-06
 gam= 1.151 trial= 0.649  step= 0.789 mean= 0.649
 gam= 1.265 g(H,U,f)=  0.168E-04 0.191E-04 0.361E-07 ort(H,U,f) =-0.102E-04 0.818E-05-0.544E-07
CGA: 118    -0.224477781925E+03   -0.10911E-04   -0.11500E-04  5760   0.359E-04-0.205E-05
 gam= 1.265 trial= 0.656  step= 0.589 mean= 0.656
 gam= 0.982 g(H,U,f)=  0.183E-04 0.169E-04 0.226E-07 ort(H,U,f) =-0.928E-05 0.788E-05 0.785E-07
CGA: 119    -0.224477791815E+03   -0.98900E-05   -0.97963E-05  5760   0.352E-04-0.132E-05
 gam= 0.982 trial= 0.652  step= 0.811 mean= 0.652
 gam= 0.982 g(H,U,f)=  0.188E-04 0.158E-04 0.178E-07 ort(H,U,f) =-0.774E-05 0.833E-05 0.106E-06
CGA: 120    -0.224477805615E+03   -0.13800E-04   -0.13750E-04  5760   0.346E-04 0.692E-06
 gam= 0.982 trial= 0.660  step= 0.582 mean= 0.660
 gam= 0.852 g(H,U,f)=  0.167E-04 0.127E-04 0.187E-07 ort(H,U,f) =-0.533E-05 0.606E-05 0.119E-06
CGA: 121    -0.224477815850E+03   -0.10236E-04   -0.10253E-04  5760   0.294E-04 0.844E-06
 gam= 0.852 trial= 0.656  step= 0.613 mean= 0.656
 gam= 0.846 g(H,U,f)=  0.109E-04 0.140E-04 0.942E-08 ort(H,U,f) =-0.376E-05 0.438E-05-0.175E-07
CGA: 122    -0.224477825076E+03   -0.92253E-05   -0.92376E-05  5760   0.249E-04 0.599E-06
 gam= 0.846 trial= 0.654  step= 0.542 mean= 0.654
 gam= 0.795 g(H,U,f)=  0.842E-05 0.114E-04 0.502E-08 ort(H,U,f) =-0.403E-05 0.503E-05 0.217E-07
CGA: 123    -0.224477832003E+03   -0.69270E-05   -0.68924E-05  5760   0.198E-04 0.102E-05
 gam= 0.795 trial= 0.649  step= 0.572 mean= 0.649
 gam= 0.873 g(H,U,f)=  0.732E-05 0.990E-05 0.477E-07 ort(H,U,f) =-0.447E-05 0.502E-05 0.142E-06
CGA: 124    -0.224477837908E+03   -0.59054E-05   -0.58972E-05  5760   0.173E-04 0.689E-06
 gam= 0.873 trial= 0.645  step= 0.774 mean= 0.645
 gam= 1.351 g(H,U,f)=  0.101E-04 0.131E-04 0.162E-06 ort(H,U,f) =-0.429E-05 0.420E-05 0.309E-06
CGA: 125    -0.224477844815E+03   -0.69072E-05   -0.69137E-05  5760   0.233E-04 0.217E-06
 gam= 1.351 trial= 0.651  step= 0.790 mean= 0.651
 gam= 1.008 g(H,U,f)=  0.115E-04 0.120E-04 0.167E-07 ort(H,U,f) =-0.694E-05 0.738E-05 0.174E-06
CGA: 126    -0.224477854220E+03   -0.94049E-05   -0.93333E-05  5760   0.235E-04 0.619E-06
 gam= 1.008 trial= 0.658  step= 0.604 mean= 0.658
 gam= 0.908 g(H,U,f)=  0.117E-04 0.964E-05 0.273E-07 ort(H,U,f) =-0.567E-05 0.594E-05-0.268E-06
CGA: 127    -0.224477861499E+03   -0.72783E-05   -0.72896E-05  5760   0.214E-04 0.120E-08
 gam= 0.908 trial= 0.655  step= 0.998 mean= 0.655
 gam= 1.646 g(H,U,f)=  0.155E-04 0.196E-04 0.510E-07 ort(H,U,f) =-0.616E-05 0.523E-05-0.282E-06
CGA: 128    -0.224477871898E+03   -0.10400E-04   -0.10652E-04  5760   0.352E-04-0.121E-05
 gam= 1.646 trial= 0.673  step= 0.484 mean= 0.673
 gam= 0.678 g(H,U,f)=  0.130E-04 0.108E-04 0.267E-07 ort(H,U,f) =-0.863E-05 0.869E-05-0.309E-06
CGA: 129    -0.224477880415E+03   -0.85174E-05   -0.80183E-05  5760   0.238E-04-0.249E-06
 gam= 0.678 trial= 0.663  step= 0.704 mean= 0.663
 gam= 1.316 g(H,U,f)=  0.157E-04 0.157E-04 0.523E-08 ort(H,U,f) =-0.453E-05 0.315E-05-0.217E-07
CGA: 130    -0.224477888680E+03   -0.82643E-05   -0.83320E-05  5760   0.314E-04-0.141E-05
 gam= 1.316 trial= 0.665  step= 0.646 mean= 0.665
 gam= 0.670 g(H,U,f)=  0.119E-04 0.905E-05 0.974E-08 ort(H,U,f) =-0.619E-05 0.631E-05-0.127E-06
CGA: 131    -0.224477898214E+03   -0.95343E-05   -0.95353E-05  5760   0.210E-04-0.147E-07
 gam= 0.670 trial= 0.664  step= 0.490 mean= 0.664
 gam= 0.811 g(H,U,f)=  0.936E-05 0.763E-05 0.386E-07 ort(H,U,f) =-0.192E-05 0.161E-05-0.138E-06
CGA: 132    -0.224477903399E+03   -0.51845E-05   -0.51410E-05  5760   0.170E-04-0.444E-06
 gam= 0.811 trial= 0.656  step= 0.634 mean= 0.656
 gam= 0.728 g(H,U,f)=  0.675E-05 0.563E-05 0.360E-08 ort(H,U,f) =-0.292E-05 0.280E-05-0.193E-07
CGA: 133    -0.224477908686E+03   -0.52879E-05   -0.52836E-05  5760   0.124E-04-0.138E-06
 gam= 0.728 trial= 0.654  step= 0.464 mean= 0.654
 gam= 0.818 g(H,U,f)=  0.479E-05 0.534E-05 0.469E-08 ort(H,U,f) =-0.115E-05 0.197E-05 0.229E-07
CGA: 134    -0.224477911501E+03   -0.28149E-05   -0.28512E-05  5760   0.101E-04 0.835E-06
 gam= 0.818 trial= 0.645  step= 0.601 mean= 0.645
 gam= 0.819 g(H,U,f)=  0.403E-05 0.425E-05 0.174E-07 ort(H,U,f) =-0.248E-05 0.287E-05 0.474E-07
CGA: 135    -0.224477914749E+03   -0.32471E-05   -0.32471E-05  5760   0.830E-05 0.434E-06
 gam= 0.819 trial= 0.643  step= 0.788 mean= 0.643
 gam= 1.319 g(H,U,f)=  0.621E-05 0.473E-05 0.971E-08 ort(H,U,f) =-0.330E-05 0.293E-05 0.402E-07
CGA: 136    -0.224477918137E+03   -0.33884E-05   -0.34121E-05  5760   0.109E-04-0.330E-06
 gam= 1.319 trial= 0.650  step= 0.800 mean= 0.650
 gam= 0.000 g(H,U,f)=  0.672E-05 0.582E-05 0.764E-08 ort(H,U,f) =-0.389E-05 0.459E-05 0.492E-07
SDA: 137    -0.224477922392E+03   -0.42554E-05   -0.42054E-05  5760   0.125E-04 0.757E-06
 gam= 0.000 trial= 0.658  step= 0.388 mean= 0.658
 gam= 0.517 g(H,U,f)=  0.255E-05 0.393E-05 0.143E-07 ort(H,U,f) = 0.156E-05-0.131E-05 0.985E-08
CGA: 138    -0.224477924849E+03   -0.24566E-05   -0.24314E-05  5760   0.649E-05 0.264E-06
 gam= 0.517 trial= 0.644  step= 0.659 mean= 0.644
 gam= 0.896 g(H,U,f)=  0.207E-05 0.372E-05 0.204E-07 ort(H,U,f) =-0.684E-06 0.579E-06 0.226E-07
CGA: 139    -0.224477927029E+03   -0.21804E-05   -0.21836E-05  5760   0.582E-05-0.826E-07
 gam= 0.896 trial= 0.645  step= 0.555 mean= 0.645
 gam= 0.797 g(H,U,f)=  0.217E-05 0.245E-05 0.843E-08 ort(H,U,f) =-0.149E-05 0.131E-05 0.255E-07
CGA: 140    -0.224477928656E+03   -0.16271E-05   -0.15925E-05  5760   0.464E-05-0.158E-06
 gam= 0.797 trial= 0.640  step= 0.623 mean= 0.640
 gam= 1.056 g(H,U,f)=  0.215E-05 0.275E-05 0.220E-08 ort(H,U,f) =-0.116E-05 0.111E-05-0.138E-07
CGA: 141    -0.224477930067E+03   -0.14105E-05   -0.14055E-05  5760   0.490E-05-0.700E-07
 gam= 1.056 trial= 0.639  step= 0.818 mean= 0.639
 gam= 0.901 g(H,U,f)=  0.238E-05 0.203E-05 0.589E-08 ort(H,U,f) =-0.162E-05 0.140E-05-0.212E-07
CGA: 142    -0.224477931999E+03   -0.19323E-05   -0.19717E-05  5760   0.441E-05-0.234E-06
 gam= 0.901 trial= 0.648  step= 0.851 mean= 0.648
 gam= 1.136 g(H,U,f)=  0.251E-05 0.250E-05 0.203E-08 ort(H,U,f) =-0.104E-05 0.960E-06-0.841E-08
CGA: 143    -0.224477933774E+03   -0.17752E-05   -0.17885E-05  5760   0.501E-05-0.837E-07
 gam= 1.136 trial= 0.658  step= 0.734 mean= 0.658
 gam= 0.858 g(H,U,f)=  0.210E-05 0.220E-05 0.247E-08 ort(H,U,f) =-0.787E-06 0.113E-05-0.758E-08
CGA: 144    -0.224477935586E+03   -0.18114E-05   -0.18029E-05  5760   0.430E-05 0.338E-06
 gam= 0.858 trial= 0.662  step= 0.583 mean= 0.662
 gam= 0.873 g(H,U,f)=  0.153E-05 0.222E-05 0.888E-08 ort(H,U,f) =-0.345E-06 0.807E-06-0.817E-08
CGA: 145    -0.224477936930E+03   -0.13441E-05   -0.13395E-05  5760   0.376E-05 0.454E-06
 gam= 0.873 trial= 0.658  step= 0.567 mean= 0.658
 gam= 0.811 g(H,U,f)=  0.150E-05 0.154E-05 0.565E-08 ort(H,U,f) =-0.586E-06 0.616E-06 0.613E-09
CGA: 146    -0.224477938131E+03   -0.12011E-05   -0.11765E-05  5760   0.305E-05 0.305E-07
 gam= 0.811 trial= 0.654  step= 0.640 mean= 0.654
 gam= 0.716 g(H,U,f)=  0.122E-05 0.960E-06 0.109E-08 ort(H,U,f) =-0.525E-06 0.670E-06 0.272E-08
CGA: 147    -0.224477939114E+03   -0.98289E-06   -0.98311E-06  5760   0.218E-05 0.148E-06
 gam= 0.716 trial= 0.653  step= 0.626 mean= 0.653
 final diagonalization
   1 F= -.23351466E+03 E0= -.23351393E+03  d E =-.146366E-02  mag=     6.0000
