 running on   64 total cores
 distrk:  each k-point on   64 cores,    1 groups
 distr:  one band on    4 cores,   16 groups
 using from now: INCAR     
 vasp.5.4.4.18Apr17-6-g9f103f2a35 (build Nov 22 2021 14:44:17) complex          
  
 POSCAR found type information on POSCAR  Li Co O 
 POSCAR found :  3 types and      42 ions
 scaLAPACK will be used
 LDA part: xc-table for Pade appr. of Perdew
 generate k-points for:    6    6    2
 POSCAR, INCAR and KPOINTS ok, starting setup
 FFT: planning ...
 WAVECAR not read
 entering main loop
       N       E                     dE             d eps       ncg     rms          ort
DAV:   1     0.346631011703E+04    0.34663E+04   -0.13909E+05  5760   0.214E+03
DAV:   2     0.420583626520E+03   -0.30457E+04   -0.28060E+04  5760   0.521E+02
DAV:   3    -0.217937576476E+03   -0.63852E+03   -0.58892E+03  5760   0.253E+02
DAV:   4    -0.269490222439E+03   -0.51553E+02   -0.50356E+02  5760   0.739E+01
DAV:   5    -0.271365407225E+03   -0.18752E+01   -0.18715E+01  5760   0.142E+01
 gam= 0.000 g(H,U,f)=  0.188E+04 0.789E+03 0.333E+04 ort(H,U,f) = 0.000E+00 0.000E+00 0.000E+00
SDA:   6     0.154184724358E+03    0.42555E+03   -0.18715E+01  5760   0.600E+04 0.000E+00
 gam= 0.000 trial= 0.400  step= 0.082 mean= 0.400
 gam= 0.000 g(H,U,f)=  0.136E+04 0.122E+05 0.215E+05 ort(H,U,f) = 0.582E+03-0.416E+04-0.895E+04
CGA:   7     0.202665958008E+03    0.48481E+02   -0.24494E+03  5760   0.350E+05-0.125E+05
 gam= 0.000 trial= 0.384  step= 0.109 mean= 0.384
 gam= 0.000 g(H,U,f)=  0.648E+04 0.238E+05 0.240E+06 ort(H,U,f) =-0.231E+04-0.533E+04-0.641E+05
CGA:   8     0.294787183757E+04    0.27452E+04   -0.19019E+04  5760   0.270E+06-0.717E+05
 gam= 0.000 trial= 0.370  step= 0.168 mean= 0.370
 gam= 1.054 g(H,U,f)=  0.185E+05 0.185E+06 0.815E+05 ort(H,U,f) =-0.853E+04-0.664E+05-0.291E+05
CGA:   9     0.763830484283E+04    0.46904E+04   -0.22734E+05  5760   0.285E+06-0.104E+06
 gam= 1.054 trial= 0.360  step= 0.167 mean= 0.360
 gam= 0.973 g(H,U,f)=  0.330E+05 0.164E+06 0.798E+05 ort(H,U,f) =-0.581E+04-0.867E+05-0.431E+05
CGA:  10     0.979458327843E+04    0.21563E+04   -0.14612E+05  5760   0.277E+06-0.136E+06
 gam= 0.973 trial= 0.351  step= 0.168 mean= 0.351
 gam= 1.053 g(H,U,f)=  0.665E+05 0.204E+06 0.217E+05 ort(H,U,f) =-0.762E+04-0.110E+06-0.105E+05
CGA:  11     0.861470655218E+04   -0.11799E+04   -0.12181E+05  5760   0.292E+06-0.128E+06
 gam= 1.053 trial= 0.341  step= 0.168 mean= 0.341
 gam= 0.694 g(H,U,f)=  0.105E+06 0.941E+05 0.365E+04 ort(H,U,f) =-0.339E+04-0.338E+05-0.190E+04
CGA:  12     0.745138599910E+04   -0.11633E+04   -0.13184E+05  5760   0.203E+06-0.391E+05
 gam= 0.694 trial= 0.333  step= 0.164 mean= 0.333
 gam= 0.177 g(H,U,f)=  0.190E+05 0.166E+05 0.419E+03 ort(H,U,f) =-0.547E+04 0.174E+04 0.433E+03
CGA:  13     0.210013427951E+04   -0.53513E+04   -0.14423E+05  5760   0.360E+05-0.330E+04
 gam= 0.177 trial= 0.324  step= 0.095 mean= 0.324
 gam= 0.000 g(H,U,f)=  0.159E+05 0.141E+05 0.310E+03 ort(H,U,f) =-0.773E+04-0.160E+05-0.397E+03
CGA:  14     0.170820528325E+04   -0.39193E+03   -0.16797E+04  5760   0.304E+05-0.241E+05
 gam= 0.000 trial= 0.313  step= 0.092 mean= 0.313
 gam= 0.473 g(H,U,f)=  0.680E+04 0.737E+04 0.193E+03 ort(H,U,f) =-0.643E+04-0.836E+04-0.227E+03
CGA:  15     0.135981906210E+04   -0.34839E+03   -0.13943E+04  5760   0.144E+05-0.150E+05
 gam= 0.473 trial= 0.302  step= 0.150 mean= 0.302
 gam= 0.212 g(H,U,f)=  0.168E+04 0.134E+04 0.172E+02 ort(H,U,f) = 0.112E+04-0.655E+03-0.220E+02
CGA:  16     0.749795191234E+03   -0.61002E+03   -0.54335E+03  5760   0.304E+04 0.446E+03
 gam= 0.212 trial= 0.294  step= 0.102 mean= 0.294
 gam= 0.792 g(H,U,f)=  0.119E+04 0.120E+04 0.191E+02 ort(H,U,f) = 0.338E+03-0.494E+03-0.116E+02
CGA:  17     0.607690300857E+03   -0.14210E+03   -0.15951E+03  5760   0.241E+04-0.168E+03
 gam= 0.792 trial= 0.285  step= 0.283 mean= 0.285
 gam= 1.706 g(H,U,f)=  0.108E+04 0.298E+04 0.501E+02 ort(H,U,f) = 0.343E+03-0.349E+03-0.127E+02
CGA:  18     0.285176313236E+03   -0.32251E+03   -0.32248E+03  5760   0.411E+04-0.190E+02
 gam= 1.706 trial= 0.285  step= 0.090 mean= 0.285
 gam= 0.438 g(H,U,f)=  0.534E+03 0.122E+04 0.465E+02 ort(H,U,f) = 0.111E+03-0.606E+03-0.379E+02
CGA:  19     0.153201011386E+03   -0.13198E+03   -0.18296E+03  5760   0.180E+04-0.533E+03
 gam= 0.438 trial= 0.275  step= 0.136 mean= 0.275
 gam= 0.626 g(H,U,f)=  0.364E+03 0.736E+03 0.261E+02 ort(H,U,f) = 0.468E+02-0.152E+03-0.154E+02
CGA:  20     0.622714663204E+02   -0.90930E+02   -0.10627E+03  5760   0.113E+04-0.121E+03
 gam= 0.626 trial= 0.268  step= 0.126 mean= 0.268
 gam= 0.724 g(H,U,f)=  0.205E+03 0.584E+03 0.268E+02 ort(H,U,f) = 0.970E+02-0.103E+03-0.171E+02
CGA:  21    -0.124915284095E+01   -0.63521E+02   -0.66320E+02  5760   0.816E+03-0.229E+02
 gam= 0.724 trial= 0.261  step= 0.156 mean= 0.261
 gam= 1.042 g(H,U,f)=  0.208E+03 0.620E+03 0.212E+02 ort(H,U,f) = 0.766E+02-0.103E+03-0.104E+02
CGA:  22    -0.533272954502E+02   -0.52078E+02   -0.62249E+02  5760   0.850E+03-0.365E+02
 gam= 1.042 trial= 0.256  step= 0.112 mean= 0.256
 gam= 0.310 g(H,U,f)=  0.940E+02 0.164E+03 0.507E+01 ort(H,U,f) = 0.390E+02-0.730E+02-0.123E+01
CGA:  23    -0.982776759972E+02   -0.44950E+02   -0.45337E+02  5760   0.263E+03-0.352E+02
 gam= 0.310 trial= 0.248  step= 0.184 mean= 0.248
 gam= 1.112 g(H,U,f)=  0.769E+02 0.206E+03 0.935E+01 ort(H,U,f) = 0.477E+02-0.496E+02-0.425E+01
CGA:  24    -0.121329469750E+03   -0.23052E+02   -0.23223E+02  5760   0.293E+03-0.622E+01
 gam= 1.112 trial= 0.245  step= 0.176 mean= 0.245
 gam= 0.694 g(H,U,f)=  0.458E+02 0.144E+03 0.133E+02 ort(H,U,f) = 0.228E+02-0.284E+02-0.323E+01
CGA:  25    -0.146397156549E+03   -0.25068E+02   -0.25118E+02  5760   0.203E+03-0.883E+01
 gam= 0.694 trial= 0.242  step= 0.155 mean= 0.242
 gam= 0.660 g(H,U,f)=  0.376E+02 0.937E+02 0.273E+01 ort(H,U,f) = 0.104E+02-0.167E+02-0.297E+00
CGA:  26    -0.161100651765E+03   -0.14703E+02   -0.15241E+02  5760   0.134E+03-0.657E+01
 gam= 0.660 trial= 0.237  step= 0.206 mean= 0.237
 gam= 0.885 g(H,U,f)=  0.282E+02 0.889E+02 0.141E+01 ort(H,U,f) = 0.141E+01-0.583E+01-0.120E+00
CGA:  27    -0.174483540705E+03   -0.13383E+02   -0.13329E+02  5760   0.119E+03-0.454E+01
 gam= 0.885 trial= 0.236  step= 0.199 mean= 0.236
 gam= 0.618 g(H,U,f)=  0.202E+02 0.517E+02 0.130E+01 ort(H,U,f) =-0.813E+01 0.542E+01-0.476E+00
CGA:  28    -0.185749410129E+03   -0.11266E+02   -0.11416E+02  5760   0.732E+02-0.318E+01
 gam= 0.618 trial= 0.234  step= 0.197 mean= 0.234
 gam= 0.939 g(H,U,f)=  0.199E+02 0.474E+02 0.155E+01 ort(H,U,f) =-0.232E+01-0.870E+00-0.111E+00
CGA:  29    -0.192791329873E+03   -0.70419E+01   -0.70193E+01  5760   0.688E+02-0.330E+01
 gam= 0.939 trial= 0.232  step= 0.228 mean= 0.232
 gam= 0.847 g(H,U,f)=  0.191E+02 0.366E+02 0.250E+01 ort(H,U,f) =-0.370E+01 0.217E+01-0.659E-01
CGA:  30    -0.200275698088E+03   -0.74844E+01   -0.74878E+01  5760   0.583E+02-0.160E+01
 gam= 0.847 trial= 0.232  step= 0.179 mean= 0.232
 gam= 0.542 g(H,U,f)=  0.138E+02 0.169E+02 0.756E+00 ort(H,U,f) =-0.216E+00-0.186E+01-0.627E+00
CGA:  31    -0.205506430863E+03   -0.52307E+01   -0.51056E+01  5760   0.315E+02-0.270E+01
 gam= 0.542 trial= 0.229  step= 0.266 mean= 0.229
 gam= 0.933 g(H,U,f)=  0.112E+02 0.165E+02 0.180E+01 ort(H,U,f) = 0.120E+01-0.543E+01 0.789E+00
CGA:  32    -0.209391870680E+03   -0.38854E+01   -0.40045E+01  5760   0.294E+02-0.344E+01
 gam= 0.933 trial= 0.231  step= 0.201 mean= 0.231
 gam= 0.654 g(H,U,f)=  0.721E+01 0.110E+02 0.106E+01 ort(H,U,f) = 0.167E+01-0.328E+00 0.310E+00
CGA:  33    -0.212027475917E+03   -0.26356E+01   -0.26386E+01  5760   0.193E+02 0.165E+01
 gam= 0.654 trial= 0.230  step= 0.138 mean= 0.230
 gam= 0.886 g(H,U,f)=  0.491E+01 0.109E+02 0.125E+01 ort(H,U,f) = 0.264E+01-0.153E+01-0.253E+00
CGA:  34    -0.213395992980E+03   -0.13685E+01   -0.14082E+01  5760   0.171E+02 0.849E+00
 gam= 0.886 trial= 0.225  step= 0.163 mean= 0.225
 gam= 0.889 g(H,U,f)=  0.463E+01 0.963E+01 0.917E+00 ort(H,U,f) = 0.100E+01 0.779E-01 0.616E+00
CGA:  35    -0.214844881263E+03   -0.14489E+01   -0.14562E+01  5760   0.152E+02 0.170E+01
 gam= 0.889 trial= 0.222  step= 0.193 mean= 0.222
 gam= 0.556 g(H,U,f)=  0.329E+01 0.496E+01 0.197E+00 ort(H,U,f) =-0.883E+00 0.302E+01 0.192E-01
CGA:  36    -0.216406042116E+03   -0.15612E+01   -0.16120E+01  5760   0.844E+01 0.215E+01
 gam= 0.556 trial= 0.221  step= 0.197 mean= 0.221
 gam= 0.982 g(H,U,f)=  0.244E+01 0.506E+01 0.800E+00 ort(H,U,f) =-0.424E+00 0.135E+01-0.202E+00
CGA:  37    -0.217344678618E+03   -0.93864E+00   -0.94765E+00  5760   0.829E+01 0.725E+00
 gam= 0.982 trial= 0.219  step= 0.178 mean= 0.219
 gam= 0.933 g(H,U,f)=  0.273E+01 0.470E+01 0.307E+00 ort(H,U,f) =-0.649E+00 0.155E+01-0.123E+00
CGA:  38    -0.218122171072E+03   -0.77749E+00   -0.79935E+00  5760   0.774E+01 0.774E+00
 gam= 0.933 trial= 0.217  step= 0.214 mean= 0.217
 gam= 0.541 g(H,U,f)=  0.190E+01 0.222E+01 0.602E-01 ort(H,U,f) =-0.880E+00 0.175E+01-0.672E-01
CGA:  39    -0.219025598986E+03   -0.90343E+00   -0.90481E+00  5760   0.418E+01 0.806E+00
 gam= 0.541 trial= 0.217  step= 0.255 mean= 0.217
 gam= 0.859 g(H,U,f)=  0.161E+01 0.190E+01 0.774E-01 ort(H,U,f) =-0.239E+00 0.737E+00 0.242E-01
CGA:  40    -0.219625357284E+03   -0.59976E+00   -0.58959E+00  5760   0.359E+01 0.521E+00
 gam= 0.859 trial= 0.219  step= 0.283 mean= 0.219
 gam= 0.822 g(H,U,f)=  0.123E+01 0.169E+01 0.317E-01 ort(H,U,f) =-0.148E+00 0.552E+00 0.404E-02
CGA:  41    -0.220211101217E+03   -0.58574E+00   -0.57270E+00  5760   0.295E+01 0.408E+00
 gam= 0.822 trial= 0.222  step= 0.238 mean= 0.222
 gam= 0.759 g(H,U,f)=  0.923E+00 0.130E+01 0.167E-01 ort(H,U,f) =-0.179E+00 0.504E+00 0.107E-01
CGA:  42    -0.220605774439E+03   -0.39467E+00   -0.39150E+00  5760   0.224E+01 0.335E+00
 gam= 0.759 trial= 0.223  step= 0.287 mean= 0.223
 gam= 0.851 g(H,U,f)=  0.790E+00 0.111E+01 0.109E-01 ort(H,U,f) =-0.262E+00 0.504E+00 0.178E-01
CGA:  43    -0.220973596131E+03   -0.36782E+00   -0.35800E+00  5760   0.191E+01 0.260E+00
 gam= 0.851 trial= 0.226  step= 0.280 mean= 0.226
 gam= 0.805 g(H,U,f)=  0.621E+00 0.875E+00 0.401E-01 ort(H,U,f) =-0.286E+00 0.443E+00-0.203E-01
CGA:  44    -0.221276149889E+03   -0.30255E+00   -0.29798E+00  5760   0.154E+01 0.136E+00
 gam= 0.805 trial= 0.229  step= 0.293 mean= 0.229
 gam= 0.000 g(H,U,f)=  0.539E+00 0.769E+00 0.291E-01 ort(H,U,f) =-0.229E+00 0.298E+00-0.762E-02
SDA:  45    -0.221520097410E+03   -0.24395E+00   -0.24119E+00  5760   0.134E+01 0.608E-01
 gam= 0.000 trial= 0.232  step= 0.474 mean= 0.232
 gam= 1.328 g(H,U,f)=  0.535E+00 0.959E+00 0.280E+00 ort(H,U,f) =-0.280E-01 0.189E+00-0.832E-01
CGA:  46    -0.221846800913E+03   -0.32670E+00   -0.31670E+00  5760   0.177E+01 0.777E-01
 gam= 1.328 trial= 0.244  step= 0.372 mean= 0.244
 gam= 1.137 g(H,U,f)=  0.463E+00 0.735E+00 0.820E+00 ort(H,U,f) =-0.285E+00 0.460E+00-0.322E+00
CGA:  47    -0.222184175651E+03   -0.33737E+00   -0.34925E+00  5760   0.202E+01-0.146E+00
 gam= 1.137 trial= 0.251  step= 0.181 mean= 0.251
 gam= 0.255 g(H,U,f)=  0.335E+00 0.165E+00 0.153E-01 ort(H,U,f) =-0.462E+00 0.519E+00-0.496E-01
CGA:  48    -0.222356617541E+03   -0.17244E+00   -0.16804E+00  5760   0.516E+00 0.775E-02
 gam= 0.255 trial= 0.247  step= 0.594 mean= 0.247
 gam= 1.657 g(H,U,f)=  0.270E+00 0.287E+00 0.297E+00 ort(H,U,f) =-0.403E-01 0.943E-01-0.601E-01
CGA:  49    -0.222508939234E+03   -0.15232E+00   -0.15368E+00  5760   0.854E+00-0.615E-02
 gam= 1.657 trial= 0.264  step= 0.159 mean= 0.264
 gam= 0.602 g(H,U,f)=  0.188E+00 0.175E+00 0.151E+00 ort(H,U,f) =-0.672E-01 0.183E+00-0.120E+00
CGA:  50    -0.222574423133E+03   -0.65484E-01   -0.67030E-01  5760   0.514E+00-0.449E-02
 gam= 0.602 trial= 0.259  step= 0.253 mean= 0.259
 gam= 0.568 g(H,U,f)=  0.126E+00 0.156E+00 0.101E-01 ort(H,U,f) =-0.636E-01 0.679E-01-0.220E-01
CGA:  51    -0.222639231626E+03   -0.64808E-01   -0.64690E-01  5760   0.292E+00-0.177E-01
 gam= 0.568 trial= 0.259  step= 0.635 mean= 0.259
 gam= 1.444 g(H,U,f)=  0.177E+00 0.234E+00 0.109E-01 ort(H,U,f) =-0.973E-01 0.929E-01-0.177E-01
CGA:  52    -0.222729365112E+03   -0.90133E-01   -0.89615E-01  5760   0.422E+00-0.221E-01
 gam= 1.444 trial= 0.278  step= 0.627 mean= 0.278
 gam= 0.000 g(H,U,f)=  0.455E+00 0.597E+00 0.137E+01 ort(H,U,f) =-0.181E+00-0.102E+00-0.837E+00
CGA:  53    -0.222792189726E+03   -0.62825E-01   -0.12224E+00  5760   0.242E+01-0.112E+01
 gam= 0.000 trial= 0.295  step= 0.172 mean= 0.295
 gam= 0.236 g(H,U,f)=  0.163E+00 0.201E+00 0.205E+00 ort(H,U,f) = 0.137E+00 0.902E-01-0.967E-01
CGA:  54    -0.222902349885E+03   -0.11016E+00   -0.20851E+00  5760   0.570E+00 0.130E+00
 gam= 0.236 trial= 0.289  step= 0.121 mean= 0.289
 gam= 0.560 g(H,U,f)=  0.783E-01 0.130E+00 0.111E+00 ort(H,U,f) = 0.859E-01 0.110E+00-0.160E+00
CGA:  55    -0.222943723691E+03   -0.41374E-01   -0.36251E-01  5760   0.319E+00 0.367E-01
 gam= 0.560 trial= 0.281  step= 0.506 mean= 0.281
 gam= 1.124 g(H,U,f)=  0.130E+00 0.170E+00 0.576E-01 ort(H,U,f) =-0.910E-01 0.882E-01 0.141E-01
CGA:  56    -0.223028164865E+03   -0.84441E-01   -0.85859E-01  5760   0.358E+00 0.112E-01
 gam= 1.124 trial= 0.292  step= 0.318 mean= 0.292
 gam= 0.489 g(H,U,f)=  0.109E+00 0.534E-01 0.126E-01 ort(H,U,f) =-0.817E-01 0.165E+00-0.150E-01
CGA:  57    -0.223089168228E+03   -0.61003E-01   -0.58950E-01  5760   0.175E+00 0.680E-01
 gam= 0.489 trial= 0.293  step= 0.594 mean= 0.293
 gam= 1.740 g(H,U,f)=  0.113E+00 0.132E+00 0.605E-01 ort(H,U,f) =-0.538E-01 0.459E-01-0.154E-01
CGA:  58    -0.223149498192E+03   -0.60330E-01   -0.61973E-01  5760   0.305E+00-0.233E-01
 gam= 1.740 trial= 0.308  step= 0.131 mean= 0.308
 gam= 0.702 g(H,U,f)=  0.107E+00 0.733E-01 0.338E-01 ort(H,U,f) =-0.366E-01 0.123E+00 0.480E-01
CGA:  59    -0.223174961482E+03   -0.25463E-01   -0.17280E-01  5760   0.214E+00 0.134E+00
 gam= 0.702 trial= 0.299  step= 0.091 mean= 0.299
 gam= 0.000 g(H,U,f)=  0.780E-01 0.535E-01 0.517E-01 ort(H,U,f) = 0.476E-01 0.103E+00 0.377E-01
CGA:  60    -0.223195814456E+03   -0.20853E-01   -0.14112E-01  5760   0.183E+00 0.188E+00
 gam= 0.000 trial= 0.289  step= 0.215 mean= 0.289
 gam= 0.879 g(H,U,f)=  0.395E-01 0.813E-01 0.403E-01 ort(H,U,f) = 0.326E-01 0.129E-01-0.213E-01
CGA:  61    -0.223213898369E+03   -0.18084E-01   -0.19714E-01  5760   0.161E+00 0.242E-01
 gam= 0.879 trial= 0.285  step= 0.233 mean= 0.285
 gam= 0.806 g(H,U,f)=  0.233E-01 0.469E-01 0.597E-01 ort(H,U,f) =-0.112E-01 0.167E-01-0.152E-01
CGA:  62    -0.223238098920E+03   -0.24201E-01   -0.21276E-01  5760   0.130E+00-0.979E-02
 gam= 0.806 trial= 0.283  step= 0.290 mean= 0.283
 gam= 1.302 g(H,U,f)=  0.514E-01 0.695E-01 0.482E-01 ort(H,U,f) =-0.246E-01 0.397E-01 0.590E-02
CGA:  63    -0.223255794019E+03   -0.17695E-01   -0.17691E-01  5760   0.169E+00 0.211E-01
 gam= 1.302 trial= 0.283  step= 0.207 mean= 0.283
 gam= 0.596 g(H,U,f)=  0.554E-01 0.427E-01 0.271E-02 ort(H,U,f) =-0.365E-01 0.494E-01-0.146E-02
CGA:  64    -0.223274439482E+03   -0.18645E-01   -0.20370E-01  5760   0.101E+00 0.115E-01
 gam= 0.596 trial= 0.279  step= 0.556 mean= 0.279
 gam= 1.345 g(H,U,f)=  0.376E-01 0.946E-01 0.340E-02 ort(H,U,f) =-0.276E-01 0.131E-01-0.240E-02
CGA:  65    -0.223299395523E+03   -0.24956E-01   -0.29943E-01  5760   0.136E+00-0.168E-01
 gam= 1.345 trial= 0.293  step= 0.149 mean= 0.293
 gam= 0.662 g(H,U,f)=  0.461E-01 0.317E-01 0.120E-01 ort(H,U,f) =-0.345E-01 0.421E-01 0.407E-05
CGA:  66    -0.223309391580E+03   -0.99961E-02   -0.84380E-02  5760   0.899E-01 0.759E-02
 gam= 0.662 trial= 0.286  step= 0.373 mean= 0.286
 gam= 0.867 g(H,U,f)=  0.425E-01 0.330E-01 0.244E-02 ort(H,U,f) =-0.588E-02 0.193E-01-0.507E-02
CGA:  67    -0.223328022338E+03   -0.18631E-01   -0.17680E-01  5760   0.779E-01 0.838E-02
 gam= 0.867 trial= 0.290  step= 0.256 mean= 0.290
 gam= 1.431 g(H,U,f)=  0.303E-01 0.689E-01 0.123E-01 ort(H,U,f) = 0.815E-02 0.114E-01-0.470E-02
CGA:  68    -0.223339342471E+03   -0.11320E-01   -0.10886E-01  5760   0.112E+00 0.148E-01
 gam= 1.431 trial= 0.288  step= 0.174 mean= 0.288
 gam= 0.420 g(H,U,f)=  0.192E-01 0.263E-01 0.144E-02 ort(H,U,f) =-0.634E-02 0.739E-02-0.213E-02
CGA:  69    -0.223352063951E+03   -0.12721E-01   -0.11539E-01  5760   0.469E-01-0.107E-02
 gam= 0.420 trial= 0.283  step= 0.422 mean= 0.283
 gam= 0.610 g(H,U,f)=  0.129E-01 0.151E-01 0.554E-03 ort(H,U,f) =-0.112E-01 0.924E-02-0.719E-04
CGA:  70    -0.223361670726E+03   -0.96068E-02   -0.97888E-02  5760   0.286E-01-0.208E-02
 gam= 0.610 trial= 0.290  step= 0.357 mean= 0.290
 gam= 0.936 g(H,U,f)=  0.106E-01 0.134E-01 0.280E-02 ort(H,U,f) =-0.388E-02 0.582E-02-0.329E-03
CGA:  71    -0.223366509380E+03   -0.48387E-02   -0.48735E-02  5760   0.268E-01 0.161E-02
 gam= 0.936 trial= 0.293  step= 0.169 mean= 0.293
 gam= 0.842 g(H,U,f)=  0.774E-02 0.117E-01 0.311E-02 ort(H,U,f) = 0.586E-03 0.448E-02-0.272E-02
CGA:  72    -0.223369154258E+03   -0.26449E-02   -0.23918E-02  5760   0.225E-01 0.235E-02
 gam= 0.842 trial= 0.287  step= 0.483 mean= 0.287
 gam= 0.744 g(H,U,f)=  0.807E-02 0.817E-02 0.541E-03 ort(H,U,f) =-0.629E-02 0.421E-02 0.111E-03
CGA:  73    -0.223374748938E+03   -0.55947E-02   -0.59207E-02  5760   0.168E-01-0.197E-02
 gam= 0.744 trial= 0.297  step= 0.321 mean= 0.297
 gam= 0.650 g(H,U,f)=  0.599E-02 0.461E-02 0.304E-03 ort(H,U,f) =-0.148E-02 0.240E-02-0.569E-03
CGA:  74    -0.223377218347E+03   -0.24694E-02   -0.24584E-02  5760   0.109E-01 0.349E-03
 gam= 0.650 trial= 0.298  step= 0.289 mean= 0.298
 gam= 1.117 g(H,U,f)=  0.364E-02 0.665E-02 0.189E-02 ort(H,U,f) = 0.105E-02 0.804E-03-0.307E-03
CGA:  75    -0.223378842331E+03   -0.16240E-02   -0.16069E-02  5760   0.122E-01 0.155E-02
 gam= 1.117 trial= 0.297  step= 0.151 mean= 0.297
 gam= 0.344 g(H,U,f)=  0.217E-02 0.196E-02 0.569E-04 ort(H,U,f) =-0.522E-04 0.797E-03-0.259E-03
CGA:  76    -0.223380079990E+03   -0.12377E-02   -0.10505E-02  5760   0.419E-02 0.486E-03
 gam= 0.344 trial= 0.290  step= 0.491 mean= 0.290
 gam= 1.032 g(H,U,f)=  0.156E-02 0.235E-02 0.416E-03 ort(H,U,f) =-0.584E-03 0.383E-03-0.115E-03
CGA:  77    -0.223381105403E+03   -0.10254E-02   -0.10690E-02  5760   0.432E-02-0.316E-03
 gam= 1.032 trial= 0.300  step= 0.321 mean= 0.300
 gam= 0.678 g(H,U,f)=  0.137E-02 0.152E-02 0.363E-04 ort(H,U,f) =-0.688E-03 0.103E-02 0.762E-04
CGA:  78    -0.223381750520E+03   -0.64512E-03   -0.64165E-03  5760   0.293E-02 0.415E-03
 gam= 0.678 trial= 0.301  step= 0.264 mean= 0.301
 gam= 1.124 g(H,U,f)=  0.106E-02 0.186E-02 0.365E-03 ort(H,U,f) =-0.146E-03 0.645E-03-0.267E-03
CGA:  79    -0.223382184969E+03   -0.43445E-03   -0.42278E-03  5760   0.329E-02 0.231E-03
 gam= 1.124 trial= 0.299  step= 0.213 mean= 0.299
 gam= 0.687 g(H,U,f)=  0.880E-03 0.136E-02 0.151E-04 ort(H,U,f) =-0.565E-03 0.693E-03-0.132E-04
CGA:  80    -0.223382608536E+03   -0.42357E-03   -0.37886E-03  5760   0.226E-02 0.116E-03
 gam= 0.687 trial= 0.295  step= 0.479 mean= 0.295
 gam= 1.547 g(H,U,f)=  0.136E-02 0.212E-02 0.147E-04 ort(H,U,f) =-0.787E-03 0.586E-03-0.804E-05
CGA:  81    -0.223383102715E+03   -0.49418E-03   -0.56033E-03  5760   0.349E-02-0.209E-03
 gam= 1.547 trial= 0.304  step= 0.231 mean= 0.304
 gam= 0.982 g(H,U,f)=  0.176E-02 0.158E-02 0.912E-04 ort(H,U,f) =-0.104E-02 0.125E-02 0.100E-04
CGA:  82    -0.223383497115E+03   -0.39440E-03   -0.36680E-03  5760   0.343E-02 0.225E-03
 gam= 0.982 trial= 0.301  step= 0.341 mean= 0.301
 gam= 1.229 g(H,U,f)=  0.164E-02 0.190E-02 0.673E-03 ort(H,U,f) =-0.660E-03 0.718E-03-0.276E-03
CGA:  83    -0.223384106056E+03   -0.60894E-03   -0.62349E-03  5760   0.422E-02-0.218E-03
 gam= 1.229 trial= 0.303  step= 0.332 mean= 0.303
 gam= 0.924 g(H,U,f)=  0.168E-02 0.216E-02 0.491E-04 ort(H,U,f) =-0.106E-02 0.119E-02 0.687E-05
CGA:  84    -0.223384759455E+03   -0.65340E-03   -0.65500E-03  5760   0.390E-02 0.139E-03
 gam= 0.924 trial= 0.304  step= 0.266 mean= 0.304
 gam= 0.954 g(H,U,f)=  0.154E-02 0.202E-02 0.159E-03 ort(H,U,f) =-0.782E-03 0.915E-03-0.229E-03
CGA:  85    -0.223385299262E+03   -0.53981E-03   -0.53454E-03  5760   0.372E-02-0.957E-04
 gam= 0.954 trial= 0.302  step= 0.370 mean= 0.302
 gam= 1.479 g(H,U,f)=  0.181E-02 0.266E-02 0.103E-02 ort(H,U,f) =-0.703E-03 0.770E-03-0.183E-03
CGA:  86    -0.223385928155E+03   -0.62889E-03   -0.67070E-03  5760   0.550E-02-0.116E-03
 gam= 1.479 trial= 0.306  step= 0.201 mean= 0.306
 gam= 0.724 g(H,U,f)=  0.189E-02 0.205E-02 0.393E-04 ort(H,U,f) =-0.107E-02 0.129E-02-0.113E-03
CGA:  87    -0.223386478855E+03   -0.55070E-03   -0.53407E-03  5760   0.398E-02 0.106E-03
 gam= 0.724 trial= 0.300  step= 0.382 mean= 0.300
 gam= 1.177 g(H,U,f)=  0.166E-02 0.216E-02 0.860E-03 ort(H,U,f) =-0.710E-03 0.820E-03-0.333E-03
CGA:  88    -0.223387252750E+03   -0.77390E-03   -0.77530E-03  5760   0.469E-02-0.223E-03
 gam= 1.177 trial= 0.304  step= 0.220 mean= 0.304
 gam= 0.680 g(H,U,f)=  0.141E-02 0.173E-02 0.431E-04 ort(H,U,f) =-0.791E-03 0.115E-02 0.494E-04
CGA:  89    -0.223387726337E+03   -0.47359E-03   -0.48655E-03  5760   0.319E-02 0.410E-03
 gam= 0.680 trial= 0.300  step= 0.189 mean= 0.300
 gam= 0.719 g(H,U,f)=  0.118E-02 0.107E-02 0.484E-04 ort(H,U,f) =-0.177E-04 0.263E-03-0.815E-04
CGA:  90    -0.223388082631E+03   -0.35629E-03   -0.32779E-03  5760   0.229E-02 0.164E-03
 gam= 0.719 trial= 0.295  step= 0.384 mean= 0.295
 gam= 0.000 g(H,U,f)=  0.106E-02 0.154E-02 0.482E-03 ort(H,U,f) =-0.253E-03 0.173E-03-0.134E-03
SDA:  91    -0.223388527065E+03   -0.44443E-03   -0.46265E-03  5760   0.308E-02-0.214E-03
 gam= 0.000 trial= 0.299  step= 0.202 mean= 0.299
 gam= 0.356 g(H,U,f)=  0.354E-03 0.622E-03 0.122E-03 ort(H,U,f) = 0.325E-03 0.102E-03-0.190E-03
CGA:  92    -0.223388834914E+03   -0.30785E-03   -0.31121E-03  5760   0.110E-02 0.237E-03
 gam= 0.356 trial= 0.294  step= 0.160 mean= 0.294
 gam= 0.707 g(H,U,f)=  0.231E-03 0.510E-03 0.348E-04 ort(H,U,f) = 0.213E-03 0.422E-05-0.359E-04
CGA:  93    -0.223388950826E+03   -0.11591E-03   -0.94776E-04  5760   0.776E-03 0.181E-03
 gam= 0.707 trial= 0.288  step= 0.577 mean= 0.288
 gam= 1.460 g(H,U,f)=  0.454E-03 0.659E-03 0.204E-04 ort(H,U,f) =-0.181E-03 0.806E-04-0.411E-05
CGA:  94    -0.223389185164E+03   -0.23434E-03   -0.26080E-03  5760   0.113E-02-0.104E-03
 gam= 1.460 trial= 0.302  step= 0.405 mean= 0.302
 gam= 1.039 g(H,U,f)=  0.529E-03 0.570E-03 0.778E-04 ort(H,U,f) =-0.394E-03 0.433E-03-0.154E-04
CGA:  95    -0.223389378247E+03   -0.19308E-03   -0.19857E-03  5760   0.118E-02 0.232E-04
 gam= 1.039 trial= 0.307  step= 0.184 mean= 0.307
 gam= 0.732 g(H,U,f)=  0.449E-03 0.328E-03 0.850E-04 ort(H,U,f) =-0.223E-03 0.426E-03-0.607E-04
CGA:  96    -0.223389508653E+03   -0.13041E-03   -0.11081E-03  5760   0.862E-03 0.142E-03
 gam= 0.732 trial= 0.301  step= 0.368 mean= 0.301
 gam= 0.901 g(H,U,f)=  0.422E-03 0.339E-03 0.157E-04 ort(H,U,f) =-0.218E-03 0.192E-03-0.913E-05
CGA:  97    -0.223389682007E+03   -0.17335E-03   -0.17759E-03  5760   0.777E-03-0.358E-04
 gam= 0.901 trial= 0.304  step= 0.354 mean= 0.304
 gam= 1.242 g(H,U,f)=  0.432E-03 0.516E-03 0.164E-04 ort(H,U,f) =-0.108E-03 0.144E-03-0.108E-04
CGA:  98    -0.223389810633E+03   -0.12863E-03   -0.13169E-03  5760   0.965E-03 0.244E-04
 gam= 1.242 trial= 0.307  step= 0.267 mean= 0.307
 gam= 1.069 g(H,U,f)=  0.403E-03 0.438E-03 0.191E-03 ort(H,U,f) =-0.110E-03 0.207E-03 0.176E-05
CGA:  99    -0.223389949426E+03   -0.13879E-03   -0.13299E-03  5760   0.103E-02 0.981E-04
 gam= 1.069 trial= 0.305  step= 0.220 mean= 0.305
 gam= 0.434 g(H,U,f)=  0.274E-03 0.165E-03 0.840E-05 ort(H,U,f) =-0.151E-03 0.209E-03-0.396E-04
CGA: 100    -0.223390077001E+03   -0.12757E-03   -0.12483E-03  5760   0.447E-03 0.182E-04
 gam= 0.434 trial= 0.301  step= 0.446 mean= 0.301
 gam= 1.252 g(H,U,f)=  0.189E-03 0.319E-03 0.518E-04 ort(H,U,f) =-0.754E-04 0.512E-04-0.245E-04
CGA: 101    -0.223390172943E+03   -0.95942E-04   -0.10149E-03  5760   0.560E-03-0.486E-04
 gam= 1.252 trial= 0.308  step= 0.224 mean= 0.308
 gam= 0.835 g(H,U,f)=  0.204E-03 0.201E-03 0.630E-04 ort(H,U,f) =-0.122E-03 0.167E-03 0.225E-04
CGA: 102    -0.223390232063E+03   -0.59120E-04   -0.55912E-04  5760   0.468E-03 0.668E-04
 gam= 0.835 trial= 0.304  step= 0.273 mean= 0.304
 gam= 0.939 g(H,U,f)=  0.204E-03 0.171E-03 0.642E-04 ort(H,U,f) =-0.729E-04 0.132E-03-0.832E-04
CGA: 103    -0.223390303964E+03   -0.71901E-04   -0.71549E-04  5760   0.439E-03-0.241E-04
 gam= 0.939 trial= 0.302  step= 0.413 mean= 0.302
 gam= 1.245 g(H,U,f)=  0.220E-03 0.297E-03 0.301E-04 ort(H,U,f) =-0.101E-03 0.822E-04-0.960E-05
CGA: 104    -0.223390386340E+03   -0.82375E-04   -0.85976E-04  5760   0.547E-03-0.281E-04
 gam= 1.245 trial= 0.308  step= 0.271 mean= 0.308
 gam= 0.928 g(H,U,f)=  0.235E-03 0.260E-03 0.123E-04 ort(H,U,f) =-0.124E-03 0.165E-03 0.952E-05
CGA: 105    -0.223390456398E+03   -0.70058E-04   -0.69205E-04  5760   0.507E-03 0.505E-04
 gam= 0.928 trial= 0.306  step= 0.301 mean= 0.306
 gam= 1.007 g(H,U,f)=  0.232E-03 0.229E-03 0.507E-04 ort(H,U,f) =-0.132E-03 0.168E-03-0.426E-04
CGA: 106    -0.223390539980E+03   -0.83582E-04   -0.83319E-04  5760   0.511E-03-0.639E-05
 gam= 1.007 trial= 0.306  step= 0.262 mean= 0.306
 gam= 1.066 g(H,U,f)=  0.258E-03 0.277E-03 0.947E-05 ort(H,U,f) =-0.104E-03 0.118E-03-0.402E-05
CGA: 107    -0.223390609748E+03   -0.69768E-04   -0.66059E-04  5760   0.545E-03 0.985E-05
 gam= 1.066 trial= 0.303  step= 0.382 mean= 0.303
 gam= 1.311 g(H,U,f)=  0.311E-03 0.402E-03 0.142E-05 ort(H,U,f) =-0.141E-03 0.126E-03 0.258E-06
CGA: 108    -0.223390711996E+03   -0.10225E-03   -0.10595E-03  5760   0.714E-03-0.150E-04
 gam= 1.311 trial= 0.307  step= 0.304 mean= 0.307
 gam= 0.852 g(H,U,f)=  0.310E-03 0.293E-03 0.488E-05 ort(H,U,f) =-0.229E-03 0.242E-03 0.196E-05
CGA: 109    -0.223390817722E+03   -0.10573E-03   -0.10544E-03  5760   0.608E-03 0.158E-04
 gam= 0.852 trial= 0.307  step= 0.261 mean= 0.307
 gam= 1.109 g(H,U,f)=  0.288E-03 0.308E-03 0.788E-04 ort(H,U,f) =-0.151E-03 0.195E-03-0.205E-04
CGA: 110    -0.223390902035E+03   -0.84313E-04   -0.81206E-04  5760   0.675E-03 0.239E-04
 gam= 1.109 trial= 0.305  step= 0.312 mean= 0.305
 gam= 0.977 g(H,U,f)=  0.329E-03 0.315E-03 0.157E-04 ort(H,U,f) =-0.224E-03 0.232E-03-0.221E-04
CGA: 111    -0.223391010998E+03   -0.10896E-03   -0.10942E-03  5760   0.660E-03-0.142E-04
 gam= 0.977 trial= 0.305  step= 0.355 mean= 0.305
 gam= 1.294 g(H,U,f)=  0.393E-03 0.421E-03 0.396E-04 ort(H,U,f) =-0.184E-03 0.183E-03-0.190E-04
CGA: 112    -0.223391123722E+03   -0.11272E-03   -0.11469E-03  5760   0.853E-03-0.193E-04
 gam= 1.294 trial= 0.308  step= 0.315 mean= 0.308
 gam= 0.955 g(H,U,f)=  0.374E-03 0.338E-03 0.104E-03 ort(H,U,f) =-0.242E-03 0.284E-03 0.228E-05
CGA: 113    -0.223391253553E+03   -0.12983E-03   -0.13039E-03  5760   0.815E-03 0.441E-04
 gam= 0.955 trial= 0.308  step= 0.229 mean= 0.308
 gam= 0.887 g(H,U,f)=  0.351E-03 0.297E-03 0.746E-04 ort(H,U,f) =-0.111E-03 0.198E-03-0.133E-03
CGA: 114    -0.223391356228E+03   -0.10267E-03   -0.98298E-04  5760   0.723E-03-0.466E-04
 gam= 0.887 trial= 0.304  step= 0.357 mean= 0.304
 gam= 1.184 g(H,U,f)=  0.333E-03 0.388E-03 0.135E-03 ort(H,U,f) =-0.128E-03 0.607E-04-0.607E-04
CGA: 115    -0.223391473066E+03   -0.11684E-03   -0.12167E-03  5760   0.856E-03-0.128E-03
 gam= 1.184 trial= 0.307  step= 0.234 mean= 0.307
 gam= 0.656 g(H,U,f)=  0.311E-03 0.205E-03 0.458E-04 ort(H,U,f) =-0.113E-03 0.136E-03 0.363E-04
CGA: 116    -0.223391554401E+03   -0.81336E-04   -0.82504E-04  5760   0.562E-03 0.594E-04
 gam= 0.656 trial= 0.303  step= 0.294 mean= 0.303
 gam= 0.843 g(H,U,f)=  0.229E-03 0.184E-03 0.607E-04 ort(H,U,f) = 0.106E-04 0.375E-04-0.781E-04
CGA: 117    -0.223391642381E+03   -0.87980E-04   -0.88305E-04  5760   0.474E-03-0.299E-04
 gam= 0.843 trial= 0.303  step= 0.308 mean= 0.303
 gam= 0.774 g(H,U,f)=  0.170E-03 0.128E-03 0.688E-04 ort(H,U,f) =-0.646E-05 0.112E-04-0.745E-05
CGA: 118    -0.223391711488E+03   -0.69107E-04   -0.69165E-04  5760   0.367E-03-0.267E-05
 gam= 0.774 trial= 0.303  step= 0.225 mean= 0.303
 gam= 0.776 g(H,U,f)=  0.130E-03 0.152E-03 0.266E-05 ort(H,U,f) = 0.170E-04 0.119E-04-0.939E-05
CGA: 119    -0.223391750984E+03   -0.39496E-04   -0.41075E-04  5760   0.284E-03 0.195E-04
 gam= 0.776 trial= 0.299  step= 0.279 mean= 0.299
 gam= 0.784 g(H,U,f)=  0.950E-04 0.123E-03 0.491E-05 ort(H,U,f) =-0.191E-05 0.357E-05-0.859E-05
CGA: 120    -0.223391793077E+03   -0.42093E-04   -0.41763E-04  5760   0.223E-03-0.693E-05
 gam= 0.784 trial= 0.298  step= 0.249 mean= 0.298
 gam= 0.856 g(H,U,f)=  0.877E-04 0.933E-04 0.985E-05 ort(H,U,f) =-0.195E-04 0.282E-04-0.317E-05
CGA: 121    -0.223391821272E+03   -0.28194E-04   -0.27050E-04  5760   0.191E-03 0.550E-05
 gam= 0.856 trial= 0.296  step= 0.275 mean= 0.296
 gam= 0.000 g(H,U,f)=  0.678E-04 0.866E-04 0.736E-05 ort(H,U,f) =-0.219E-04 0.266E-04-0.435E-05
SDA: 122    -0.223391848313E+03   -0.27042E-04   -0.26858E-04  5760   0.162E-03 0.387E-06
 gam= 0.000 trial= 0.295  step= 0.207 mean= 0.295
 gam= 0.759 g(H,U,f)=  0.399E-04 0.673E-04 0.156E-04 ort(H,U,f) = 0.342E-04-0.285E-06-0.104E-04
CGA: 123    -0.223391866278E+03   -0.17965E-04   -0.16768E-04  5760   0.123E-03 0.235E-04
 gam= 0.759 trial= 0.290  step= 0.207 mean= 0.290
 gam= 0.668 g(H,U,f)=  0.190E-04 0.618E-04 0.115E-05 ort(H,U,f) = 0.123E-04-0.262E-05 0.169E-05
CGA: 124    -0.223391882461E+03   -0.16183E-04   -0.14543E-04  5760   0.820E-04 0.114E-04
 gam= 0.668 trial= 0.286  step= 0.497 mean= 0.286
 gam= 1.507 g(H,U,f)=  0.319E-04 0.845E-04 0.708E-05 ort(H,U,f) =-0.163E-04 0.942E-05-0.548E-05
CGA: 125    -0.223391901613E+03   -0.19152E-04   -0.22248E-04  5760   0.124E-03-0.124E-04
 gam= 1.507 trial= 0.297  step= 0.227 mean= 0.297
 gam= 1.101 g(H,U,f)=  0.421E-04 0.523E-04 0.416E-04 ort(H,U,f) =-0.392E-04 0.483E-04-0.515E-05
CGA: 126    -0.223391914342E+03   -0.12729E-04   -0.11929E-04  5760   0.136E-03 0.397E-05
 gam= 1.101 trial= 0.293  step= 0.317 mean= 0.293
 gam= 0.423 g(H,U,f)=  0.390E-04 0.174E-04 0.108E-05 ort(H,U,f) =-0.456E-04 0.564E-04-0.577E-05
CGA: 127    -0.223391936775E+03   -0.22433E-04   -0.22239E-04  5760   0.575E-04 0.503E-05
 gam= 0.423 trial= 0.294  step= 0.720 mean= 0.294
 gam= 2.346 g(H,U,f)=  0.349E-04 0.709E-04 0.291E-04 ort(H,U,f) =-0.907E-05 0.191E-04-0.689E-05
CGA: 128    -0.223391956410E+03   -0.19635E-04   -0.21475E-04  5760   0.135E-03 0.311E-05
 gam= 2.346 trial= 0.316  step= 0.126 mean= 0.316
 gam= 0.497 g(H,U,f)=  0.327E-04 0.321E-04 0.216E-05 ort(H,U,f) =-0.136E-04 0.341E-04 0.306E-05
CGA: 129    -0.223391969158E+03   -0.12747E-04   -0.89251E-05  5760   0.670E-04 0.236E-04
 gam= 0.497 trial= 0.306  step= 0.412 mean= 0.306
 gam= 1.400 g(H,U,f)=  0.253E-04 0.566E-04 0.119E-04 ort(H,U,f) =-0.232E-05 0.227E-04-0.838E-05
CGA: 130    -0.223391986162E+03   -0.17004E-04   -0.16228E-04  5760   0.938E-04 0.120E-04
 gam= 1.400 trial= 0.311  step= 0.109 mean= 0.311
 gam= 0.353 g(H,U,f)=  0.180E-04 0.141E-04 0.109E-05 ort(H,U,f) =-0.467E-05 0.306E-04-0.272E-06
CGA: 131    -0.223391995934E+03   -0.97723E-05   -0.60193E-05  5760   0.331E-04 0.257E-04
 gam= 0.353 trial= 0.301  step= 0.457 mean= 0.301
 gam= 1.990 g(H,U,f)=  0.197E-04 0.394E-04 0.691E-05 ort(H,U,f) =-0.411E-06 0.964E-05-0.248E-05
CGA: 132    -0.223392005997E+03   -0.10063E-04   -0.96429E-05  5760   0.660E-04 0.674E-05
 gam= 1.990 trial= 0.309  step= 0.149 mean= 0.309
 gam= 0.683 g(H,U,f)=  0.158E-04 0.287E-04 0.517E-06 ort(H,U,f) =-0.552E-05 0.206E-04-0.593E-06
CGA: 133    -0.223392013797E+03   -0.78001E-05   -0.58957E-05  5760   0.451E-04 0.145E-04
 gam= 0.683 trial= 0.301  step= 0.399 mean= 0.301
 gam= 1.106 g(H,U,f)=  0.208E-04 0.222E-04 0.690E-05 ort(H,U,f) =-0.175E-04 0.154E-04-0.160E-05
CGA: 134    -0.223392024620E+03   -0.10822E-04   -0.10955E-04  5760   0.498E-04-0.365E-05
 gam= 1.106 trial= 0.306  step= 0.172 mean= 0.306
 gam= 1.037 g(H,U,f)=  0.221E-04 0.291E-04 0.526E-06 ort(H,U,f) =-0.900E-05 0.206E-04-0.272E-06
CGA: 135    -0.223392029123E+03   -0.45026E-05   -0.39390E-05  5760   0.517E-04 0.114E-04
 gam= 1.037 trial= 0.299  step= 0.309 mean= 0.299
 gam= 0.767 g(H,U,f)=  0.181E-04 0.152E-04 0.632E-05 ort(H,U,f) =-0.131E-04 0.123E-04-0.483E-05
CGA: 136    -0.223392038913E+03   -0.97905E-05   -0.98064E-05  5760   0.396E-04-0.559E-05
 gam= 0.767 trial= 0.300  step= 0.342 mean= 0.300
 gam= 1.193 g(H,U,f)=  0.185E-04 0.275E-04 0.124E-05 ort(H,U,f) =-0.649E-05 0.118E-04-0.139E-07
CGA: 137    -0.223392045015E+03   -0.61015E-05   -0.60553E-05  5760   0.473E-04 0.535E-05
 gam= 1.193 trial= 0.302  step= 0.160 mean= 0.302
 gam= 0.520 g(H,U,f)=  0.140E-04 0.100E-04 0.619E-06 ort(H,U,f) =-0.318E-05 0.102E-04-0.331E-06
CGA: 138    -0.223392050096E+03   -0.50820E-05   -0.42951E-05  5760   0.246E-04 0.673E-05
 gam= 0.520 trial= 0.295  step= 0.508 mean= 0.295
 gam= 1.825 g(H,U,f)=  0.129E-04 0.206E-04 0.115E-04 ort(H,U,f) =-0.360E-05 0.372E-05-0.341E-05
CGA: 139    -0.223392056469E+03   -0.63727E-05   -0.71416E-05  5760   0.449E-04-0.329E-05
 gam= 1.825 trial= 0.305  step= 0.202 mean= 0.305
 gam= 0.637 g(H,U,f)=  0.142E-04 0.132E-04 0.121E-05 ort(H,U,f) =-0.127E-04 0.133E-04 0.145E-05
CGA: 140    -0.223392060436E+03   -0.39671E-05   -0.39256E-05  5760   0.286E-04 0.208E-05
 gam= 0.637 trial= 0.300  step= 0.251 mean= 0.300
 gam= 0.869 g(H,U,f)=  0.130E-04 0.103E-04 0.160E-05 ort(H,U,f) =-0.362E-05 0.589E-05-0.234E-05
CGA: 141    -0.223392064130E+03   -0.36937E-05   -0.37635E-05  5760   0.249E-04-0.806E-07
 gam= 0.869 trial= 0.298  step= 0.367 mean= 0.298
 gam= 1.352 g(H,U,f)=  0.110E-04 0.206E-04 0.209E-05 ort(H,U,f) =-0.326E-05 0.356E-05-0.365E-06
CGA: 142    -0.223392068651E+03   -0.45209E-05   -0.45497E-05  5760   0.336E-04-0.639E-07
 gam= 1.352 trial= 0.301  step= 0.172 mean= 0.301
 gam= 0.559 g(H,U,f)=  0.927E-05 0.810E-05 0.143E-05 ort(H,U,f) =-0.488E-05 0.862E-05 0.505E-06
CGA: 143    -0.223392071853E+03   -0.32023E-05   -0.28912E-05  5760   0.188E-04 0.425E-05
 gam= 0.559 trial= 0.295  step= 0.311 mean= 0.295
 gam= 1.185 g(H,U,f)=  0.877E-05 0.103E-04 0.322E-05 ort(H,U,f) =-0.200E-05 0.370E-05-0.269E-05
CGA: 144    -0.223392075148E+03   -0.32947E-05   -0.32932E-05  5760   0.223E-04-0.987E-06
 gam= 1.185 trial= 0.296  step= 0.298 mean= 0.296
 gam= 0.864 g(H,U,f)=  0.913E-05 0.817E-05 0.196E-05 ort(H,U,f) =-0.463E-05 0.539E-05 0.229E-07
CGA: 145    -0.223392078299E+03   -0.31516E-05   -0.31506E-05  5760   0.193E-04 0.783E-06
 gam= 0.864 trial= 0.296  step= 0.246 mean= 0.296
 gam= 0.968 g(H,U,f)=  0.818E-05 0.926E-05 0.120E-05 ort(H,U,f) =-0.196E-05 0.333E-05-0.159E-05
CGA: 146    -0.223392080728E+03   -0.24285E-05   -0.24561E-05  5760   0.186E-04-0.223E-06
 gam= 0.968 trial= 0.293  step= 0.310 mean= 0.293
 gam= 1.171 g(H,U,f)=  0.756E-05 0.134E-04 0.888E-06 ort(H,U,f) =-0.278E-05 0.175E-05-0.277E-06
CGA: 147    -0.223392083545E+03   -0.28172E-05   -0.28532E-05  5760   0.218E-04-0.131E-05
 gam= 1.171 trial= 0.294  step= 0.187 mean= 0.294
 gam= 0.538 g(H,U,f)=  0.644E-05 0.506E-05 0.235E-06 ort(H,U,f) =-0.478E-05 0.451E-05 0.262E-06
CGA: 148    -0.223392085566E+03   -0.20206E-05   -0.19013E-05  5760   0.117E-04-0.438E-08
 gam= 0.538 trial= 0.289  step= 0.260 mean= 0.289
 gam= 1.026 g(H,U,f)=  0.536E-05 0.578E-05 0.906E-06 ort(H,U,f) =-0.721E-06 0.121E-05-0.757E-06
CGA: 149    -0.223392087085E+03   -0.15195E-05   -0.15261E-05  5760   0.120E-04-0.266E-06
 gam= 1.026 trial= 0.287  step= 0.279 mean= 0.287
 gam= 1.186 g(H,U,f)=  0.550E-05 0.753E-05 0.125E-05 ort(H,U,f) =-0.110E-05 0.245E-05 0.149E-06
CGA: 150    -0.223392088725E+03   -0.16395E-05   -0.16413E-05  5760   0.143E-04 0.150E-05
 gam= 1.186 trial= 0.287  step= 0.229 mean= 0.287
 gam= 0.876 g(H,U,f)=  0.545E-05 0.593E-05 0.114E-05 ort(H,U,f) =-0.294E-05 0.406E-05-0.135E-05
CGA: 151    -0.223392090588E+03   -0.18628E-05   -0.18418E-05  5760   0.125E-04-0.229E-06
 gam= 0.876 trial= 0.284  step= 0.289 mean= 0.284
 gam= 1.080 g(H,U,f)=  0.582E-05 0.642E-05 0.129E-05 ort(H,U,f) =-0.365E-05 0.253E-05-0.518E-07
CGA: 152    -0.223392092362E+03   -0.17748E-05   -0.17790E-05  5760   0.135E-04-0.118E-05
 gam= 1.080 trial= 0.284  step= 0.244 mean= 0.284
 gam= 0.000 g(H,U,f)=  0.609E-05 0.563E-05 0.451E-07 ort(H,U,f) =-0.351E-05 0.358E-05-0.188E-06
SDA: 153    -0.223392093838E+03   -0.14761E-05   -0.14954E-05  5760   0.118E-04-0.117E-06
 gam= 0.000 trial= 0.282  step= 0.334 mean= 0.282
 gam= 0.470 g(H,U,f)=  0.213E-05 0.337E-05 0.231E-07 ort(H,U,f) = 0.189E-05-0.943E-06-0.115E-07
CGA: 154    -0.223392095821E+03   -0.19822E-05   -0.19626E-05  5760   0.553E-05 0.936E-06
 gam= 0.470 trial= 0.285  step= 0.215 mean= 0.285
 gam= 0.978 g(H,U,f)=  0.157E-05 0.350E-05 0.337E-06 ort(H,U,f) = 0.141E-05 0.933E-07-0.109E-07
CGA: 155    -0.223392096509E+03   -0.68871E-06   -0.64128E-06  5760   0.541E-05 0.149E-05
 gam= 0.978 trial= 0.281  step= 0.351 mean= 0.281
 gam= 1.170 g(H,U,f)=  0.173E-05 0.377E-05 0.818E-06 ort(H,U,f) =-0.784E-06 0.424E-06-0.504E-06
CGA: 156    -0.223392097570E+03   -0.10602E-05   -0.12064E-05  5760   0.632E-05-0.864E-06
 gam= 1.170 trial= 0.285  step= 0.203 mean= 0.285
 gam= 0.778 g(H,U,f)=  0.192E-05 0.300E-05 0.764E-08 ort(H,U,f) =-0.153E-05 0.150E-05 0.112E-08
CGA: 157    -0.223392098216E+03   -0.64589E-06   -0.53920E-06  5760   0.492E-05-0.329E-07
 gam= 0.778 trial= 0.281  step= 0.391 mean= 0.281
 final diagonalization
   1 F= -.23236763E+03 E0= -.23236303E+03  d E =-.918672E-02  mag=     6.0000
