 vasp.5.4.4.18Apr17-6-g9f103f2a35 (build Nov 22 2021 14:44:17) complex          
  
 executed on             LinuxIFC date 2022.08.08  11:35:25
 running on   64 total cores
 distrk:  each k-point on   64 cores,    1 groups
 distr:  one band on NCORES_PER_BAND=   4 cores,   16 groups


--------------------------------------------------------------------------------------------------------


 INCAR:
 POTCAR:    PAW_PBE Li 17Jan2003                  
 POTCAR:    PAW_PBE Co 02Aug2007                  
 POTCAR:    PAW_PBE O 08Apr2002                   
 POTCAR:    PAW_PBE Li 17Jan2003                  
   VRHFIN =Li: s1p0                                                             
   LEXCH  = PE                                                                  
   EATOM  =     5.3001 eV,    0.3895 Ry                                         
                                                                                
   TITEL  = PAW_PBE Li 17Jan2003                                                
   LULTRA =        F    use ultrasoft PP ?                                      
   IUNSCR =        1    unscreen: 0-lin 1-nonlin 2-no                           
   RPACOR =    1.500    partial core radius                                     
   POMASS =    7.010; ZVAL   =    1.000    mass and valenz                      
   RCORE  =    2.050    outmost cutoff radius                                   
   RWIGS  =    2.600; RWIGS  =    1.376    wigner-seitz radius (au A)           
   ENMAX  =  140.000; ENMIN  =  100.000 eV                                      
   ICORE  =        2    local potential                                         
   LCOR   =        T    correct aug charges                                     
   LPAW   =        T    paw PP                                                  
   EAUG   =  331.638                                                            
   DEXC   =    0.000                                                            
   RMAX   =    2.098    core radius for proj-oper                               
   RAUG   =    1.300    factor for augmentation sphere                          
   RDEP   =    2.094    radius for radial grids                                 
   RDEPT  =    1.810    core radius for aug-charge                              
                                                                                
   Atomic configuration                                                         
    4 entries                                                                   
     n  l   j            E        occ.                                          
     1  0  0.50       -51.8549   2.0000                                         
     2  0  0.50        -2.8742   1.0000                                         
     2  1  0.50        -1.3606   0.0000                                         
     3  2  1.50        -1.3606   0.0000                                         
   Description                                                                  
     l       E           TYP  RCUT    TYP  RCUT                                 
     0     -2.8742052     23  2.050                                             
     0     27.2116520     23  2.050                                             
     1     -1.3605826     23  2.050                                             
     2     -1.3605826     23  2.050                                             
  local pseudopotential read in
  partial core-charges read in
  partial kinetic energy density read in
  atomic valenz-charges read in
  non local Contribution for L=           0  read in
    real space projection operators read in
  non local Contribution for L=           0  read in
    real space projection operators read in
  non local Contribution for L=           1  read in
    real space projection operators read in
    PAW grid and wavefunctions read in
 
   number of l-projection  operators is LMAX  =           3
   number of lm-projection operators is LMMAX =           5
 
 POTCAR:    PAW_PBE Co 02Aug2007                  
   VRHFIN =Co: d8 s1                                                            
   LEXCH  = PE                                                                  
   EATOM  =   813.3670 eV,   59.7808 Ry                                         
                                                                                
   TITEL  = PAW_PBE Co 02Aug2007                                                
   LULTRA =        F    use ultrasoft PP ?                                      
   IUNSCR =        1    unscreen: 0-lin 1-nonlin 2-no                           
   RPACOR =    2.000    partial core radius                                     
   POMASS =   58.933; ZVAL   =    9.000    mass and valenz                      
   RCORE  =    2.300    outmost cutoff radius                                   
   RWIGS  =    2.460; RWIGS  =    1.302    wigner-seitz radius (au A)           
   ENMAX  =  267.968; ENMIN  =  200.976 eV                                      
   RCLOC  =    1.203    cutoff for local pot                                    
   LCOR   =        T    correct aug charges                                     
   LPAW   =        T    paw PP                                                  
   EAUG   =  477.818                                                            
   DEXC   =    0.000                                                            
   RMAX   =    2.360    core radius for proj-oper                               
   RAUG   =    1.300    factor for augmentation sphere                          
   RDEP   =    2.393    radius for radial grids                                 
   RDEPT  =    1.864    core radius for aug-charge                              
                                                                                
   Atomic configuration                                                         
    9 entries                                                                   
     n  l   j            E        occ.                                          
     1  0  0.50     -7587.6674   2.0000                                         
     2  0  0.50      -893.6084   2.0000                                         
     2  1  1.50      -764.5805   6.0000                                         
     3  0  0.50       -97.5973   2.0000                                         
     3  1  1.50       -60.9648   6.0000                                         
     3  2  2.50        -4.2382   8.0000                                         
     4  0  0.50        -4.3746   1.0000                                         
     4  1  1.50        -4.0817   0.0000                                         
     4  3  2.50        -1.3606   0.0000                                         
   Description                                                                  
     l       E           TYP  RCUT    TYP  RCUT                                 
     2     -4.2382362     23  2.300                                             
     2     -5.5988188     23  2.300                                             
     0     -4.3745797     23  2.300                                             
     0      5.7660125     23  2.300                                             
     1     -2.7211652     23  2.300                                             
     1     16.9860234     23  2.300                                             
  local pseudopotential read in
  partial core-charges read in
  partial kinetic energy density read in
  atomic valenz-charges read in
  non local Contribution for L=           2  read in
    real space projection operators read in
  non local Contribution for L=           2  read in
    real space projection operators read in
  non local Contribution for L=           0  read in
    real space projection operators read in
  non local Contribution for L=           0  read in
    real space projection operators read in
  non local Contribution for L=           1  read in
    real space projection operators read in
  non local Contribution for L=           1  read in
    real space projection operators read in
    PAW grid and wavefunctions read in
 
   number of l-projection  operators is LMAX  =           6
   number of lm-projection operators is LMMAX =          18
 
 POTCAR:    PAW_PBE O 08Apr2002                   
   VRHFIN =O: s2p4                                                              
   LEXCH  = PE                                                                  
   EATOM  =   432.3788 eV,   31.7789 Ry                                         
                                                                                
   TITEL  = PAW_PBE O 08Apr2002                                                 
   LULTRA =        F    use ultrasoft PP ?                                      
   IUNSCR =        1    unscreen: 0-lin 1-nonlin 2-no                           
   RPACOR =    1.200    partial core radius                                     
   POMASS =   16.000; ZVAL   =    6.000    mass and valenz                      
   RCORE  =    1.520    outmost cutoff radius                                   
   RWIGS  =    1.550; RWIGS  =    0.820    wigner-seitz radius (au A)           
   ENMAX  =  400.000; ENMIN  =  300.000 eV                                      
   ICORE  =        2    local potential                                         
   LCOR   =        T    correct aug charges                                     
   LPAW   =        T    paw PP                                                  
   EAUG   =  605.392                                                            
   DEXC   =    0.000                                                            
   RMAX   =    1.553    core radius for proj-oper                               
   RAUG   =    1.300    factor for augmentation sphere                          
   RDEP   =    1.550    radius for radial grids                                 
   RDEPT  =    1.329    core radius for aug-charge                              
                                                                                
   Atomic configuration                                                         
    4 entries                                                                   
     n  l   j            E        occ.                                          
     1  0  0.50      -514.6923   2.0000                                         
     2  0  0.50       -23.9615   2.0000                                         
     2  1  0.50        -9.0305   4.0000                                         
     3  2  1.50        -9.5241   0.0000                                         
   Description                                                                  
     l       E           TYP  RCUT    TYP  RCUT                                 
     0    -23.9615318     23  1.200                                             
     0     -9.5240782     23  1.200                                             
     1     -9.0304911     23  1.520                                             
     1      8.1634956     23  1.520                                             
     2     -9.5240782      7  1.500                                             
  local pseudopotential read in
  partial core-charges read in
  partial kinetic energy density read in
  kinetic energy density of atom read in
  atomic valenz-charges read in
  non local Contribution for L=           0  read in
    real space projection operators read in
  non local Contribution for L=           0  read in
    real space projection operators read in
  non local Contribution for L=           1  read in
    real space projection operators read in
  non local Contribution for L=           1  read in
    real space projection operators read in
    PAW grid and wavefunctions read in
 
   number of l-projection  operators is LMAX  =           4
   number of lm-projection operators is LMMAX =           8
 
 Optimization of the real space projectors (new method)

 maximal supplied QI-value         = 18.33
 optimisation between [QCUT,QGAM] = [ 12.46, 24.93] = [ 43.51,174.03] Ry 
 Optimized for a Real-space Cutoff    1.13 Angstroem

   l    n(q)    QCUT    max X(q) W(low)/X(q) W(high)/X(q)  e(spline) 
   0      8    12.465    33.825    0.12E-03    0.29E-03    0.99E-07
   0      8    12.465     8.944    0.86E-04    0.22E-03    0.72E-07
   1      8    12.465     4.214    0.27E-03    0.11E-03    0.82E-07
 Optimization of the real space projectors (new method)

 maximal supplied QI-value         = 16.25
 optimisation between [QCUT,QGAM] = [ 12.51, 25.03] = [ 43.85,175.40] Ry 
 Optimized for a Real-space Cutoff    1.31 Angstroem

   l    n(q)    QCUT    max X(q) W(low)/X(q) W(high)/X(q)  e(spline) 
   2      9    12.514    65.824    0.30E-03    0.46E-03    0.43E-06
   2      9    12.514    61.429    0.31E-03    0.46E-03    0.44E-06
   0     10    12.514    56.174    0.90E-04    0.33E-03    0.30E-06
   0     10    12.514    31.263    0.81E-04    0.30E-03    0.28E-06
   1      9    12.514    19.828    0.38E-03    0.65E-04    0.24E-06
   1      9    12.514    15.139    0.32E-03    0.60E-04    0.20E-06
 Optimization of the real space projectors (new method)

 maximal supplied QI-value         = 24.76
 optimisation between [QCUT,QGAM] = [ 12.38, 25.00] = [ 42.90,175.06] Ry 
 Optimized for a Real-space Cutoff    1.13 Angstroem

   l    n(q)    QCUT    max X(q) W(low)/X(q) W(high)/X(q)  e(spline) 
   0      8    12.378    20.381    0.16E-03    0.54E-05    0.27E-06
   0      8    12.378    15.268    0.17E-03    0.61E-05    0.29E-06
   1      8    12.378     5.964    0.38E-03    0.23E-03    0.28E-06
   1      8    12.378     5.382    0.33E-03    0.20E-03    0.25E-06
  PAW_PBE Li 17Jan2003                  :
 energy of atom  1       EATOM=   -5.3001
 kinetic energy error for atom=    0.0000 (will be added to EATOM!!)
  PAW_PBE Co 02Aug2007                  :
 energy of atom  2       EATOM= -813.3670
 kinetic energy error for atom=    0.0018 (will be added to EATOM!!)
  PAW_PBE O 08Apr2002                   :
 energy of atom  3       EATOM= -432.3788
 kinetic energy error for atom=    0.0168 (will be added to EATOM!!)
 
 
 POSCAR: Li6 Co12 O24                            
  positions in cartesian coordinates
  No initial velocities read in
 exchange correlation table for  LEXCH =        8
   RHO(1)=    0.500       N(1)  =     2000
   RHO(2)=  100.500       N(2)  =     4000
 


--------------------------------------------------------------------------------------------------------


 ion  position               nearest neighbor table
   1  0.016  0.993  0.996-  38 1.80  23 1.94  36 2.07  25 2.18  26 2.22  35 2.22  17 2.70  18 2.75
                             8 2.82   7 2.86  15 3.00  10 3.01
   2  0.821  0.628  0.321-  22 1.94  20 2.09  19 2.21  32 2.27  33 2.32  34 2.49  12 2.72  10 2.76
                             9 2.81   8 2.82  11 3.09  14 3.19
   3  0.162  0.353  0.671-  40 1.96  42 2.02  39 2.05  27 2.11  29 2.19  28 2.21   4 2.69   5 2.71
                             6 2.83  15 2.83  14 2.88  17 2.89   5 2.96  11 2.96   6 2.98  16 3.00
   4  0.172  0.826  0.668-  28 1.92  30 2.04  41 2.07  40 2.09  39 2.13  27 2.30   3 2.69   5 2.75
                            12 2.80   6 2.81  15 2.83  13 2.84   6 2.86  18 2.88  11 2.98  16 3.00
   5  0.622  0.318  0.665-  42 1.96  27 2.01  41 2.10  29 2.12  40 2.18  30 2.25  13 2.68  15 2.70
                             3 2.71   4 2.75  14 2.82   6 2.83  18 2.94   6 2.95   3 2.96  12 2.97
   6  0.684  0.858  0.670-  41 2.00  39 2.00  29 2.03  42 2.08  30 2.14  28 2.22   4 2.81  18 2.82
                            11 2.82   3 2.83   5 2.83   4 2.86  17 2.88  13 2.90  14 2.92   5 2.95
   7  0.164  0.314  0.168-  20 1.86  22 1.87  24 1.88  23 1.89  25 1.92  19 1.93   8 2.80   9 2.82
                             9 2.85   1 2.86  10 2.87  10 2.93   8 2.95
   8  0.142  0.791  0.162-  26 1.78  20 1.82  21 1.86  19 1.92  24 1.93  23 1.94  10 2.78   9 2.79
                             7 2.80   1 2.82   2 2.82  10 2.89   7 2.95   9 3.02
   9  0.663  0.309  0.153-  20 1.85  25 1.89  21 1.90  23 1.93  26 1.96  22 2.02   8 2.79   2 2.81
                             7 2.82  10 2.82   7 2.85  10 2.93   8 3.02
  10  0.667  0.821  0.165-  25 1.80  24 1.84  26 1.90  19 1.91  21 1.95  22 1.99   2 2.76   8 2.78
                             9 2.82   7 2.87   8 2.89   9 2.93   7 2.93   1 3.01
  11  0.958  0.995  0.500-  34 1.84  32 1.89  29 1.91  27 1.93  30 1.95  31 2.03  12 2.71  13 2.78
                             6 2.82  14 2.87  13 2.88  14 2.93   3 2.96   4 2.98  12 3.03   2 3.09
  12  0.960  0.525  0.498-  30 1.76  32 1.90  31 1.93  33 1.96  28 2.00  29 2.19  11 2.71   2 2.72
                            14 2.77   4 2.80  13 2.89  14 2.90  13 2.92   5 2.97   3 3.01  11 3.03
  13  0.477  0.014  0.504-  32 1.83  33 1.83  29 1.84  28 1.93  27 1.94  34 1.99   5 2.68  11 2.78
                             4 2.84  14 2.85  11 2.88  12 2.89  14 2.90   6 2.90  12 2.92
  14  0.461  0.503  0.501-  31 1.85  34 1.87  33 1.87  27 1.91  28 1.96  30 2.10  12 2.77   5 2.82
                            13 2.85  11 2.87   3 2.88  13 2.90  12 2.90   6 2.92  11 2.93   2 3.19
  15  0.363  0.181  0.828-  36 1.82  37 1.90  41 1.92  39 1.93  35 1.95  42 2.05   5 2.70  17 2.82
                             4 2.83   3 2.83  16 2.84  17 2.86  18 2.86  16 2.93  18 2.95   1 3.00
  16  0.380  0.698  0.850-  36 1.89  38 1.89  35 1.95  41 2.03  42 2.12  40 2.27  18 2.74  17 2.83
                            15 2.84  15 2.93  18 2.94  17 2.98   4 3.00   3 3.00   6 3.01
  17  0.868  0.183  0.843-  37 1.85  35 1.93  38 1.95  39 1.99  40 2.04  41 2.06   1 2.70  15 2.82
                            16 2.83  18 2.85  15 2.86   6 2.88   3 2.89  18 2.90  16 2.98   5 3.09
  18  0.851  0.679  0.833-  37 1.84  38 1.88  40 1.95  42 1.97  39 2.09  36 2.09  16 2.74   1 2.75
                             6 2.82  17 2.85  15 2.86   4 2.88  17 2.90   5 2.94  16 2.94  15 2.95
  19  0.009  0.984  0.234-  10 1.91   8 1.92   7 1.93   2 2.21
  20  0.988  0.478  0.224-   8 1.82   9 1.85   7 1.86   2 2.09
  21  0.483  0.994  0.223-   8 1.86   9 1.90  10 1.95
  22  0.502  0.483  0.234-   7 1.87   2 1.94  10 1.99   9 2.02
  23  0.299  0.125  0.097-   7 1.89   9 1.93   8 1.94   1 1.94
  24  0.333  0.633  0.101-  10 1.84   7 1.88   8 1.93
  25  0.821  0.120  0.098-  10 1.80   9 1.89   7 1.92   1 2.18
  26  0.829  0.657  0.094-   8 1.78  10 1.90   9 1.96   1 2.22
  27  0.302  0.182  0.570-  14 1.91  11 1.93  13 1.94   5 2.01   3 2.11   4 2.30
  28  0.313  0.689  0.574-   4 1.92  13 1.93  14 1.96  12 2.00   3 2.21   6 2.22
  29  0.799  0.154  0.575-  13 1.84  11 1.91   6 2.03   5 2.12  12 2.19   3 2.19
  30  0.840  0.679  0.576-  12 1.76  11 1.95   4 2.04  14 2.10   6 2.14   5 2.25
  31  0.129  0.349  0.435-  14 1.85  12 1.93  11 2.03
  32  0.150  0.854  0.437-  13 1.83  11 1.89  12 1.90   2 2.27
  33  0.599  0.316  0.435-  13 1.83  14 1.87  12 1.96   2 2.32
  34  0.627  0.816  0.434-  11 1.84  14 1.87  13 1.99   2 2.49
  35  0.218  0.353  0.910-  17 1.93  15 1.95  16 1.95   1 2.22
  36  0.230  0.895  0.904-  15 1.82  16 1.89   1 2.07  18 2.09
  37  0.705  0.363  0.894-  18 1.84  17 1.85  15 1.90
  38  0.728  0.855  0.913-   1 1.80  18 1.88  16 1.89  17 1.95
  39  0.023  0.026  0.755-  15 1.93  17 1.99   6 2.00   3 2.05  18 2.09   4 2.13
  40  0.993  0.498  0.755-  18 1.95   3 1.96  17 2.04   4 2.09   5 2.18  16 2.27
  41  0.516  0.003  0.758-  15 1.92   6 2.00  16 2.03  17 2.06   4 2.07   5 2.10
  42  0.516  0.517  0.750-   5 1.96  18 1.97   3 2.02  15 2.05   6 2.08  16 2.12
 

IMPORTANT INFORMATION: All symmetrisations will be switched off!
NOSYMM: (Re-)initialisation of all symmetry stuff for point group C_1.

 
 

Automatic generation of k-mesh.
 generate k-points for:    6    5    2
Space group operators:
 irot       det(A)        alpha          n_x          n_y          n_z        tau_x        tau_y        tau_z
    1     1.000000     0.000000     1.000000     0.000000     0.000000     0.000000     0.000000     0.000000
 
 Subroutine IBZKPT returns following result:
 ===========================================
 
 Found     30 irreducible k-points:
 
 Following reciprocal coordinates:
            Coordinates               Weight
  0.083333  0.000000  0.250000      2.000000
  0.250000  0.000000  0.250000      2.000000
  0.416667  0.000000  0.250000      2.000000
 -0.416667 -0.000000  0.250000      2.000000
 -0.250000 -0.000000  0.250000      2.000000
 -0.083333  0.000000  0.250000      2.000000
  0.083333  0.200000  0.250000      2.000000
  0.250000  0.200000  0.250000      2.000000
  0.416667  0.200000  0.250000      2.000000
 -0.416667  0.200000  0.250000      2.000000
 -0.250000  0.200000  0.250000      2.000000
 -0.083333  0.200000  0.250000      2.000000
  0.083333  0.400000  0.250000      2.000000
  0.250000  0.400000  0.250000      2.000000
  0.416667  0.400000  0.250000      2.000000
 -0.416667  0.400000  0.250000      2.000000
 -0.250000  0.400000  0.250000      2.000000
 -0.083333  0.400000  0.250000      2.000000
  0.083333 -0.400000  0.250000      2.000000
  0.250000 -0.400000  0.250000      2.000000
  0.416667 -0.400000  0.250000      2.000000
 -0.416667 -0.400000  0.250000      2.000000
 -0.250000 -0.400000  0.250000      2.000000
 -0.083333 -0.400000  0.250000      2.000000
  0.083333 -0.200000  0.250000      2.000000
  0.250000 -0.200000  0.250000      2.000000
  0.416667 -0.200000  0.250000      2.000000
 -0.416667 -0.200000  0.250000      2.000000
 -0.250000 -0.200000  0.250000      2.000000
 -0.083333 -0.200000  0.250000      2.000000
 
 Following cartesian coordinates:
            Coordinates               Weight
  0.014724  0.008097  0.018763      2.000000
  0.044173  0.024292  0.020665      2.000000
  0.073622  0.040487  0.022566      2.000000
 -0.073622 -0.040487  0.013059      2.000000
 -0.044173 -0.024292  0.014961      2.000000
 -0.014724 -0.008097  0.016862      2.000000
  0.014724  0.047842  0.020038      2.000000
  0.044173  0.064037  0.021939      2.000000
  0.073622  0.080232  0.023840      2.000000
 -0.073622 -0.000742  0.014333      2.000000
 -0.044173  0.015453  0.016235      2.000000
 -0.014724  0.031647  0.018136      2.000000
  0.014724  0.087587  0.021312      2.000000
  0.044173  0.103782  0.023213      2.000000
  0.073622  0.119977  0.025115      2.000000
 -0.073622  0.039003  0.015607      2.000000
 -0.044173  0.055198  0.017509      2.000000
 -0.014724  0.071392  0.019410      2.000000
  0.014724 -0.071392  0.016215      2.000000
  0.044173 -0.055198  0.018117      2.000000
  0.073622 -0.039003  0.020018      2.000000
 -0.073622 -0.119977  0.010511      2.000000
 -0.044173 -0.103782  0.012412      2.000000
 -0.014724 -0.087587  0.014314      2.000000
  0.014724 -0.031647  0.017489      2.000000
  0.044173 -0.015453  0.019391      2.000000
  0.073622  0.000742  0.021292      2.000000
 -0.073622 -0.080232  0.011785      2.000000
 -0.044173 -0.064037  0.013686      2.000000
 -0.014724 -0.047842  0.015588      2.000000
 


--------------------------------------------------------------------------------------------------------




 Dimension of arrays:
   k-points           NKPTS =     30   k-points in BZ     NKDIM =     30   number of bands    NBANDS=    160
   number of dos      NEDOS =    301   number of ions     NIONS =     42
   non local maximal  LDIM  =      6   non local SUM 2l+1 LMDIM =     18
   total plane-waves  NPLWV = 108864
   max r-space proj   IRMAX =   2595   max aug-charges    IRDMAX=  10940
   dimension x,y,z NGX =    36 NGY =   36 NGZ =   84
   dimension x,y,z NGXF=    72 NGYF=   72 NGZF=  168
   support grid    NGXF=    72 NGYF=   72 NGZF=  168
   ions per type =               6  12  24
   NGX,Y,Z   is equivalent  to a cutoff of  10.57, 10.42,  9.93 a.u.
   NGXF,Y,Z  is equivalent  to a cutoff of  21.15, 20.84, 19.87 a.u.

 SYSTEM =  LiCoO2                                  
 POSCAR =  Li6 Co12 O24                            

 Startparameter for this run:
   NWRITE =      2    write-flag & timer
   PREC   = normal    normal or accurate (medium, high low for compatibility)
   ISTART =      0    job   : 0-new  1-cont  2-samecut
   ICHARG =      2    charge: 1-file 2-atom 10-const
   ISPIN  =      2    spin polarized calculation?
   LNONCOLLINEAR =      F non collinear calculations
   LSORBIT =      F    spin-orbit coupling
   INIWAV =      1    electr: 0-lowe 1-rand  2-diag
   LASPH  =      F    aspherical Exc in radial PAW
   METAGGA=      F    non-selfconsistent MetaGGA calc.

 Electronic Relaxation 1
   ENCUT  =  600.0 eV  44.10 Ry    6.64 a.u.  11.30 11.47 28.08*2*pi/ulx,y,z
   ENINI  =  600.0     initial cutoff
   ENAUG  =  605.4 eV  augmentation charge cutoff
   NELM   =    600;   NELMIN=  2; NELMDL= -5     # of ELM steps 
   EDIFF  = 0.1E-05   stopping-criterion for ELM
   LREAL  =      T    real-space projection
   NLSPLINE    = F    spline interpolate recip. space projectors
   LCOMPAT=      F    compatible to vasp.4.4
   GGA_COMPAT  = T    GGA compatible to vasp.4.4-vasp.4.6
   LMAXPAW     = -100 max onsite density
   LMAXMIX     =    2 max onsite mixed and CHGCAR
   VOSKOWN=      0    Vosko Wilk Nusair interpolation
   ROPT   =   -0.00050  -0.00050  -0.00050
 Ionic relaxation
   EDIFFG = 0.1E-04   stopping-criterion for IOM
   NSW    =      0    number of steps for IOM
   NBLOCK =      1;   KBLOCK =      1    inner block; outer block 
   IBRION =     -1    ionic relax: 0-MD 1-quasi-New 2-CG
   NFREE  =      0    steps in history (QN), initial steepest desc. (CG)
   ISIF   =      2    stress and relaxation
   IWAVPR =     10    prediction:  0-non 1-charg 2-wave 3-comb
   ISYM   =      0    0-nonsym 1-usesym 2-fastsym
   LCORR  =      T    Harris-Foulkes like correction to forces

   POTIM  = 0.5000    time-step for ionic-motion
   TEIN   =    0.0    initial temperature
   TEBEG  =    0.0;   TEEND  =   0.0 temperature during run
   SMASS  =  -3.00    Nose mass-parameter (am)
   estimated Nose-frequenzy (Omega)   =  0.10E-29 period in steps =****** mass=  -0.732E-27a.u.
   SCALEE = 1.0000    scale energy and forces
   NPACO  =    256;   APACO  = 16.0  distance and # of slots for P.C.
   PSTRESS=    0.0 pullay stress

  Mass of Ions in am
   POMASS =   7.01 58.93 16.00
  Ionic Valenz
   ZVAL   =   1.00  9.00  6.00
  Atomic Wigner-Seitz radii
   RWIGS  =  -1.00 -1.00 -1.00
  virtual crystal weights 
   VCA    =   1.00  1.00  1.00
   NELECT =     258.0000    total number of electrons
   NUPDOWN=       6.0000    fix difference up-down

 DOS related values:
   EMIN   =  10.00;   EMAX   =-10.00  energy-range for DOS
   EFERMI =   0.00
   ISMEAR =     0;   SIGMA  =   0.05  broadening in eV -4-tet -1-fermi 0-gaus

 Electronic relaxation 2 (details)
   IALGO  =     58    algorithm
   LDIAG  =      T    sub-space diagonalisation (order eigenvalues)
   LSUBROT=      F    optimize rotation matrix (better conditioning)
   TURBO    =      0    0=normal 1=particle mesh
   IRESTART =      0    0=no restart 2=restart with 2 vectors
   NREBOOT  =      0    no. of reboots
   NMIN     =      0    reboot dimension
   EREF     =   0.00    reference energy to select bands
   IMIX   =      4    mixing-type and parameters
     AMIX     =   0.40;   BMIX     =  1.00
     AMIX_MAG =   1.60;   BMIX_MAG =  1.00
     AMIN     =   0.10
     WC   =   100.;   INIMIX=   1;  MIXPRE=   1;  MAXMIX= -45

 Intra band minimization:
   WEIMIN = 0.0000     energy-eigenvalue tresh-hold
   EBREAK =  0.16E-08  absolut break condition
   DEPER  =   0.30     relativ break condition  

   TIME   =   0.40     timestep for ELM

  volume/ion in A,a.u.               =       9.52        64.22
  Fermi-wavevector in a.u.,A,eV,Ry     =   1.414824  2.673629 27.235142  2.001726
  Thomas-Fermi vector in A             =   2.536326
 
 Write flags
   LWAVE        =      F    write WAVECAR
   LDOWNSAMPLE  =      F    k-point downsampling of WAVECAR
   LCHARG       =      F    write CHGCAR
   LVTOT        =      F    write LOCPOT, total local potential
   LVHAR        =      F    write LOCPOT, Hartree potential only
   LELF         =      F    write electronic localiz. function (ELF)
   LORBIT       =     11    0 simple, 1 ext, 2 COOP (PROOUT), +10 PAW based schemes


 Dipole corrections
   LMONO  =      F    monopole corrections only (constant potential shift)
   LDIPOL =      F    correct potential (dipole corrections)
   IDIPOL =      0    1-x, 2-y, 3-z, 4-all directions 
   EPSILON=  1.0000000 bulk dielectric constant

 LDA+U is selected, type is set to LDAUTYPE =  2
   angular momentum for each species LDAUL =    -1    2   -1
   U (eV)           for each species LDAUU =   0.0  5.1  0.0
   J (eV)           for each species LDAUJ =   0.0  0.0  0.0
 Exchange correlation treatment:
   GGA     =    --    GGA type
   LEXCH   =     8    internal setting for exchange type
   VOSKOWN=      0    Vosko Wilk Nusair interpolation
   LHFCALC =     F    Hartree Fock is set to
   LHFONE  =     F    Hartree Fock one center treatment
   AEXX    =    0.0000 exact exchange contribution

 Linear response parameters
   LEPSILON=     F    determine dielectric tensor
   LRPA    =     F    only Hartree local field effects (RPA)
   LNABLA  =     F    use nabla operator in PAW spheres
   LVEL    =     F    velocity operator in full k-point grid
   LINTERFAST=   F  fast interpolation
   KINTER  =     0    interpolate to denser k-point grid
   CSHIFT  =0.1000    complex shift for real part using Kramers Kronig
   OMEGAMAX=  -1.0    maximum frequency
   DEG_THRESHOLD= 0.2000000E-02 threshold for treating states as degnerate
   RTIME   =   -0.100 relaxation time in fs
  (WPLASMAI=    0.000 imaginary part of plasma frequency in eV, 0.658/RTIME)
   DFIELD  = 0.0000000 0.0000000 0.0000000 field for delta impulse in time
 
 Orbital magnetization related:
   ORBITALMAG=     F  switch on orbital magnetization
   LCHIMAG   =     F  perturbation theory with respect to B field
   DQ        =  0.001000  dq finite difference perturbation B field
   LLRAUG    =     F  two centre corrections for induced B field



--------------------------------------------------------------------------------------------------------


 Static calculation
 charge density and potential will be updated during run
 spin polarized calculation
 Conjugate gradient for all bands (Freysoldt, et al. PRB 79, 241103 (2009))
 preconditioned conjugated gradient                                        
 perform sub-space diagonalisation
    before iterative eigenvector-optimisation
 modified Broyden-mixing scheme, WC =      100.0
 initial mixing is a Kerker type mixing with AMIX =  0.4000 and BMIX =      1.0000
 Hartree-type preconditioning will be used
 using additional bands           31
 real space projection scheme for non local part
 use partial core corrections
 no Harris-corrections to forces 
 use gradient corrections 
 use of overlap-Matrix (Vanderbilt PP)
 Gauss-broadening in eV      SIGMA  =   0.05


--------------------------------------------------------------------------------------------------------


  energy-cutoff  :      600.00
  volume of cell :      399.70
      direct lattice vectors                 reciprocal lattice vectors
     5.659524441  0.000000000  0.000000000     0.176693291  0.097169592  0.011408462
    -2.767313004  5.032084942  0.000000000     0.000000000  0.198724785  0.006370696
    -0.658752501 -0.449929088 14.034895897     0.000000000  0.000000000  0.071250974

  length of vectors
     5.659524441  5.742812910 14.057549355     0.201971785  0.198826875  0.071250974


 
 k-points in units of 2pi/SCALE and weight: read from INCAR                         
   0.01472444  0.00809747  0.01876345       0.033
   0.04417332  0.02429240  0.02066486       0.033
   0.07362220  0.04048733  0.02256627       0.033
  -0.07362220 -0.04048733  0.01305922       0.033
  -0.04417332 -0.02429240  0.01496063       0.033
  -0.01472444 -0.00809747  0.01686204       0.033
   0.01472444  0.04784242  0.02003759       0.033
   0.04417332  0.06403736  0.02193900       0.033
   0.07362220  0.08023229  0.02384041       0.033
  -0.07362220 -0.00074237  0.01433336       0.033
  -0.04417332  0.01545256  0.01623477       0.033
  -0.01472444  0.03164749  0.01813618       0.033
   0.01472444  0.08758738  0.02131173       0.033
   0.04417332  0.10378231  0.02321314       0.033
   0.07362220  0.11997724  0.02511455       0.033
  -0.07362220  0.03900258  0.01560750       0.033
  -0.04417332  0.05519752  0.01750891       0.033
  -0.01472444  0.07139245  0.01941032       0.033
   0.01472444 -0.07139245  0.01621517       0.033
   0.04417332 -0.05519752  0.01811658       0.033
   0.07362220 -0.03900258  0.02001799       0.033
  -0.07362220 -0.11997724  0.01051094       0.033
  -0.04417332 -0.10378231  0.01241235       0.033
  -0.01472444 -0.08758738  0.01431376       0.033
   0.01472444 -0.03164749  0.01748931       0.033
   0.04417332 -0.01545256  0.01939072       0.033
   0.07362220  0.00074237  0.02129213       0.033
  -0.07362220 -0.08023229  0.01178508       0.033
  -0.04417332 -0.06403736  0.01368649       0.033
  -0.01472444 -0.04784242  0.01558790       0.033
 
 k-points in reciprocal lattice and weights: read from INCAR                         
   0.08333333  0.00000000  0.25000000       0.033
   0.25000000  0.00000000  0.25000000       0.033
   0.41666667  0.00000000  0.25000000       0.033
  -0.41666667 -0.00000000  0.25000000       0.033
  -0.25000000 -0.00000000  0.25000000       0.033
  -0.08333333  0.00000000  0.25000000       0.033
   0.08333333  0.20000000  0.25000000       0.033
   0.25000000  0.20000000  0.25000000       0.033
   0.41666667  0.20000000  0.25000000       0.033
  -0.41666667  0.20000000  0.25000000       0.033
  -0.25000000  0.20000000  0.25000000       0.033
  -0.08333333  0.20000000  0.25000000       0.033
   0.08333333  0.40000000  0.25000000       0.033
   0.25000000  0.40000000  0.25000000       0.033
   0.41666667  0.40000000  0.25000000       0.033
  -0.41666667  0.40000000  0.25000000       0.033
  -0.25000000  0.40000000  0.25000000       0.033
  -0.08333333  0.40000000  0.25000000       0.033
   0.08333333 -0.40000000  0.25000000       0.033
   0.25000000 -0.40000000  0.25000000       0.033
   0.41666667 -0.40000000  0.25000000       0.033
  -0.41666667 -0.40000000  0.25000000       0.033
  -0.25000000 -0.40000000  0.25000000       0.033
  -0.08333333 -0.40000000  0.25000000       0.033
   0.08333333 -0.20000000  0.25000000       0.033
   0.25000000 -0.20000000  0.25000000       0.033
   0.41666667 -0.20000000  0.25000000       0.033
  -0.41666667 -0.20000000  0.25000000       0.033
  -0.25000000 -0.20000000  0.25000000       0.033
  -0.08333333 -0.20000000  0.25000000       0.033
 
 position of ions in fractional coordinates (direct lattice) 
   0.01624994  0.99297423  0.99618052
   0.82086314  0.62774864  0.32114951
   0.16172741  0.35333921  0.67122339
   0.17202457  0.82610093  0.66801634
   0.62194663  0.31800224  0.66451439
   0.68378878  0.85820020  0.66996434
   0.16397621  0.31427723  0.16762576
   0.14238103  0.79086780  0.16174542
   0.66283012  0.30911860  0.15311550
   0.66694199  0.82097432  0.16463179
   0.95802531  0.99532935  0.49983841
   0.96001983  0.52458439  0.49770800
   0.47653822  0.01431747  0.50407215
   0.46143258  0.50295353  0.50140093
   0.36251565  0.18104290  0.82807098
   0.38000011  0.69766466  0.84959592
   0.86817025  0.18250655  0.84286266
   0.85067184  0.67898760  0.83253844
   0.00873094  0.98397590  0.23399319
   0.98787377  0.47816194  0.22397173
   0.48277999  0.99444983  0.22260442
   0.50195743  0.48264912  0.23435086
   0.29887043  0.12542201  0.09749129
   0.33250748  0.63338017  0.10137802
   0.82102008  0.11997331  0.09847312
   0.82907330  0.65721049  0.09416814
   0.30239182  0.18180697  0.57028564
   0.31299022  0.68945597  0.57375919
   0.79930295  0.15421588  0.57524043
   0.83990496  0.67887655  0.57572281
   0.12896547  0.34923613  0.43468152
   0.15011702  0.85373577  0.43704850
   0.59919334  0.31608186  0.43487036
   0.62703920  0.81638123  0.43448987
   0.21848340  0.35317654  0.90975307
   0.22991755  0.89495592  0.90361838
   0.70546677  0.36268806  0.89433441
   0.72756064  0.85502357  0.91272426
   0.02263996  0.02568034  0.75475371
   0.99334716  0.49752031  0.75481786
   0.51558495  0.00307480  0.75845877
   0.51592142  0.51735965  0.74980177
 
 position of ions in cartesian coordinates  (Angst):
  -3.31213999  4.54852009 13.98128986
   2.69695997  3.01438999  4.50729990
  -0.50467002  1.47602999  9.42055035
  -1.75256002  3.85645008  9.37553978
   2.20215988  1.30122995  9.32639027
   1.05367005  4.01709986  9.40287971
  -0.05210000  1.50604999  2.35261011
  -1.48932004  3.90693998  2.27008009
   2.79501009  1.48661995  2.14896011
   1.39423001  4.05713987  2.31059003
   2.33831000  4.78368998  7.01518011
   3.65370011  2.41581988  6.98528004
   2.32529998 -0.15475000  7.07460022
   0.88936001  2.30531001  7.03710985
   1.00516999  0.53845000 11.62189007
  -0.33971000  3.12844992 11.92399025
   3.85314012  0.53916001 11.82948971
   2.38699007  3.04214001 11.68459034
  -2.82769990  4.84616995  3.28407002
   4.12013006  2.30538011  3.14341998
  -0.16629000  4.90399981  3.12422991
   1.35081995  2.32329011  3.28908992
   1.28015995  0.58727002  1.36828005
   0.06229000  3.14160991  1.42282999
   4.24971008  0.55940998  1.38206005
   2.81141996  3.26477003  1.32164001
   0.83260000  0.65828002  8.00389957
  -0.51453000  3.21125007  8.05265045
   3.71796989  0.51721001  8.07343960
   2.49553990  3.15713000  8.08020973
  -0.52291000  1.56181002  6.10070992
  -1.80086994  4.09943008  6.13393021
   2.22997999  1.39488995  6.10336018
   1.00334001  3.91261005  6.09802008
  -0.34014001  1.36789000 12.76828957
  -1.77066004  4.09693003 12.68218994
   2.39979005  1.42269003 12.55189037
   1.15026999  3.89189005 12.80998993
  -0.44013000 -0.21036001 10.59288979
   3.74783993  2.16394997 10.59379005
   2.40982008 -0.32578000 10.64488983
   0.99423999  2.26604009 10.52338982
 


--------------------------------------------------------------------------------------------------------


 k-point  1 :   0.0833 0.0000 0.2500  plane waves:   13373
 k-point  2 :   0.2500 0.0000 0.2500  plane waves:   13355
 k-point  3 :   0.4167 0.0000 0.2500  plane waves:   13336
 k-point  4 :  -0.4167-0.0000 0.2500  plane waves:   13322
 k-point  5 :  -0.2500-0.0000 0.2500  plane waves:   13362
 k-point  6 :  -0.0833 0.0000 0.2500  plane waves:   13351
 k-point  7 :   0.0833 0.2000 0.2500  plane waves:   13362
 k-point  8 :   0.2500 0.2000 0.2500  plane waves:   13339
 k-point  9 :   0.4167 0.2000 0.2500  plane waves:   13331
 k-point 10 :  -0.4167 0.2000 0.2500  plane waves:   13357
 k-point 11 :  -0.2500 0.2000 0.2500  plane waves:   13343
 k-point 12 :  -0.0833 0.2000 0.2500  plane waves:   13362
 k-point 13 :   0.0833 0.4000 0.2500  plane waves:   13332
 k-point 14 :   0.2500 0.4000 0.2500  plane waves:   13309
 k-point 15 :   0.4167 0.4000 0.2500  plane waves:   13335
 k-point 16 :  -0.4167 0.4000 0.2500  plane waves:   13353
 k-point 17 :  -0.2500 0.4000 0.2500  plane waves:   13328
 k-point 18 :  -0.0833 0.4000 0.2500  plane waves:   13311
 k-point 19 :   0.0833-0.4000 0.2500  plane waves:   13322
 k-point 20 :   0.2500-0.4000 0.2500  plane waves:   13321
 k-point 21 :   0.4167-0.4000 0.2500  plane waves:   13335
 k-point 22 :  -0.4167-0.4000 0.2500  plane waves:   13333
 k-point 23 :  -0.2500-0.4000 0.2500  plane waves:   13310
 k-point 24 :  -0.0833-0.4000 0.2500  plane waves:   13316
 k-point 25 :   0.0833-0.2000 0.2500  plane waves:   13367
 k-point 26 :   0.2500-0.2000 0.2500  plane waves:   13345
 k-point 27 :   0.4167-0.2000 0.2500  plane waves:   13327
 k-point 28 :  -0.4167-0.2000 0.2500  plane waves:   13312
 k-point 29 :  -0.2500-0.2000 0.2500  plane waves:   13337
 k-point 30 :  -0.0833-0.2000 0.2500  plane waves:   13362

 maximum and minimum number of plane-waves per node :      3379     3268

 maximum number of plane-waves:     13373
 maximum index in each direction: 
   IXMAX=   11   IYMAX=   11   IZMAX=   27
   IXMIN=  -11   IYMIN=  -11   IZMIN=  -28


 real space projection operators:
  total allocation   :       6914.13 KBytes
  max/ min on nodes  :       1732.61       1725.80


 parallel 3D FFT for wavefunctions:
    minimum data exchange during FFTs selected (reduces bandwidth)
 parallel 3D FFT for charge:
    minimum data exchange during FFTs selected (reduces bandwidth)


 total amount of memory used by VASP MPI-rank0   140203. kBytes
=======================================================================

   base      :      30000. kBytes
   nonlr-proj:       3951. kBytes
   fftplans  :       1580. kBytes
   grid      :       4337. kBytes
   one-center:        342. kBytes
   wavefun   :      99993. kBytes
 
     INWAV:  cpu time    0.0000: real time    0.0002
 Broyden mixing: mesh for mixing (old mesh)
   NGX = 23   NGY = 23   NGZ = 57
  (NGX  = 72   NGY  = 72   NGZ  =168)
  gives a total of  30153 points

 initial charge density was supplied:
 charge density of overlapping atoms calculated
 number of electron     258.0000000 magnetization       6.0000000
 keeping initial charge density in first step


--------------------------------------------------------------------------------------------------------


 Maximum index for non-local projection operator          626
 Maximum index for augmentation-charges          956 (set IRDMAX)


--------------------------------------------------------------------------------------------------------


 First call to EWALD:  gamma=   0.241
 Maximum number of real-space cells 4x 4x 2
 Maximum number of reciprocal cells 2x 2x 5

    FEWALD:  cpu time    0.0051: real time    0.0052


--------------------------------------- Iteration      1(   1)  ---------------------------------------


    POTLOK:  cpu time    0.0668: real time    0.0817
    SETDIJ:  cpu time    0.0228: real time    0.0234
    TRIAL :  cpu time   16.3718: real time   16.4481
    CORREC:  cpu time    0.0027: real time    0.0027
    --------------------------------------------
      LOOP:  cpu time   16.6317: real time   16.7237

 eigenvalue-minimisations  : 19200
 total energy-change (2. order) : 0.3459503E+04  (-0.1390775E+05)
 number of electron     258.0000000 magnetization       6.0000000
 augmentation part      258.0000000 magnetization       6.0000000

 Free energy of the ion-electron system (eV)
  ---------------------------------------------------
  alpha Z        PSCENC =       733.46198431
  Ewald energy   TEWEN  =    -14091.14330524
  -Hartree energ DENC   =     -6883.17546127
  -exchange      EXHF   =         0.00000000
  -V(xc)+E(xc)   XCENC  =       840.51654707
  PAW double counting   =     17015.18481625   -17491.61297812
  entropy T*S    EENTRO =        -0.00520541
  eigenvalues    EBANDS =      3167.40587908
  atomic energy  EATOM  =     20168.87094289
  ---------------------------------------------------
  free energy    TOTEN  =      3459.50321954 eV

  energy without entropy =     3459.50842496  energy(sigma->0) =     3459.50582225


--------------------------------------------------------------------------------------------------------




--------------------------------------- Iteration      1(   2)  ---------------------------------------


    TRIAL :  cpu time   16.9127: real time   17.0877
    CORREC:  cpu time    0.0222: real time    0.0222
    --------------------------------------------
      LOOP:  cpu time   16.9392: real time   17.1142

 eigenvalue-minimisations  : 20816
 total energy-change (2. order) :-0.3060329E+04  (-0.2820862E+04)
 number of electron     258.0000000 magnetization       6.0000000
 augmentation part      258.0000000 magnetization       6.0000000

 Free energy of the ion-electron system (eV)
  ---------------------------------------------------
  alpha Z        PSCENC =       733.46198431
  Ewald energy   TEWEN  =    -14091.14330524
  -Hartree energ DENC   =     -6883.17546127
  -exchange      EXHF   =         0.00000000
  -V(xc)+E(xc)   XCENC  =       840.51654707
  PAW double counting   =     17015.18481625   -17491.61297812
  entropy T*S    EENTRO =        -0.02090241
  eigenvalues    EBANDS =       107.09280542
  atomic energy  EATOM  =     20168.87094289
  ---------------------------------------------------
  free energy    TOTEN  =       399.17444888 eV

  energy without entropy =      399.19535129  energy(sigma->0) =      399.18490008


--------------------------------------------------------------------------------------------------------




--------------------------------------- Iteration      1(   3)  ---------------------------------------


    TRIAL :  cpu time   17.4122: real time   17.4701
    CORREC:  cpu time    0.0039: real time    0.0040
    --------------------------------------------
      LOOP:  cpu time   17.4216: real time   17.4796

 eigenvalue-minimisations  : 21392
 total energy-change (2. order) :-0.6208087E+03  (-0.5664711E+03)
 number of electron     258.0000000 magnetization       6.0000000
 augmentation part      258.0000000 magnetization       6.0000000

 Free energy of the ion-electron system (eV)
  ---------------------------------------------------
  alpha Z        PSCENC =       733.46198431
  Ewald energy   TEWEN  =    -14091.14330524
  -Hartree energ DENC   =     -6883.17546127
  -exchange      EXHF   =         0.00000000
  -V(xc)+E(xc)   XCENC  =       840.51654707
  PAW double counting   =     17015.18481625   -17491.61297812
  entropy T*S    EENTRO =        -0.03130719
  eigenvalues    EBANDS =      -513.70551942
  atomic energy  EATOM  =     20168.87094289
  ---------------------------------------------------
  free energy    TOTEN  =      -221.63428074 eV

  energy without entropy =     -221.60297355  energy(sigma->0) =     -221.61862714


--------------------------------------------------------------------------------------------------------




--------------------------------------- Iteration      1(   4)  ---------------------------------------


    TRIAL :  cpu time   17.2196: real time   17.2581
    CORREC:  cpu time    0.0038: real time    0.0038
    --------------------------------------------
      LOOP:  cpu time   17.2275: real time   17.2660

 eigenvalue-minimisations  : 21136
 total energy-change (2. order) :-0.4938046E+02  (-0.4837459E+02)
 number of electron     258.0000000 magnetization       6.0000000
 augmentation part      258.0000000 magnetization       6.0000000

 Free energy of the ion-electron system (eV)
  ---------------------------------------------------
  alpha Z        PSCENC =       733.46198431
  Ewald energy   TEWEN  =    -14091.14330524
  -Hartree energ DENC   =     -6883.17546127
  -exchange      EXHF   =         0.00000000
  -V(xc)+E(xc)   XCENC  =       840.51654707
  PAW double counting   =     17015.18481625   -17491.61297812
  entropy T*S    EENTRO =        -0.03406061
  eigenvalues    EBANDS =      -563.08322509
  atomic energy  EATOM  =     20168.87094289
  ---------------------------------------------------
  free energy    TOTEN  =      -271.01473982 eV

  energy without entropy =     -270.98067922  energy(sigma->0) =     -270.99770952


--------------------------------------------------------------------------------------------------------




--------------------------------------- Iteration      1(   5)  ---------------------------------------


    TRIAL :  cpu time   19.4696: real time   19.4804
    CORREC:  cpu time    0.0042: real time    0.0042
    CHARGE:  cpu time    0.3323: real time    0.3326
    --------------------------------------------
      LOOP:  cpu time   19.8102: real time   19.8213

 eigenvalue-minimisations  : 24608
 total energy-change (2. order) :-0.1780698E+01  (-0.1777265E+01)
 number of electron     258.0000020 magnetization       6.0000000
 augmentation part       67.7455039 magnetization       4.2695485

 Free energy of the ion-electron system (eV)
  ---------------------------------------------------
  alpha Z        PSCENC =       733.46198431
  Ewald energy   TEWEN  =    -14091.14330524
  -Hartree energ DENC   =     -6883.17546127
  -exchange      EXHF   =         0.00000000
  -V(xc)+E(xc)   XCENC  =       840.51654707
  PAW double counting   =     17015.18481625   -17491.61297812
  entropy T*S    EENTRO =        -0.03412898
  eigenvalues    EBANDS =      -564.86385512
  atomic energy  EATOM  =     20168.87094289
  ---------------------------------------------------
  free energy    TOTEN  =      -272.79543822 eV

  energy without entropy =     -272.76130924  energy(sigma->0) =     -272.77837373


--------------------------------------------------------------------------------------------------------




--------------------------------------- Iteration      1(   6)  ---------------------------------------


    POTLOK:  cpu time    0.0445: real time    0.0445
    SETDIJ:  cpu time    0.0130: real time    0.0130
    TRIAL :  cpu time    9.4184: real time    9.4268
    CORREC:  cpu time    3.3477: real time    3.3509
    CHARGE:  cpu time    0.3201: real time    0.3202
    --------------------------------------------
      LOOP:  cpu time   13.1446: real time   13.1563

 eigenvalue-minimisations  :     0
 total energy-change (2. order) : 0.4039405E+03  (-0.2122745E+03)
 number of electron     258.0000017 magnetization       6.0000002
 augmentation part       69.7761445 magnetization       4.3627120

 Free energy of the ion-electron system (eV)
  ---------------------------------------------------
  alpha Z        PSCENC =       733.46198431
  Ewald energy   TEWEN  =    -14091.14330524
  -Hartree energ DENC   =     -6617.31203368
  -exchange      EXHF   =         0.00000000
  -V(xc)+E(xc)   XCENC  =       874.36933550
  PAW double counting   =     23146.87914715   -23349.93602612
  entropy T*S    EENTRO =        -0.02639483
  eigenvalues    EBANDS =      -734.01083000
  atomic energy  EATOM  =     20168.87094289
  ---------------------------------------------------
  free energy    TOTEN  =       131.14508582 eV

  energy without entropy =      131.17148065  energy(sigma->0) =      131.15828323


--------------------------------------------------------------------------------------------------------




--------------------------------------- Iteration      1(   7)  ---------------------------------------


    POTLOK:  cpu time    0.0434: real time    0.0435
    SETDIJ:  cpu time    0.0123: real time    0.0122
    TRIAL :  cpu time    9.1954: real time    9.2021
    CORREC:  cpu time    3.3267: real time    3.3290
    CHARGE:  cpu time    0.3193: real time    0.3194
    --------------------------------------------
      LOOP:  cpu time   12.9013: real time   12.9104

 eigenvalue-minimisations  :     0
 total energy-change (2. order) :-0.4990627E+02  (-0.3023243E+03)
 number of electron     258.0000020 magnetization       5.9999999
 augmentation part       73.4599583 magnetization       4.2283820

 Free energy of the ion-electron system (eV)
  ---------------------------------------------------
  alpha Z        PSCENC =       733.46198431
  Ewald energy   TEWEN  =    -14091.14330524
  -Hartree energ DENC   =     -6634.79609886
  -exchange      EXHF   =         0.00000000
  -V(xc)+E(xc)   XCENC  =       866.98203383
  PAW double counting   =     23086.79273463   -23369.18309860
  entropy T*S    EENTRO =        -0.03017483
  eigenvalues    EBANDS =      -679.71998376
  atomic energy  EATOM  =     20168.87094289
  ---------------------------------------------------
  free energy    TOTEN  =        81.23881436 eV

  energy without entropy =       81.26898919  energy(sigma->0) =       81.25390178


--------------------------------------------------------------------------------------------------------




--------------------------------------- Iteration      1(   8)  ---------------------------------------


    POTLOK:  cpu time    0.0430: real time    0.0430
    SETDIJ:  cpu time    0.0123: real time    0.0123
    TRIAL :  cpu time    9.2707: real time    9.2774
    CORREC:  cpu time    3.3034: real time    3.3073
    CHARGE:  cpu time    0.3112: real time    0.3114
    --------------------------------------------
      LOOP:  cpu time   12.9448: real time   12.9555

 eigenvalue-minimisations  :     0
 total energy-change (2. order) :-0.9695993E+02  (-0.2984482E+03)
 number of electron     258.0000017 magnetization       6.0000000
 augmentation part       74.4750281 magnetization       2.2965505

 Free energy of the ion-electron system (eV)
  ---------------------------------------------------
  alpha Z        PSCENC =       733.46198431
  Ewald energy   TEWEN  =    -14091.14330524
  -Hartree energ DENC   =     -6672.87486045
  -exchange      EXHF   =         0.00000000
  -V(xc)+E(xc)   XCENC  =       851.82552480
  PAW double counting   =     22974.42688985   -23409.43964698
  entropy T*S    EENTRO =        -0.02349520
  eigenvalues    EBANDS =      -570.81846944
  atomic energy  EATOM  =     20168.87094289
  ---------------------------------------------------
  free energy    TOTEN  =       -15.72111510 eV

  energy without entropy =      -15.69761990  energy(sigma->0) =      -15.70936750


--------------------------------------------------------------------------------------------------------




--------------------------------------- Iteration      1(   9)  ---------------------------------------


    POTLOK:  cpu time    0.0437: real time    0.0437
    SETDIJ:  cpu time    0.0124: real time    0.0123
    TRIAL :  cpu time    9.2124: real time    9.2259
    CORREC:  cpu time    3.3071: real time    3.3120
    CHARGE:  cpu time    0.3177: real time    0.3180
    --------------------------------------------
      LOOP:  cpu time   12.8976: real time   12.9164

 eigenvalue-minimisations  :     0
 total energy-change (2. order) : 0.4629954E+02  (-0.5510732E+02)
 number of electron     258.0000017 magnetization       5.9999999
 augmentation part       76.7189550 magnetization       2.1042208

 Free energy of the ion-electron system (eV)
  ---------------------------------------------------
  alpha Z        PSCENC =       733.46198431
  Ewald energy   TEWEN  =    -14091.14330524
  -Hartree energ DENC   =     -6569.12987637
  -exchange      EXHF   =         0.00000000
  -V(xc)+E(xc)   XCENC  =       828.37234139
  PAW double counting   =     26382.33949903   -26837.21686928
  entropy T*S    EENTRO =        -0.01948632
  eigenvalues    EBANDS =      -584.95279254
  atomic energy  EATOM  =     20168.87094289
  ---------------------------------------------------
  free energy    TOTEN  =        30.57842898 eV

  energy without entropy =       30.59791529  energy(sigma->0) =       30.58817214


--------------------------------------------------------------------------------------------------------




--------------------------------------- Iteration      1(  10)  ---------------------------------------


    POTLOK:  cpu time    0.0433: real time    0.0433
    SETDIJ:  cpu time    0.0122: real time    0.0122
    TRIAL :  cpu time    9.0016: real time    9.0145
    CORREC:  cpu time    3.4784: real time    3.4832
    CHARGE:  cpu time    0.3199: real time    0.3203
    --------------------------------------------
      LOOP:  cpu time   12.8596: real time   12.8777

 eigenvalue-minimisations  :     0
 total energy-change (2. order) :-0.5542000E+02  (-0.7592297E+02)
 number of electron     258.0000017 magnetization       5.9999998
 augmentation part       77.7977595 magnetization       2.0950061

 Free energy of the ion-electron system (eV)
  ---------------------------------------------------
  alpha Z        PSCENC =       733.46198431
  Ewald energy   TEWEN  =    -14091.14330524
  -Hartree energ DENC   =     -6716.08943795
  -exchange      EXHF   =         0.00000000
  -V(xc)+E(xc)   XCENC  =       830.37534866
  PAW double counting   =     25615.50150738   -26151.02372059
  entropy T*S    EENTRO =        -0.02120521
  eigenvalues    EBANDS =      -414.77539957
  atomic energy  EATOM  =     20168.87094289
  ---------------------------------------------------
  free energy    TOTEN  =       -24.84156643 eV

  energy without entropy =      -24.82036122  energy(sigma->0) =      -24.83096382


--------------------------------------------------------------------------------------------------------




--------------------------------------- Iteration      1(  11)  ---------------------------------------


    POTLOK:  cpu time    0.0431: real time    0.0431
    SETDIJ:  cpu time    0.0124: real time    0.0124
    TRIAL :  cpu time    9.0811: real time    9.0955
    CORREC:  cpu time    3.4404: real time    3.4459
    CHARGE:  cpu time    0.3176: real time    0.3180
    --------------------------------------------
      LOOP:  cpu time   12.8986: real time   12.9189

 eigenvalue-minimisations  :     0
 total energy-change (2. order) :-0.4133154E+02  (-0.5719257E+02)
 number of electron     258.0000014 magnetization       5.9999999
 augmentation part       74.6526462 magnetization       1.4534702

 Free energy of the ion-electron system (eV)
  ---------------------------------------------------
  alpha Z        PSCENC =       733.46198431
  Ewald energy   TEWEN  =    -14091.14330524
  -Hartree energ DENC   =     -6889.16061112
  -exchange      EXHF   =         0.00000000
  -V(xc)+E(xc)   XCENC  =       837.59630127
  PAW double counting   =     23673.02993157   -24237.51451891
  entropy T*S    EENTRO =        -0.01834568
  eigenvalues    EBANDS =      -261.29262314
  atomic energy  EATOM  =     20168.87094289
  ---------------------------------------------------
  free energy    TOTEN  =       -66.17310359 eV

  energy without entropy =      -66.15475791  energy(sigma->0) =      -66.16393075


--------------------------------------------------------------------------------------------------------




--------------------------------------- Iteration      1(  12)  ---------------------------------------


    POTLOK:  cpu time    0.0430: real time    0.0430
    SETDIJ:  cpu time    0.0123: real time    0.0123
    TRIAL :  cpu time    8.9918: real time    9.0051
    CORREC:  cpu time    3.3163: real time    3.3202
    CHARGE:  cpu time    0.3180: real time    0.3183
    --------------------------------------------
      LOOP:  cpu time   12.6858: real time   12.7033

 eigenvalue-minimisations  :     0
 total energy-change (2. order) : 0.6253857E+02  (-0.3784837E+02)
 number of electron     258.0000013 magnetization       6.0000001
 augmentation part       74.7009675 magnetization       1.5302824

 Free energy of the ion-electron system (eV)
  ---------------------------------------------------
  alpha Z        PSCENC =       733.46198431
  Ewald energy   TEWEN  =    -14091.14330524
  -Hartree energ DENC   =     -6701.36690230
  -exchange      EXHF   =         0.00000000
  -V(xc)+E(xc)   XCENC  =       834.20798439
  PAW double counting   =     27193.51404946   -27649.81035531
  entropy T*S    EENTRO =        -0.02169150
  eigenvalues    EBANDS =      -491.35058306
  atomic energy  EATOM  =     20168.87094289
  ---------------------------------------------------
  free energy    TOTEN  =        -3.63453056 eV

  energy without entropy =       -3.61283906  energy(sigma->0) =       -3.62368481


--------------------------------------------------------------------------------------------------------




--------------------------------------- Iteration      1(  13)  ---------------------------------------


    POTLOK:  cpu time    0.0431: real time    0.0432
    SETDIJ:  cpu time    0.0123: real time    0.0123
    TRIAL :  cpu time   10.1389: real time   10.5351
    CORREC:  cpu time    3.5043: real time    3.8620
    CHARGE:  cpu time    0.3183: real time    0.3341
    --------------------------------------------
      LOOP:  cpu time   14.0213: real time   14.7909

 eigenvalue-minimisations  :     0
 total energy-change (2. order) :-0.5271958E+02  (-0.6577885E+02)
 number of electron     258.0000015 magnetization       6.0000001
 augmentation part       76.0205223 magnetization       2.3625881

 Free energy of the ion-electron system (eV)
  ---------------------------------------------------
  alpha Z        PSCENC =       733.46198431
  Ewald energy   TEWEN  =    -14091.14330524
  -Hartree energ DENC   =     -6688.39130612
  -exchange      EXHF   =         0.00000000
  -V(xc)+E(xc)   XCENC  =       835.24755447
  PAW double counting   =     26636.50272710   -27090.27070758
  entropy T*S    EENTRO =        -0.02453848
  eigenvalues    EBANDS =      -560.61030437
  atomic energy  EATOM  =     20168.87094289
  ---------------------------------------------------
  free energy    TOTEN  =       -56.35410605 eV

  energy without entropy =      -56.32956757  energy(sigma->0) =      -56.34183681


--------------------------------------------------------------------------------------------------------




--------------------------------------- Iteration      1(  14)  ---------------------------------------


    POTLOK:  cpu time    0.0447: real time    0.0483
    SETDIJ:  cpu time    0.0124: real time    0.0124
    TRIAL :  cpu time    9.3551: real time    9.4229
    CORREC:  cpu time    3.3274: real time    3.3342
    CHARGE:  cpu time    0.3221: real time    0.3224
    --------------------------------------------
      LOOP:  cpu time   13.0661: real time   13.1446

 eigenvalue-minimisations  :     0
 total energy-change (2. order) :-0.7345221E+02  (-0.5587807E+02)
 number of electron     258.0000014 magnetization       5.9999999
 augmentation part       76.9518563 magnetization       3.0631835

 Free energy of the ion-electron system (eV)
  ---------------------------------------------------
  alpha Z        PSCENC =       733.46198431
  Ewald energy   TEWEN  =    -14091.14330524
  -Hartree energ DENC   =     -6858.46139405
  -exchange      EXHF   =         0.00000000
  -V(xc)+E(xc)   XCENC  =       844.00582248
  PAW double counting   =     24104.57288373   -24582.53974639
  entropy T*S    EENTRO =        -0.02827518
  eigenvalues    EBANDS =      -448.54896803
  atomic energy  EATOM  =     20168.87094289
  ---------------------------------------------------
  free energy    TOTEN  =      -129.80631878 eV

  energy without entropy =     -129.77804360  energy(sigma->0) =     -129.79218119


--------------------------------------------------------------------------------------------------------




--------------------------------------- Iteration      1(  15)  ---------------------------------------


    POTLOK:  cpu time    0.0429: real time    0.0429
    SETDIJ:  cpu time    0.0132: real time    0.0132
    TRIAL :  cpu time    9.1859: real time    9.2110
    CORREC:  cpu time    3.3083: real time    3.3108
    CHARGE:  cpu time    0.3180: real time    0.3182
    --------------------------------------------
      LOOP:  cpu time   12.8727: real time   12.9004

 eigenvalue-minimisations  :     0
 total energy-change (2. order) :-0.3658088E+02  (-0.1841986E+02)
 number of electron     258.0000016 magnetization       6.0000000
 augmentation part       76.7122591 magnetization       3.3478454

 Free energy of the ion-electron system (eV)
  ---------------------------------------------------
  alpha Z        PSCENC =       733.46198431
  Ewald energy   TEWEN  =    -14091.14330524
  -Hartree energ DENC   =     -6957.79145022
  -exchange      EXHF   =         0.00000000
  -V(xc)+E(xc)   XCENC  =       851.00105735
  PAW double counting   =     23356.29552961   -23851.05813171
  entropy T*S    EENTRO =        -0.02920031
  eigenvalues    EBANDS =      -375.99554757
  atomic energy  EATOM  =     20168.87094289
  ---------------------------------------------------
  free energy    TOTEN  =      -166.38719578 eV

  energy without entropy =     -166.35799547  energy(sigma->0) =     -166.37259563


--------------------------------------------------------------------------------------------------------




--------------------------------------- Iteration      1(  16)  ---------------------------------------


    POTLOK:  cpu time    0.0431: real time    0.0431
    SETDIJ:  cpu time    0.0122: real time    0.0122
    TRIAL :  cpu time    9.2331: real time    9.2395
    CORREC:  cpu time    3.2871: real time    3.2907
    CHARGE:  cpu time    0.3119: real time    0.3121
    --------------------------------------------
      LOOP:  cpu time   12.8916: real time   12.9019

 eigenvalue-minimisations  :     0
 total energy-change (2. order) :-0.1888442E+02  (-0.6817700E+01)
 number of electron     258.0000016 magnetization       6.0000000
 augmentation part       76.5920113 magnetization       3.4861719

 Free energy of the ion-electron system (eV)
  ---------------------------------------------------
  alpha Z        PSCENC =       733.46198431
  Ewald energy   TEWEN  =    -14091.14330524
  -Hartree energ DENC   =     -6928.80415289
  -exchange      EXHF   =         0.00000000
  -V(xc)+E(xc)   XCENC  =       851.75531590
  PAW double counting   =     23328.05923348   -23809.92564385
  entropy T*S    EENTRO =        -0.02915516
  eigenvalues    EBANDS =      -437.51678543
  atomic energy  EATOM  =     20168.87094289
  ---------------------------------------------------
  free energy    TOTEN  =      -185.27161115 eV

  energy without entropy =     -185.24245599  energy(sigma->0) =     -185.25703357


--------------------------------------------------------------------------------------------------------




--------------------------------------- Iteration      1(  17)  ---------------------------------------


    POTLOK:  cpu time    0.0437: real time    0.0439
    SETDIJ:  cpu time    0.0123: real time    0.0123
    TRIAL :  cpu time    9.2464: real time    9.2569
    CORREC:  cpu time    3.3265: real time    3.3301
    CHARGE:  cpu time    0.3179: real time    0.3181
    --------------------------------------------
      LOOP:  cpu time   12.9511: real time   12.9656

 eigenvalue-minimisations  :     0
 total energy-change (2. order) :-0.8354601E+01  (-0.4045027E+01)
 number of electron     258.0000015 magnetization       6.0000000
 augmentation part       76.4449488 magnetization       3.6416530

 Free energy of the ion-electron system (eV)
  ---------------------------------------------------
  alpha Z        PSCENC =       733.46198431
  Ewald energy   TEWEN  =    -14091.14330524
  -Hartree energ DENC   =     -6914.81682117
  -exchange      EXHF   =         0.00000000
  -V(xc)+E(xc)   XCENC  =       851.57782706
  PAW double counting   =     23334.40846366   -23810.37710507
  entropy T*S    EENTRO =        -0.02693551
  eigenvalues    EBANDS =      -465.57904340
  atomic energy  EATOM  =     20168.87094289
  ---------------------------------------------------
  free energy    TOTEN  =      -193.62621213 eV

  energy without entropy =     -193.59927663  energy(sigma->0) =     -193.61274438


--------------------------------------------------------------------------------------------------------




--------------------------------------- Iteration      1(  18)  ---------------------------------------


    POTLOK:  cpu time    0.0433: real time    0.0433
    SETDIJ:  cpu time    0.0123: real time    0.0123
    TRIAL :  cpu time    9.3103: real time    9.3207
    CORREC:  cpu time    3.3321: real time    3.3352
    CHARGE:  cpu time    0.3262: real time    0.3264
    --------------------------------------------
      LOOP:  cpu time   13.0286: real time   13.0423

 eigenvalue-minimisations  :     0
 total energy-change (2. order) :-0.3814771E+01  (-0.3457620E+01)
 number of electron     258.0000016 magnetization       6.0000000
 augmentation part       76.2541881 magnetization       3.8347071

 Free energy of the ion-electron system (eV)
  ---------------------------------------------------
  alpha Z        PSCENC =       733.46198431
  Ewald energy   TEWEN  =    -14091.14330524
  -Hartree energ DENC   =     -6885.21066442
  -exchange      EXHF   =         0.00000000
  -V(xc)+E(xc)   XCENC  =       850.68002263
  PAW double counting   =     23347.19234569   -23819.18101890
  entropy T*S    EENTRO =        -0.02508523
  eigenvalues    EBANDS =      -502.08435431
  atomic energy  EATOM  =     20168.87094289
  ---------------------------------------------------
  free energy    TOTEN  =      -197.44098287 eV

  energy without entropy =     -197.41589764  energy(sigma->0) =     -197.42844025


--------------------------------------------------------------------------------------------------------




--------------------------------------- Iteration      1(  19)  ---------------------------------------


    POTLOK:  cpu time    0.0445: real time    0.0445
    SETDIJ:  cpu time    0.0123: real time    0.0124
    TRIAL :  cpu time    9.0216: real time    9.0330
    CORREC:  cpu time    3.4881: real time    3.4908
    CHARGE:  cpu time    0.3147: real time    0.3149
    --------------------------------------------
      LOOP:  cpu time   12.8855: real time   12.8999

 eigenvalue-minimisations  :     0
 total energy-change (2. order) :-0.3219857E+01  (-0.2890909E+01)
 number of electron     258.0000016 magnetization       6.0000000
 augmentation part       76.1788097 magnetization       4.0505081

 Free energy of the ion-electron system (eV)
  ---------------------------------------------------
  alpha Z        PSCENC =       733.46198431
  Ewald energy   TEWEN  =    -14091.14330524
  -Hartree energ DENC   =     -6842.58908915
  -exchange      EXHF   =         0.00000000
  -V(xc)+E(xc)   XCENC  =       849.19164820
  PAW double counting   =     23400.73823370   -23869.02543293
  entropy T*S    EENTRO =        -0.02149792
  eigenvalues    EBANDS =      -550.14073658
  atomic energy  EATOM  =     20168.87094289
  ---------------------------------------------------
  free energy    TOTEN  =      -200.66084005 eV

  energy without entropy =     -200.63934213  energy(sigma->0) =     -200.65009109


--------------------------------------------------------------------------------------------------------




--------------------------------------- Iteration      1(  20)  ---------------------------------------


    POTLOK:  cpu time    0.0437: real time    0.0437
    SETDIJ:  cpu time    0.0123: real time    0.0123
    TRIAL :  cpu time    9.0974: real time    9.1039
    CORREC:  cpu time    3.3181: real time    3.3208
    CHARGE:  cpu time    0.3146: real time    0.3148
    --------------------------------------------
      LOOP:  cpu time   12.7905: real time   12.7998

 eigenvalue-minimisations  :     0
 total energy-change (2. order) :-0.2938488E+01  (-0.2241899E+01)
 number of electron     258.0000016 magnetization       6.0000000
 augmentation part       76.1419156 magnetization       4.1989975

 Free energy of the ion-electron system (eV)
  ---------------------------------------------------
  alpha Z        PSCENC =       733.46198431
  Ewald energy   TEWEN  =    -14091.14330524
  -Hartree energ DENC   =     -6818.34380600
  -exchange      EXHF   =         0.00000000
  -V(xc)+E(xc)   XCENC  =       847.79669524
  PAW double counting   =     23491.02925467   -23959.98440232
  entropy T*S    EENTRO =        -0.02076458
  eigenvalues    EBANDS =      -575.26519411
  atomic energy  EATOM  =     20168.87094289
  ---------------------------------------------------
  free energy    TOTEN  =      -203.59932850 eV

  energy without entropy =     -203.57856391  energy(sigma->0) =     -203.58894620


--------------------------------------------------------------------------------------------------------




--------------------------------------- Iteration      1(  21)  ---------------------------------------


    POTLOK:  cpu time    0.0433: real time    0.0433
    SETDIJ:  cpu time    0.0123: real time    0.0123
    TRIAL :  cpu time    9.2419: real time    9.2496
    CORREC:  cpu time    3.3094: real time    3.3122
    CHARGE:  cpu time    0.3158: real time    0.3159
    --------------------------------------------
      LOOP:  cpu time   12.9271: real time   12.9378

 eigenvalue-minimisations  :     0
 total energy-change (2. order) :-0.2200215E+01  (-0.1488242E+01)
 number of electron     258.0000017 magnetization       6.0000000
 augmentation part       76.1324409 magnetization       4.2873618

 Free energy of the ion-electron system (eV)
  ---------------------------------------------------
  alpha Z        PSCENC =       733.46198431
  Ewald energy   TEWEN  =    -14091.14330524
  -Hartree energ DENC   =     -6808.23472556
  -exchange      EXHF   =         0.00000000
  -V(xc)+E(xc)   XCENC  =       847.03369018
  PAW double counting   =     23569.82623353   -24040.10356780
  entropy T*S    EENTRO =        -0.02134203
  eigenvalues    EBANDS =      -585.49003151
  atomic energy  EATOM  =     20168.87094289
  ---------------------------------------------------
  free energy    TOTEN  =      -205.79954379 eV

  energy without entropy =     -205.77820176  energy(sigma->0) =     -205.78887277


--------------------------------------------------------------------------------------------------------




--------------------------------------- Iteration      1(  22)  ---------------------------------------


    POTLOK:  cpu time    0.0434: real time    0.0434
    SETDIJ:  cpu time    0.0123: real time    0.0123
    TRIAL :  cpu time    9.2092: real time    9.2175
    CORREC:  cpu time    3.3185: real time    3.3221
    CHARGE:  cpu time    0.3167: real time    0.3168
    --------------------------------------------
      LOOP:  cpu time   12.9042: real time   12.9163

 eigenvalue-minimisations  :     0
 total energy-change (2. order) :-0.1558594E+01  (-0.1273674E+01)
 number of electron     258.0000017 magnetization       6.0000000
 augmentation part       76.1065660 magnetization       4.3443961

 Free energy of the ion-electron system (eV)
  ---------------------------------------------------
  alpha Z        PSCENC =       733.46198431
  Ewald energy   TEWEN  =    -14091.14330524
  -Hartree energ DENC   =     -6812.11977337
  -exchange      EXHF   =         0.00000000
  -V(xc)+E(xc)   XCENC  =       847.16991773
  PAW double counting   =     23590.04286098   -24060.71872317
  entropy T*S    EENTRO =        -0.02100864
  eigenvalues    EBANDS =      -582.90069977
  atomic energy  EATOM  =     20168.87094289
  ---------------------------------------------------
  free energy    TOTEN  =      -207.35813769 eV

  energy without entropy =     -207.33712905  energy(sigma->0) =     -207.34763337


--------------------------------------------------------------------------------------------------------




--------------------------------------- Iteration      1(  23)  ---------------------------------------


    POTLOK:  cpu time    0.0464: real time    0.0464
    SETDIJ:  cpu time    0.0123: real time    0.0123
    TRIAL :  cpu time    9.2814: real time    9.2888
    CORREC:  cpu time    3.3189: real time    3.3218
    CHARGE:  cpu time    0.3161: real time    0.3162
    --------------------------------------------
      LOOP:  cpu time   12.9795: real time   12.9906

 eigenvalue-minimisations  :     0
 total energy-change (2. order) :-0.1346691E+01  (-0.2452079E+01)
 number of electron     258.0000018 magnetization       6.0000000
 augmentation part       75.9944186 magnetization       4.4550930

 Free energy of the ion-electron system (eV)
  ---------------------------------------------------
  alpha Z        PSCENC =       733.46198431
  Ewald energy   TEWEN  =    -14091.14330524
  -Hartree energ DENC   =     -6823.41352151
  -exchange      EXHF   =         0.00000000
  -V(xc)+E(xc)   XCENC  =       847.94493892
  PAW double counting   =     23561.50907915   -24030.95089107
  entropy T*S    EENTRO =        -0.02059520
  eigenvalues    EBANDS =      -574.96304749
  atomic energy  EATOM  =     20168.87094289
  ---------------------------------------------------
  free energy    TOTEN  =      -208.70482869 eV

  energy without entropy =     -208.68423349  energy(sigma->0) =     -208.69453109


--------------------------------------------------------------------------------------------------------




--------------------------------------- Iteration      1(  24)  ---------------------------------------


    POTLOK:  cpu time    0.0433: real time    0.0433
    SETDIJ:  cpu time    0.0123: real time    0.0123
    TRIAL :  cpu time    9.1998: real time    9.2066
    CORREC:  cpu time    3.3335: real time    3.3358
    CHARGE:  cpu time    0.3160: real time    0.3162
    --------------------------------------------
      LOOP:  cpu time   12.9092: real time   12.9183

 eigenvalue-minimisations  :     0
 total energy-change (2. order) :-0.2236568E+01  (-0.2197614E+01)
 number of electron     258.0000018 magnetization       5.9999999
 augmentation part       76.0098272 magnetization       4.4549888

 Free energy of the ion-electron system (eV)
  ---------------------------------------------------
  alpha Z        PSCENC =       733.46198431
  Ewald energy   TEWEN  =    -14091.14330524
  -Hartree energ DENC   =     -6851.07196447
  -exchange      EXHF   =         0.00000000
  -V(xc)+E(xc)   XCENC  =       850.24510550
  PAW double counting   =     23400.01282454   -23862.91090897
  entropy T*S    EENTRO =        -0.02204202
  eigenvalues    EBANDS =      -558.38547966
  atomic energy  EATOM  =     20168.87094289
  ---------------------------------------------------
  free energy    TOTEN  =      -210.94139632 eV

  energy without entropy =     -210.91935430  energy(sigma->0) =     -210.93037531


--------------------------------------------------------------------------------------------------------




--------------------------------------- Iteration      1(  25)  ---------------------------------------


    POTLOK:  cpu time    0.0432: real time    0.0433
    SETDIJ:  cpu time    0.0123: real time    0.0123
    TRIAL :  cpu time    9.2600: real time    9.2623
    CORREC:  cpu time    3.3189: real time    3.3202
    CHARGE:  cpu time    0.3133: real time    0.3137
    --------------------------------------------
      LOOP:  cpu time   12.9519: real time   12.9559

 eigenvalue-minimisations  :     0
 total energy-change (2. order) :-0.1996893E+01  (-0.1548094E+01)
 number of electron     258.0000017 magnetization       6.0000000
 augmentation part       76.0781674 magnetization       4.4220092

 Free energy of the ion-electron system (eV)
  ---------------------------------------------------
  alpha Z        PSCENC =       733.46198431
  Ewald energy   TEWEN  =    -14091.14330524
  -Hartree energ DENC   =     -6842.99548529
  -exchange      EXHF   =         0.00000000
  -V(xc)+E(xc)   XCENC  =       849.99848445
  PAW double counting   =     23381.05524938   -23845.20808506
  entropy T*S    EENTRO =        -0.02159576
  eigenvalues    EBANDS =      -566.95603256
  atomic energy  EATOM  =     20168.87094289
  ---------------------------------------------------
  free energy    TOTEN  =      -212.93828914 eV

  energy without entropy =     -212.91669338  energy(sigma->0) =     -212.92749126


--------------------------------------------------------------------------------------------------------




--------------------------------------- Iteration      1(  26)  ---------------------------------------


    POTLOK:  cpu time    0.0438: real time    0.0438
    SETDIJ:  cpu time    0.0127: real time    0.0127
    TRIAL :  cpu time    9.0541: real time    9.0562
    CORREC:  cpu time    3.4462: real time    3.4484
    CHARGE:  cpu time    0.3253: real time    0.3256
    --------------------------------------------
      LOOP:  cpu time   12.8863: real time   12.8908

 eigenvalue-minimisations  :     0
[...]
   20        1.571   3.446   0.000   5.017
   21        1.582   3.353   0.000   4.935
   22        1.572   3.381   0.000   4.952
   23        1.575   3.390   0.000   4.965
   24        1.585   3.352   0.000   4.936
   25        1.576   3.410   0.000   4.985
   26        1.577   3.407   0.000   4.984
   27        1.563   3.450   0.000   5.012
   28        1.563   3.437   0.000   5.000
   29        1.561   3.454   0.000   5.015
   30        1.564   3.464   0.000   5.027
   31        1.580   3.330   0.000   4.910
   32        1.572   3.413   0.000   4.985
   33        1.577   3.384   0.000   4.961
   34        1.578   3.367   0.000   4.945
   35        1.573   3.348   0.000   4.921
   36        1.568   3.396   0.000   4.964
   37        1.578   3.379   0.000   4.957
   38        1.570   3.421   0.000   4.991
   39        1.555   3.446   0.000   5.002
   40        1.559   3.404   0.000   4.963
   41        1.556   3.441   0.000   4.998
   42        1.553   3.439   0.000   4.992
--------------------------------------------------
tot         43.437  90.799  87.083 221.319
 


 magnetization (x)
 
# of ion       s       p       d       tot
------------------------------------------
    1        0.001   0.001   0.000   0.002
    2       -0.000  -0.003   0.000  -0.003
    3        0.001  -0.001   0.000  -0.001
    4        0.000  -0.004   0.000  -0.003
    5        0.000  -0.000   0.000   0.000
    6        0.001   0.000   0.000   0.001
    7        0.014   0.017   1.425   1.456
    8        0.014   0.018   1.302   1.334
    9        0.006   0.009   0.030   0.045
   10        0.015   0.019   1.383   1.416
   11        0.004   0.006  -0.012  -0.002
   12        0.005   0.007   0.013   0.025
   13        0.012   0.014   1.427   1.452
   14        0.014   0.009   1.502   1.525
   15        0.002   0.003  -0.038  -0.033
   16        0.001   0.002   0.017   0.020
   17        0.015   0.009   1.693   1.717
   18        0.002   0.002  -0.014  -0.010
   19        0.001  -0.158   0.000  -0.157
   20        0.001  -0.078   0.000  -0.077
   21        0.001  -0.150   0.000  -0.150
   22        0.000  -0.131   0.000  -0.131
   23       -0.000  -0.165   0.000  -0.165
   24        0.001  -0.223   0.000  -0.222
   25        0.001  -0.126   0.000  -0.125
   26        0.002  -0.076   0.000  -0.075
   27        0.001  -0.102   0.000  -0.101
   28        0.001  -0.088   0.000  -0.087
   29        0.001  -0.022   0.000  -0.022
   30        0.001  -0.033   0.000  -0.032
   31        0.001  -0.167   0.000  -0.167
   32       -0.000  -0.057   0.000  -0.057
   33        0.001  -0.124   0.000  -0.123
   34        0.001  -0.183   0.000  -0.182
   35       -0.001  -0.185   0.000  -0.186
   36       -0.001  -0.042   0.000  -0.042
   37        0.000  -0.156   0.000  -0.155
   38       -0.000  -0.102   0.000  -0.102
   39        0.001  -0.041   0.000  -0.040
   40       -0.001  -0.115   0.000  -0.116
   41        0.001  -0.043   0.000  -0.041
   42       -0.000  -0.011   0.000  -0.011
--------------------------------------------------
tot          0.119  -2.471   8.727   6.375
 
    FORLOC:  cpu time    0.0083: real time    0.0083
    FORNL :  cpu time    3.0914: real time    3.0921
    STRESS:  cpu time    9.0169: real time    9.0860
    FORCOR:  cpu time    0.0461: real time    0.0462
    OFIELD:  cpu time    0.0003: real time    0.0003

  DFT-D2 method for vdW energy calculation
  -------------------------------------------------------------------

  Parameters of vdW forcefield:
         C6(Jnm^6/mol)     R0(A)
   -----------------------------
   Li       1.610          0.825
   Co      10.800          1.562
   O        0.700          1.342

  IVDW =   1
  VDW_RADIUS =    50.000 A
  VDW_S6 =     0.750
  VDW_SR =     1.000
  VDW_D =    20.000
  LVDW_EWALD = F

  Number of pair interactions contributing to vdW energy: 1183538
  Edisp (eV):   -9.65365
    FORVDW:  cpu time    0.1690: real time    0.1702

  FORCE on cell =-STRESS in cart. coord.  units (eV):
  Direction    XX          YY          ZZ          XY          YZ          ZX
  --------------------------------------------------------------------------------------
  Alpha Z   733.46198   733.46198   733.46198
  Ewald   -1888.91852 -1904.18677-10298.10555    13.58319    77.25374    -6.08477
  Hartree  4318.04455  4320.10241 -1810.32703    -4.39285    25.81468    -7.71779
  E(xc)   -1282.41725 -1282.21185 -1283.98606     0.15002     0.11659     0.00772
  Local   -7357.71994 -7349.66061  7123.86293    -2.76641   -96.67885    18.10213
  n-local  -593.97587  -599.10479  -606.22351     0.56568     2.31149     0.36965
  augment  2018.94656  2022.97288  2009.34004    -4.46213    -2.63321    -1.57643
  Kinetic  4052.87367  4046.27860  4140.36222    -5.57551    -6.18548    -0.70066
  Fock        0.00000     0.00000     0.00000     0.00000     0.00000     0.00000
  vdW        -5.49586    -5.66636   -13.50986     0.14769     0.35552    -0.13690
  -------------------------------------------------------------------------------------
  Total      -5.20068   -18.01451    -5.12484    -2.75031     0.35449     2.26296
  in kB     -20.84653   -72.20976   -20.54252   -11.02442     1.42094     9.07089
  external pressure =      -37.87 kB  Pullay stress =        0.00 kB


 VOLUME and BASIS-vectors are now :
 -----------------------------------------------------------------------------
  energy-cutoff  :      600.00
  volume of cell :      399.70
      direct lattice vectors                 reciprocal lattice vectors
     5.659524441  0.000000000  0.000000000     0.176693291  0.097169592  0.011408462
    -2.767313004  5.032084942  0.000000000     0.000000000  0.198724785  0.006370696
    -0.658752501 -0.449929088 14.034895897     0.000000000  0.000000000  0.071250974

  length of vectors
     5.659524441  5.742812910 14.057549355     0.201971785  0.198826875  0.071250974


 FORCES acting on ions:
    Electron-Ion                     Ewald-Force                    Non-Local-Force
 -----------------------------------------------------------------------------------------------
   -.304E+01 -.221E+01 -.626E+01   0.315E+01 0.208E+01 0.606E+01   0.460E+00 0.378E+00 0.636E+00
   -.203E+01 -.454E+00 -.134E+02   0.182E+01 0.236E+00 0.128E+02   0.330E+00 0.300E+00 0.981E+00
   0.143E+01 -.231E+01 0.613E+01   -.154E+01 0.230E+01 -.512E+01   0.477E-01 -.660E-01 -.812E+00
   -.120E+00 -.107E+01 -.369E+01   0.101E+00 0.629E+00 0.408E+01   -.384E+00 0.471E+00 0.301E+00
   -.336E+01 -.400E+00 0.107E+01   0.335E+01 0.711E+00 -.197E+00   0.627E+00 0.284E-01 -.331E+00
   0.110E+01 0.271E+01 0.303E+01   -.110E+01 -.254E+01 -.230E+01   0.138E-01 -.429E+00 -.444E+00
   -.463E+01 -.869E+01 -.897E+02   0.592E+01 0.817E+01 0.904E+02   -.437E+00 -.659E+00 -.514E+00
   -.411E+02 -.700E+01 -.497E+02   0.428E+02 0.966E+01 0.496E+02   -.218E+00 0.739E+00 0.150E+00
   0.306E+02 -.965E+01 0.358E+02   -.324E+02 0.832E+01 -.359E+02   -.477E+00 0.804E+00 0.548E+00
   0.249E+02 0.261E+02 -.116E+03   -.259E+02 -.270E+02 0.116E+03   0.507E+00 -.526E+00 0.101E+01
   0.208E+02 -.457E+02 0.127E+03   -.203E+02 0.474E+02 -.128E+03   0.522E+00 0.122E+00 0.137E+01
   -.311E+02 0.787E+02 0.144E+03   0.344E+02 -.796E+02 -.145E+03   0.468E+00 -.165E+01 0.107E+01
   -.353E+02 0.522E+01 0.884E+02   0.353E+02 -.631E+01 -.905E+02   -.103E+00 -.489E+00 0.101E+01
   0.260E+00 -.180E+02 0.603E+02   -.164E+01 0.177E+02 -.625E+02   0.853E+00 0.392E+00 0.224E+01
   0.159E+02 -.314E+02 0.180E+02   -.160E+02 0.318E+02 -.164E+02   -.179E+00 0.134E+01 -.140E+01
   0.403E+02 0.488E+02 -.800E+02   -.409E+02 -.487E+02 0.813E+02   -.242E+00 -.881E+00 -.349E+01
   -.101E+02 -.161E+02 -.735E+02   0.102E+02 0.173E+02 0.726E+02   0.133E-01 -.383E+00 -.758E+00
   -.467E+02 -.297E+02 -.183E+02   0.479E+02 0.288E+02 0.180E+02   0.504E+00 0.184E+01 -.825E+00
   0.407E+01 -.104E+02 -.360E+03   -.196E+01 0.140E+02 0.381E+03   -.262E+01 -.423E+01 -.207E+02
   0.241E+00 0.139E+02 -.359E+03   0.383E-01 -.169E+02 0.381E+03   -.285E-01 0.306E+01 -.204E+02
   -.129E+02 -.494E+01 -.346E+03   0.119E+02 0.758E+01 0.368E+03   0.288E+01 -.335E+01 -.219E+02
   -.135E+02 -.537E+01 -.332E+03   0.141E+02 0.325E+01 0.350E+03   -.913E-03 0.276E+01 -.187E+02
   -.176E+02 -.111E+02 0.264E+03   0.203E+02 0.115E+02 -.282E+03   -.292E+01 0.770E-01 0.175E+02
   0.454E+01 0.514E+01 0.276E+03   -.423E+01 -.584E+01 -.300E+03   -.144E+01 0.552E+00 0.240E+02
   0.751E+01 -.264E+02 0.278E+03   -.747E+01 0.284E+02 -.301E+03   0.944E-01 -.681E+00 0.217E+02
   0.201E+02 0.369E+02 0.289E+03   -.243E+02 -.406E+02 -.312E+03   0.346E+01 0.273E+01 0.221E+02
   0.108E+02 -.115E+02 -.244E+03   -.137E+02 0.987E+01 0.257E+03   0.334E+01 0.186E+01 -.125E+02
   -.437E+01 0.239E+02 -.239E+03   0.349E+01 -.256E+02 0.252E+03   0.145E+01 0.143E+01 -.131E+02
   -.180E+02 -.459E+02 -.230E+03   0.217E+02 0.514E+02 0.245E+03   -.402E+01 -.461E+01 -.142E+02
   0.374E+02 0.530E+01 -.259E+03   -.408E+02 -.412E+01 0.277E+03   0.941E+00 -.637E+00 -.177E+02
   0.284E+02 0.207E+02 0.349E+03   -.292E+02 -.234E+02 -.372E+03   0.289E+00 0.209E+01 0.228E+02
   -.629E+01 0.717E+01 0.377E+03   0.821E+01 -.498E+01 -.400E+03   -.317E+01 -.301E+01 0.216E+02
   -.282E+02 -.212E+01 0.368E+03   0.279E+02 -.653E-01 -.391E+03   0.103E+01 0.370E+01 0.233E+02
   0.189E+02 -.125E+02 0.370E+03   -.231E+02 0.136E+02 -.394E+03   0.373E+01 -.883E+00 0.234E+02
   0.723E+01 -.247E+02 -.287E+03   -.415E+01 0.257E+02 0.307E+03   -.369E+01 -.934E+00 -.213E+02
   0.118E+02 0.418E+02 -.294E+03   -.141E+02 -.426E+02 0.314E+03   0.179E+01 -.119E+01 -.202E+02
   -.514E+01 -.566E+01 -.312E+03   0.184E+01 0.551E+01 0.336E+03   0.332E+01 -.363E+00 -.232E+02
   0.660E+01 -.181E+01 -.294E+03   -.809E+01 0.629E-01 0.314E+03   0.631E+00 0.209E+01 -.212E+02
   0.122E+02 0.113E+02 0.245E+03   -.130E+02 -.124E+02 -.257E+03   0.650E+00 0.330E+00 0.127E+02
   -.451E+02 -.120E+02 0.222E+03   0.473E+02 0.119E+02 -.232E+03   -.169E+01 0.508E+00 0.114E+02
   -.176E+02 0.262E+02 0.247E+03   0.207E+02 -.284E+02 -.258E+03   -.282E+01 0.197E+01 0.120E+02
   0.356E+02 -.978E+01 0.238E+03   -.385E+02 0.111E+02 -.248E+03   0.266E+01 -.132E+01 0.120E+02
 -----------------------------------------------------------------------------------------------
   -.620E+01 -.330E+01 -.539E+00   0.853E-13 0.320E-13 0.284E-13   0.618E+01 0.328E+01 0.509E+00
 
 
 POSITION                                       TOTAL-FORCE (eV/Angst)
 -----------------------------------------------------------------------------------
     -3.31214      4.54852     13.98129         0.433790      0.178231      0.304986
      2.69696      3.01439      4.50730         0.027258      0.078401      0.348805
     -0.50467      1.47603      9.42055        -0.084918     -0.019116      0.283586
     -1.75256      3.85645      9.37554        -0.303457      0.066259      0.569868
      2.20216      1.30123      9.32639         0.467025      0.371904      0.537922
      1.05367      4.01710      9.40288        -0.010617     -0.199117      0.306026
     -0.05210      1.50605      2.35261         0.859392     -1.136206      0.014167
     -1.48932      3.90694      2.27008         1.177852      3.189110      0.068820
      2.79501      1.48662      2.14896        -2.006419     -0.561333      0.672562
      1.39423      4.05714      2.31059        -0.361778     -1.251529      1.054300
      2.33831      4.78369      7.01518         0.951632      1.587498      0.566733
      3.65370      2.41582      6.98528         3.442021     -2.105500     -0.062005
      2.32530     -0.15475      7.07460        -0.155564     -1.427341     -0.693333
      0.88936      2.30531      7.03711        -0.578696      0.009088      0.072964
      1.00517      0.53845     11.62189        -0.203537      1.468354      0.054465
     -0.33971      3.12845     11.92399        -0.702836     -0.628408     -2.094455
      3.85314      0.53916     11.82949         0.072272      0.809151     -1.727165
      2.38699      3.04214     11.68459         1.438955      0.740776     -1.171594
     -2.82770      4.84617      3.28407        -0.530808     -0.566591      0.094982
      4.12013      2.30538      3.14342         0.329409      0.004841      1.170278
     -0.16629      4.90400      3.12423         1.848329     -0.718112      0.614563
      1.35082      2.32329      3.28909         0.600600      0.619700     -0.818266
      1.28016      0.58727      1.36828        -0.114432      0.499487     -0.355446
      0.06229      3.14161      1.42283        -1.143035     -0.153472     -0.638250
      4.24971      0.55941      1.38206         0.071861      1.352438     -0.990189
      2.81142      3.26477      1.32164        -0.642599     -1.035898     -0.615518
      0.83260      0.65828      8.00390         0.347179      0.105458      0.645937
     -0.51453      3.21125      8.05265         0.616049     -0.307472     -0.349831
      3.71797      0.51721      8.07344        -0.270168      0.899452     -0.194275
      2.49554      3.15713      8.08021        -2.498500      0.454141      0.254171
     -0.52291      1.56181      6.10071        -0.537668     -0.574612      0.171896
     -1.80087      4.09943      6.13393        -1.258752     -0.836703     -1.009143
      2.22998      1.39489      6.10336         0.703780      1.547267     -0.251375
      1.00334      3.91261      6.09802        -0.442948      0.218671     -0.122594
     -0.34014      1.36789     12.76829        -0.629959      0.091332     -0.929198
     -1.77066      4.09693     12.68219        -0.339645     -1.980236     -0.011486
      2.39979      1.42269     12.55189         0.046196     -0.507245      0.751134
      1.15027      3.89189     12.80999        -0.898192      0.326496     -1.217369
     -0.44013     -0.21036     10.59289        -0.175371     -0.749872      0.947006
      3.74784      2.16395     10.59379         0.464434      0.321715      1.301934
      2.40982     -0.32578     10.64489         0.237271     -0.188767      0.862321
      0.99424      2.26604     10.52339        -0.245402      0.007760      1.582068
 -----------------------------------------------------------------------------------
    total drift:                               -0.012517     -0.011478     -0.029568


--------------------------------------------------------------------------------------------------------



  FREE ENERGIE OF THE ION-ELECTRON SYSTEM (eV)
  ---------------------------------------------------
  free  energy   TOTEN  =      -232.35191104 eV

  energy  without entropy=     -232.34574147  energy(sigma->0) =     -232.34882625
 


--------------------------------------------------------------------------------------------------------


    POTLOK:  cpu time    0.0603: real time    0.0606


--------------------------------------------------------------------------------------------------------


     LOOP+:  cpu time 2930.8182: real time 2934.5154
    4ORBIT:  cpu time    0.0000: real time    0.0000
 


 total charge     
 
# of ion       s       p       d       tot
------------------------------------------
    1        0.105   0.225   0.000   0.331
    2        0.070   0.140   0.000   0.210
    3        0.095   0.199   0.000   0.294
    4        0.098   0.202   0.000   0.300
    5        0.096   0.203   0.000   0.300
    6        0.097   0.205   0.000   0.302
    7        0.452   0.716   7.181   8.349
    8        0.478   0.780   7.256   8.514
    9        0.418   0.637   7.329   8.384
   10        0.462   0.731   7.213   8.406
   11        0.425   0.655   7.349   8.429
   12        0.426   0.642   7.338   8.406
   13        0.460   0.740   7.220   8.420
   14        0.446   0.677   7.200   8.323
   15        0.428   0.659   7.354   8.441
   16        0.378   0.518   7.201   8.096
   17        0.413   0.597   7.141   8.151
   18        0.404   0.595   7.300   8.300
   19        1.577   3.367   0.000   4.945
   20        1.571   3.446   0.000   5.017
   21        1.582   3.353   0.000   4.935
   22        1.572   3.381   0.000   4.952
   23        1.575   3.390   0.000   4.965
   24        1.585   3.352   0.000   4.936
   25        1.576   3.410   0.000   4.985
   26        1.577   3.407   0.000   4.984
   27        1.563   3.450   0.000   5.012
   28        1.563   3.437   0.000   5.000
   29        1.561   3.454   0.000   5.015
   30        1.564   3.464   0.000   5.027
   31        1.580   3.330   0.000   4.910
   32        1.572   3.413   0.000   4.985
   33        1.577   3.384   0.000   4.961
   34        1.578   3.367   0.000   4.945
   35        1.573   3.348   0.000   4.921
   36        1.568   3.396   0.000   4.964
   37        1.578   3.379   0.000   4.957
   38        1.570   3.421   0.000   4.991
   39        1.555   3.446   0.000   5.002
   40        1.559   3.404   0.000   4.963
   41        1.556   3.441   0.000   4.998
   42        1.553   3.439   0.000   4.992
--------------------------------------------------
tot         43.437  90.799  87.083 221.319
 


 magnetization (x)
 
# of ion       s       p       d       tot
------------------------------------------
    1        0.001   0.001   0.000   0.002
    2       -0.000  -0.003   0.000  -0.003
    3        0.001  -0.001   0.000  -0.001
    4        0.000  -0.004   0.000  -0.003
    5        0.000  -0.000   0.000   0.000
    6        0.001   0.000   0.000   0.001
    7        0.014   0.017   1.425   1.456
    8        0.014   0.018   1.302   1.334
    9        0.006   0.009   0.030   0.045
   10        0.015   0.019   1.383   1.416
   11        0.004   0.006  -0.012  -0.002
   12        0.005   0.007   0.013   0.025
   13        0.012   0.014   1.427   1.452
   14        0.014   0.009   1.502   1.525
   15        0.002   0.003  -0.038  -0.033
   16        0.001   0.002   0.017   0.020
   17        0.015   0.009   1.693   1.717
   18        0.002   0.002  -0.014  -0.010
   19        0.001  -0.158   0.000  -0.157
   20        0.001  -0.078   0.000  -0.077
   21        0.001  -0.150   0.000  -0.150
   22        0.000  -0.131   0.000  -0.131
   23       -0.000  -0.165   0.000  -0.165
   24        0.001  -0.223   0.000  -0.222
   25        0.001  -0.126   0.000  -0.125
   26        0.002  -0.076   0.000  -0.075
   27        0.001  -0.102   0.000  -0.101
   28        0.001  -0.088   0.000  -0.087
   29        0.001  -0.022   0.000  -0.022
   30        0.001  -0.033   0.000  -0.032
   31        0.001  -0.167   0.000  -0.167
   32       -0.000  -0.057   0.000  -0.057
   33        0.001  -0.124   0.000  -0.123
   34        0.001  -0.183   0.000  -0.182
   35       -0.001  -0.185   0.000  -0.186
   36       -0.001  -0.042   0.000  -0.042
   37        0.000  -0.156   0.000  -0.155
   38       -0.000  -0.102   0.000  -0.102
   39        0.001  -0.041   0.000  -0.040
   40       -0.001  -0.115   0.000  -0.116
   41        0.001  -0.043   0.000  -0.041
   42       -0.000  -0.011   0.000  -0.011
--------------------------------------------------
tot          0.119  -2.471   8.727   6.375
 

 total amount of memory used by VASP MPI-rank0   140203. kBytes
=======================================================================

   base      :      30000. kBytes
   nonlr-proj:       3951. kBytes
   fftplans  :       1580. kBytes
   grid      :       4337. kBytes
   one-center:        342. kBytes
   wavefun   :      99993. kBytes
 
  
  
 General timing and accounting informations for this job:
 ========================================================
  
                  Total CPU time used (sec):     2952.480
                            User time (sec):     2734.297
                          System time (sec):      218.184
                         Elapsed time (sec):     2956.650
  
                   Maximum memory used (kb):      813408.
                   Average memory used (kb):           0.
  
                          Minor page faults:       393536
                          Major page faults:           75
                 Voluntary context switches:          597
