       N       E                     dE             d eps       ncg     rms          ort
DAV:   1     0.347163581563E+04    0.34716E+04   -0.13945E+05  5760   0.217E+03
DAV:   2     0.408361380845E+03   -0.30633E+04   -0.28256E+04  5760   0.529E+02
DAV:   3    -0.220636126304E+03   -0.62900E+03   -0.57525E+03  5760   0.252E+02
DAV:   4    -0.271348590079E+03   -0.50712E+02   -0.49591E+02  5760   0.737E+01
DAV:   5    -0.273125537595E+03   -0.17769E+01   -0.17737E+01  5760   0.138E+01
SDA:   6     0.108672690550E+03    0.38180E+03   -0.17737E+01  5760   0.586E+04 0.000E+00
CGA:   7    -0.478398926193E+01   -0.11346E+03   -0.24327E+03  5760   0.229E+04 0.881E+03
CGA:   8    -0.113601864756E+03   -0.10882E+03   -0.59107E+02  5760   0.189E+04 0.244E+04
CGA:   9    -0.134003872390E+03   -0.20402E+02   -0.55864E+02  5760   0.341E+04-0.114E+04
CGA:  10    -0.151351591373E+03   -0.17348E+02   -0.81030E+02  5760   0.191E+04-0.135E+04
CGA:  11    -0.185792431126E+03   -0.34441E+02   -0.72125E+02  5760   0.111E+04-0.316E+03
CGA:  12    -0.191632486505E+03   -0.58401E+01   -0.39867E+02  5760   0.727E+03-0.568E+03
CGA:  13    -0.209797917750E+03   -0.18165E+02   -0.10405E+02  5760   0.840E+02 0.281E+03
CGA:  14    -0.210923153030E+03   -0.11252E+01   -0.26586E+01  5760   0.112E+03-0.550E+02
CGA:  15    -0.212115059423E+03   -0.11919E+01   -0.36131E+01  5760   0.134E+03-0.771E+02
CGA:  16    -0.213564689020E+03   -0.14496E+01   -0.38492E+01  5760   0.869E+02-0.656E+02
CGA:  17    -0.217960247461E+03   -0.43956E+01   -0.45487E+01  5760   0.237E+02 0.124E+01
CGA:  18    -0.218664803412E+03   -0.70456E+00   -0.12221E+01  5760   0.294E+02-0.669E+01
CGA:  19    -0.221456095276E+03   -0.27913E+01   -0.27898E+01  5760   0.464E+01 0.133E+00
CGA:  20    -0.221708152753E+03   -0.25206E+00   -0.27112E+00  5760   0.449E+01-0.206E+00
CGA:  21    -0.222120497301E+03   -0.41234E+00   -0.41920E+00  5760   0.192E+01 0.705E-01
CGA:  22    -0.222362976462E+03   -0.24248E+00   -0.24213E+00  5760   0.344E+01 0.943E-01
CGA:  23    -0.222698443124E+03   -0.33547E+00   -0.34127E+00  5760   0.158E+01 0.477E-01
CGA:  24    -0.222943239150E+03   -0.24480E+00   -0.24986E+00  5760   0.182E+01-0.983E-01
CGA:  25    -0.223307992048E+03   -0.36475E+00   -0.33309E+00  5760   0.191E+01 0.318E+00
CGA:  26    -0.223545985616E+03   -0.23799E+00   -0.23446E+00  5760   0.174E+01-0.120E+00
CGA:  27    -0.223776317598E+03   -0.23033E+00   -0.22872E+00  5760   0.144E+01 0.732E-01
CGA:  28    -0.224012886536E+03   -0.23657E+00   -0.23331E+00  5760   0.930E+00 0.180E-02
CGA:  29    -0.224127017188E+03   -0.11413E+00   -0.11446E+00  5760   0.633E+00 0.295E-01
CGA:  30    -0.224202698597E+03   -0.75681E-01   -0.76208E-01  5760   0.620E+00-0.138E-01
CGA:  31    -0.224271526479E+03   -0.68828E-01   -0.70180E-01  5760   0.348E+00 0.618E-01
CGA:  32    -0.224318013966E+03   -0.46487E-01   -0.46464E-01  5760   0.361E+00-0.282E-01
CGA:  33    -0.224358039055E+03   -0.40025E-01   -0.40152E-01  5760   0.240E+00 0.111E-01
CGA:  34    -0.224392262757E+03   -0.34224E-01   -0.33872E-01  5760   0.180E+00 0.204E-01
CGA:  35    -0.224413170106E+03   -0.20907E-01   -0.21361E-01  5760   0.106E+00-0.997E-02
CGA:  36    -0.224424090499E+03   -0.10920E-01   -0.10433E-01  5760   0.169E+00-0.459E-01
CGA:  37    -0.224436207482E+03   -0.12117E-01   -0.12475E-01  5760   0.210E+00-0.114E+00
CGA:  38    -0.224447894502E+03   -0.11687E-01   -0.14667E-01  5760   0.600E-01 0.948E-02
CGA:  39    -0.224452214703E+03   -0.43202E-02   -0.45518E-02  5760   0.393E-01-0.110E-02
CGA:  40    -0.224458472205E+03   -0.62575E-02   -0.60876E-02  5760   0.595E-01 0.839E-02
CGA:  41    -0.224466048984E+03   -0.75768E-02   -0.80416E-02  5760   0.284E-01 0.272E-01
CGA:  42    -0.224471376963E+03   -0.53280E-02   -0.52657E-02  5760   0.331E-01-0.201E-02
CGA:  43    -0.224475178884E+03   -0.38019E-02   -0.38187E-02  5760   0.469E-01-0.500E-02
CGA:  44    -0.224479728889E+03   -0.45500E-02   -0.45144E-02  5760   0.400E-01 0.651E-03
CGA:  45    -0.224483748575E+03   -0.40197E-02   -0.42215E-02  5760   0.324E-01 0.656E-02
CGA:  46    -0.224487098663E+03   -0.33501E-02   -0.34404E-02  5760   0.230E-01-0.202E-02
CGA:  47    -0.224490071059E+03   -0.29724E-02   -0.29997E-02  5760   0.190E-01-0.191E-02
CGA:  48    -0.224493120024E+03   -0.30490E-02   -0.28545E-02  5760   0.251E-01 0.322E-02
CGA:  49    -0.224498626387E+03   -0.55064E-02   -0.54060E-02  5760   0.323E-01 0.337E-03
CGA:  50    -0.224502055600E+03   -0.34292E-02   -0.34530E-02  5760   0.255E-01 0.338E-02
CGA:  51    -0.224506620592E+03   -0.45650E-02   -0.42901E-02  5760   0.213E-01 0.314E-02
CGA:  52    -0.224512679702E+03   -0.60591E-02   -0.82571E-02  5760   0.821E-01-0.182E-01
CGA:  53    -0.224516788928E+03   -0.41092E-02   -0.53822E-02  5760   0.238E-01-0.635E-02
CGA:  54    -0.224519763825E+03   -0.29749E-02   -0.29733E-02  5760   0.190E-01 0.258E-03
CGA:  55    -0.224522866204E+03   -0.31024E-02   -0.30540E-02  5760   0.204E-01-0.586E-03
CGA:  56    -0.224529347927E+03   -0.64817E-02   -0.58769E-02  5760   0.404E-01 0.347E-02
CGA:  57    -0.224536169877E+03   -0.68219E-02   -0.67987E-02  5760   0.440E-01-0.523E-03
CGA:  58    -0.224541752074E+03   -0.55822E-02   -0.11769E-01  5760   0.308E+00-0.507E-01
CGA:  59    -0.224553564780E+03   -0.11813E-01   -0.11839E-01  5760   0.331E-01 0.349E-02
CGA:  60    -0.224562984370E+03   -0.94196E-02   -0.92287E-02  5760   0.346E-01 0.145E-02
CGA:  61    -0.224573992249E+03   -0.11008E-01   -0.10843E-01  5760   0.125E+00-0.443E-02
CGA:  62    -0.224582932094E+03   -0.89398E-02   -0.93920E-02  5760   0.108E+00-0.277E-02
CGA:  63    -0.224596439556E+03   -0.13507E-01   -0.14457E-01  5760   0.750E-01 0.250E-01
CGA:  64    -0.224611205168E+03   -0.14766E-01   -0.14805E-01  5760   0.290E+00-0.162E-01
CGA:  65    -0.224633611389E+03   -0.22406E-01   -0.17789E-01  5760   0.398E+00 0.220E-01
CGA:  66    -0.224634299518E+03   -0.68813E-03   -0.32957E-03  5760   0.388E+00 0.424E+00
CGA:  67    -0.224669612858E+03   -0.35313E-01   -0.34552E-01  5760   0.332E+00-0.125E-01
CGA:  68    -0.224687615240E+03   -0.18002E-01   -0.20675E-01  5760   0.124E+00-0.131E-01
CGA:  69    -0.224745850897E+03   -0.58236E-01   -0.59175E-01  5760   0.228E+00 0.729E-03
CGA:  70    -0.224777964598E+03   -0.32114E-01   -0.25090E-01  5760   0.429E+00 0.828E-01
CGA:  71    -0.224783614616E+03   -0.56500E-02   -0.38332E-02  5760   0.413E+00 0.498E+00
CGA:  72    -0.224813611991E+03   -0.29997E-01   -0.38840E-01  5760   0.172E+00 0.346E-01
CGA:  73    -0.224842733260E+03   -0.29121E-01   -0.29840E-01  5760   0.123E+00-0.126E-01
CGA:  74    -0.224868913614E+03   -0.26180E-01   -0.23061E-01  5760   0.107E+00 0.382E-01
CGA:  75    -0.224890559538E+03   -0.21646E-01   -0.21653E-01  5760   0.100E+00 0.807E-02
CGA:  76    -0.224870509817E+03    0.20050E-01   -0.41810E-01  5760   0.837E+00-0.107E+00
CGA:  77    -0.224924487433E+03   -0.53978E-01   -0.50002E-01  5760   0.163E+00-0.166E+00
CGA:  78    -0.224942582493E+03   -0.18095E-01   -0.16672E-01  5760   0.363E-01-0.444E-02
CGA:  79    -0.224947400522E+03   -0.48180E-02   -0.43963E-02  5760   0.287E-01 0.495E-02
CGA:  80    -0.224953187119E+03   -0.57866E-02   -0.10476E-01  5760   0.102E+00-0.105E-01
CGA:  81    -0.224961768400E+03   -0.85813E-02   -0.77038E-02  5760   0.514E-01-0.111E-01
CGA:  82    -0.224965441564E+03   -0.36732E-02   -0.34310E-02  5760   0.367E-01 0.853E-02
CGA:  83    -0.224973537844E+03   -0.80963E-02   -0.89277E-02  5760   0.463E-01-0.102E-01
CGA:  84    -0.224977838295E+03   -0.43005E-02   -0.42600E-02  5760   0.512E-01 0.435E-02
CGA:  85    -0.224983863456E+03   -0.60252E-02   -0.59360E-02  5760   0.305E-01 0.158E-03
CGA:  86    -0.224988997791E+03   -0.51343E-02   -0.51676E-02  5760   0.224E-01-0.160E-02
CGA:  87    -0.224991164758E+03   -0.21670E-02   -0.21026E-02  5760   0.981E-02 0.149E-02
CGA:  88    -0.224992380803E+03   -0.12160E-02   -0.11694E-02  5760   0.793E-02 0.365E-06
CGA:  89    -0.224993559318E+03   -0.11785E-02   -0.11784E-02  5760   0.778E-02 0.371E-03
CGA:  90    -0.224994561676E+03   -0.10024E-02   -0.10088E-02  5760   0.564E-02 0.896E-04
CGA:  91    -0.224995166882E+03   -0.60521E-03   -0.58346E-03  5760   0.349E-02 0.392E-03
CGA:  92    -0.224995819338E+03   -0.65246E-03   -0.65853E-03  5760   0.485E-02-0.555E-04
CGA:  93    -0.224996812791E+03   -0.99345E-03   -0.98177E-03  5760   0.771E-02 0.371E-03
CGA:  94    -0.224998083760E+03   -0.12710E-02   -0.12755E-02  5760   0.744E-02-0.174E-03
CGA:  95    -0.224998959703E+03   -0.87594E-03   -0.87903E-03  5760   0.687E-02-0.572E-04
CGA:  96    -0.225000293736E+03   -0.13340E-02   -0.13730E-02  5760   0.933E-02-0.749E-03
CGA:  97    -0.225001441903E+03   -0.11482E-02   -0.11391E-02  5760   0.933E-02 0.679E-03
CGA:  98    -0.225002953390E+03   -0.15115E-02   -0.15129E-02  5760   0.740E-02-0.560E-03
CGA:  99    -0.225003866010E+03   -0.91262E-03   -0.90447E-03  5760   0.525E-02-0.277E-03
CGA: 100    -0.225004856978E+03   -0.99097E-03   -0.99702E-03  5760   0.802E-02 0.651E-04
CGA: 101    -0.225006171966E+03   -0.13150E-02   -0.13147E-02  5760   0.775E-02-0.120E-03
CGA: 102    -0.225007060802E+03   -0.88884E-03   -0.85923E-03  5760   0.453E-02 0.952E-04
CGA: 103    -0.225008012051E+03   -0.95125E-03   -0.95623E-03  5760   0.638E-02-0.427E-04
CGA: 104    -0.225009164816E+03   -0.11528E-02   -0.11517E-02  5760   0.595E-02 0.106E-03
CGA: 105    -0.225010014277E+03   -0.84946E-03   -0.84998E-03  5760   0.467E-02 0.179E-03
CGA: 106    -0.225010681820E+03   -0.66754E-03   -0.66436E-03  5760   0.354E-02 0.297E-04
SDA: 107    -0.225011230956E+03   -0.54914E-03   -0.54927E-03  5760   0.309E-02-0.980E-04
CGA: 108    -0.225011729476E+03   -0.49852E-03   -0.49872E-03  5760   0.150E-02 0.711E-04
CGA: 109    -0.225011934481E+03   -0.20501E-03   -0.19954E-03  5760   0.153E-02 0.133E-03
CGA: 110    -0.225012244423E+03   -0.30994E-03   -0.34495E-03  5760   0.131E-02-0.250E-03
CGA: 111    -0.225012407843E+03   -0.16342E-03   -0.16210E-03  5760   0.909E-03-0.154E-04
CGA: 112    -0.225012551636E+03   -0.14379E-03   -0.14528E-03  5760   0.894E-03-0.280E-04
CGA: 113    -0.225012733287E+03   -0.18165E-03   -0.18759E-03  5760   0.869E-03-0.229E-04
CGA: 114    -0.225012856293E+03   -0.12301E-03   -0.11854E-03  5760   0.667E-03 0.172E-04
CGA: 115    -0.225012975051E+03   -0.11876E-03   -0.12035E-03  5760   0.578E-03-0.751E-05
CGA: 116    -0.225013065238E+03   -0.90187E-04   -0.90112E-04  5760   0.424E-03-0.115E-04
CGA: 117    -0.225013143705E+03   -0.78467E-04   -0.80492E-04  5760   0.544E-03 0.199E-05
CGA: 118    -0.225013239531E+03   -0.95826E-04   -0.99203E-04  5760   0.428E-03-0.128E-04
CGA: 119    -0.225013304772E+03   -0.65241E-04   -0.64558E-04  5760   0.471E-03-0.208E-05
CGA: 120    -0.225013408164E+03   -0.10339E-03   -0.10944E-03  5760   0.608E-03-0.307E-04
CGA: 121    -0.225013538446E+03   -0.13028E-03   -0.13744E-03  5760   0.808E-03 0.466E-06
CGA: 122    -0.225013660087E+03   -0.12164E-03   -0.11496E-03  5760   0.718E-03 0.132E-04
CGA: 123    -0.225013812727E+03   -0.15264E-03   -0.15878E-03  5760   0.102E-02-0.335E-04
CGA: 124    -0.225014036321E+03   -0.22359E-03   -0.23119E-03  5760   0.108E-02-0.488E-05
CGA: 125    -0.225014206920E+03   -0.17060E-03   -0.16303E-03  5760   0.121E-02 0.435E-04
CGA: 126    -0.225014418253E+03   -0.21133E-03   -0.21102E-03  5760   0.102E-02-0.141E-04
CGA: 127    -0.225014695018E+03   -0.27676E-03   -0.30210E-03  5760   0.149E-02-0.649E-04
CGA: 128    -0.225014919526E+03   -0.22451E-03   -0.22413E-03  5760   0.130E-02 0.596E-05
CGA: 129    -0.225015110274E+03   -0.19075E-03   -0.17829E-03  5760   0.949E-03 0.497E-04
CGA: 130    -0.225015311795E+03   -0.20152E-03   -0.20219E-03  5760   0.970E-03-0.244E-05
CGA: 131    -0.225015462918E+03   -0.15112E-03   -0.14743E-03  5760   0.696E-03 0.105E-04
CGA: 132    -0.225015570061E+03   -0.10714E-03   -0.10638E-03  5760   0.514E-03 0.533E-05
CGA: 133    -0.225015652382E+03   -0.82322E-04   -0.80690E-04  5760   0.341E-03 0.510E-05
CGA: 134    -0.225015718886E+03   -0.66504E-04   -0.67539E-04  5760   0.407E-03-0.572E-05
CGA: 135    -0.225015774464E+03   -0.55578E-04   -0.53258E-04  5760   0.235E-03-0.584E-05
CGA: 136    -0.225015826158E+03   -0.51694E-04   -0.52502E-04  5760   0.261E-03-0.350E-05
CGA: 137    -0.225015877830E+03   -0.51672E-04   -0.53861E-04  5760   0.326E-03-0.179E-05
SDA: 138    -0.225015922003E+03   -0.44173E-04   -0.43247E-04  5760   0.298E-03 0.343E-05
CGA: 139    -0.225015956837E+03   -0.34834E-04   -0.33859E-04  5760   0.209E-03 0.216E-04
CGA: 140    -0.225015991100E+03   -0.34263E-04   -0.32884E-04  5760   0.163E-03 0.583E-06
CGA: 141    -0.225016030554E+03   -0.39454E-04   -0.41308E-04  5760   0.184E-03-0.788E-05
CGA: 142    -0.225016062253E+03   -0.31699E-04   -0.31899E-04  5760   0.243E-03 0.627E-05
CGA: 143    -0.225016108968E+03   -0.46716E-04   -0.47210E-04  5760   0.189E-03-0.461E-05
CGA: 144    -0.225016148460E+03   -0.39492E-04   -0.41600E-04  5760   0.311E-03-0.384E-06
CGA: 145    -0.225016201277E+03   -0.52816E-04   -0.52338E-04  5760   0.274E-03-0.618E-05
CGA: 146    -0.225016268727E+03   -0.67450E-04   -0.71067E-04  5760   0.300E-03-0.703E-05
CGA: 147    -0.225016304776E+03   -0.36049E-04   -0.32597E-04  5760   0.188E-03 0.134E-04
CGA: 148    -0.225016359885E+03   -0.55109E-04   -0.57911E-04  5760   0.261E-03-0.916E-05
CGA: 149    -0.225016404208E+03   -0.44323E-04   -0.44070E-04  5760   0.213E-03 0.263E-05
CGA: 150    -0.225016431480E+03   -0.27272E-04   -0.25052E-04  5760   0.121E-03 0.581E-05
CGA: 151    -0.225016458407E+03   -0.26927E-04   -0.27196E-04  5760   0.939E-04-0.948E-06
CGA: 152    -0.225016477488E+03   -0.19081E-04   -0.19174E-04  5760   0.108E-03 0.507E-05
CGA: 153    -0.225016494235E+03   -0.16747E-04   -0.15244E-04  5760   0.662E-04 0.313E-05
CGA: 154    -0.225016504417E+03   -0.10182E-04   -0.10071E-04  5760   0.426E-04-0.451E-08
CGA: 155    -0.225016515343E+03   -0.10926E-04   -0.11401E-04  5760   0.518E-04 0.530E-06
CGA: 156    -0.225016522204E+03   -0.68614E-05   -0.64188E-05  5760   0.342E-04 0.278E-05
CGA: 157    -0.225016528683E+03   -0.64789E-05   -0.64751E-05  5760   0.221E-04-0.416E-06
CGA: 158    -0.225016534294E+03   -0.56111E-05   -0.56515E-05  5760   0.341E-04 0.388E-06
CGA: 159    -0.225016539896E+03   -0.56014E-05   -0.52900E-05  5760   0.293E-04 0.100E-05
CGA: 160    -0.225016545725E+03   -0.58293E-05   -0.58874E-05  5760   0.331E-04-0.190E-05
CGA: 161    -0.225016552966E+03   -0.72406E-05   -0.77717E-05  5760   0.414E-04-0.220E-05
CGA: 162    -0.225016558116E+03   -0.51508E-05   -0.48360E-05  5760   0.272E-04 0.602E-06
CGA: 163    -0.225016565971E+03   -0.78541E-05   -0.83752E-05  5760   0.336E-04-0.130E-05
CGA: 164    -0.225016570570E+03   -0.46000E-05   -0.44326E-05  5760   0.255E-04 0.624E-06
CGA: 165    -0.225016575070E+03   -0.44994E-05   -0.44284E-05  5760   0.212E-04-0.695E-06
CGA: 166    -0.225016579477E+03   -0.44068E-05   -0.44417E-05  5760   0.225E-04 0.166E-06
CGA: 167    -0.225016582908E+03   -0.34315E-05   -0.33995E-05  5760   0.150E-04 0.170E-05
CGA: 168    -0.225016585599E+03   -0.26913E-05   -0.26498E-05  5760   0.131E-04 0.950E-06
SDA: 169    -0.225016588415E+03   -0.28151E-05   -0.28249E-05  5760   0.176E-04 0.310E-06
CGA: 170    -0.225016590120E+03   -0.17053E-05   -0.15245E-05  5760   0.881E-05 0.145E-05
CGA: 171    -0.225016591800E+03   -0.16798E-05   -0.16669E-05  5760   0.681E-05-0.781E-06
CGA: 172    -0.225016593463E+03   -0.16631E-05   -0.18425E-05  5760   0.105E-04-0.684E-06
CGA: 173    -0.225016594731E+03   -0.12684E-05   -0.12368E-05  5760   0.753E-05 0.267E-06
CGA: 174    -0.225016596110E+03   -0.13787E-05   -0.13728E-05  5760   0.397E-05-0.213E-06
CGA: 175    -0.225016597239E+03   -0.11296E-05   -0.11784E-05  5760   0.743E-05-0.232E-06
CGA: 176    -0.225016598111E+03   -0.87177E-06   -0.75559E-06  5760   0.340E-05 0.421E-06
   1 F= -.23445878E+03 E0= -.23445543E+03  d E =-.670309E-02  mag=     6.0000
