 running on   64 total cores
 distrk:  each k-point on   64 cores,    1 groups
 distr:  one band on    4 cores,   16 groups
 using from now: INCAR     
 vasp.5.4.4.18Apr17-6-g9f103f2a35 (build Nov 22 2021 14:44:17) complex          
  
 POSCAR found type information on POSCAR  Li Co O 
 POSCAR found :  3 types and      42 ions
 scaLAPACK will be used
 LDA part: xc-table for Pade appr. of Perdew
 generate k-points for:    6    6    2
 POSCAR, INCAR and KPOINTS ok, starting setup
 FFT: planning ...
 WAVECAR not read
 entering main loop
       N       E                     dE             d eps       ncg     rms          ort
DAV:   1     0.347574960923E+04    0.34757E+04   -0.13966E+05  5760   0.217E+03
DAV:   2     0.411887166636E+03   -0.30639E+04   -0.28239E+04  5760   0.528E+02
DAV:   3    -0.218890675948E+03   -0.63078E+03   -0.57770E+03  5760   0.253E+02
DAV:   4    -0.270182088451E+03   -0.51291E+02   -0.50159E+02  5760   0.743E+01
DAV:   5    -0.272079008745E+03   -0.18969E+01   -0.18932E+01  5760   0.141E+01
 gam= 0.000 g(H,U,f)=  0.186E+04 0.880E+03 0.126E+03 ort(H,U,f) = 0.000E+00 0.000E+00 0.000E+00
SDA:   6     0.144050808511E+03    0.41613E+03   -0.18932E+01  5760   0.286E+04 0.000E+00
 gam= 0.000 trial= 0.400  step= 0.054 mean= 0.400
 gam= 2.870 g(H,U,f)=  0.128E+04 0.185E+04 0.508E+04 ort(H,U,f) = 0.112E+04 0.193E+03-0.248E+04
CGA:   7     0.767182634399E+02   -0.67333E+02   -0.77142E+02  5760   0.821E+04-0.116E+04
 gam= 2.870 trial= 0.383  step= 0.040 mean= 0.383
 gam= 0.000 g(H,U,f)=  0.788E+04 0.153E+05 0.255E+05 ort(H,U,f) = 0.803E+04-0.443E+04-0.168E+05
CGA:   8     0.109572935382E+04    0.10190E+04   -0.96237E+02  5760   0.487E+05-0.132E+05
 gam= 0.000 trial= 0.366  step= 0.134 mean= 0.366
 gam= 1.309 g(H,U,f)=  0.178E+05 0.205E+05 0.254E+05 ort(H,U,f) =-0.319E+04-0.316E+04-0.756E+04
CGA:   9     0.270628739476E+04    0.16106E+04   -0.32687E+04  5760   0.638E+05-0.139E+05
 gam= 1.309 trial= 0.354  step= 0.132 mean= 0.354
 gam= 0.000 g(H,U,f)=  0.228E+05 0.591E+05 0.654E+04 ort(H,U,f) =-0.313E+04-0.364E+05-0.417E+04
CGA:  10     0.172590096814E+04   -0.98039E+03   -0.30189E+04  5760   0.884E+05-0.437E+05
 gam= 0.000 trial= 0.343  step= 0.139 mean= 0.343
 gam= 0.518 g(H,U,f)=  0.260E+05 0.187E+05 0.105E+04 ort(H,U,f) =-0.132E+05-0.106E+05-0.671E+03
CGA:  11     0.184158138365E+04    0.11568E+03   -0.61584E+04  5760   0.458E+05-0.245E+05
 gam= 0.518 trial= 0.333  step= 0.134 mean= 0.333
 gam= 0.424 g(H,U,f)=  0.561E+04 0.131E+05 0.744E+03 ort(H,U,f) = 0.244E+04 0.390E+04 0.373E+03
CGA:  12     0.575815630444E+03   -0.12658E+04   -0.22256E+04  5760   0.194E+05 0.672E+04
 gam= 0.424 trial= 0.323  step= 0.084 mean= 0.323
 gam= 0.000 g(H,U,f)=  0.934E+04 0.181E+05 0.941E+03 ort(H,U,f) =-0.549E+04-0.122E+05-0.694E+03
CGA:  13     0.844996671389E+03    0.26918E+03   -0.93423E+03  5760   0.283E+05-0.184E+05
 gam= 0.000 trial= 0.311  step= 0.099 mean= 0.311
 gam= 0.000 g(H,U,f)=  0.928E+04 0.171E+05 0.140E+04 ort(H,U,f) =-0.800E+04-0.133E+05-0.111E+04
CGA:  14     0.109418878505E+04    0.24919E+03   -0.14078E+04  5760   0.278E+05-0.224E+05
 gam= 0.000 trial= 0.300  step= 0.067 mean= 0.300
 gam= 0.000 g(H,U,f)=  0.271E+04 0.686E+04 0.625E+03 ort(H,U,f) =-0.367E+04-0.131E+05-0.124E+04
CGA:  15     0.378207125937E+03   -0.71598E+03   -0.93437E+03  5760   0.102E+05-0.180E+05
 gam= 0.000 trial= 0.289  step= 0.063 mean= 0.289
 gam= 0.000 g(H,U,f)=  0.914E+03 0.586E+04 0.479E+03 ort(H,U,f) =-0.849E+03-0.877E+04-0.736E+03
CGA:  16     0.204274472518E+03   -0.17393E+03   -0.31896E+03  5760   0.726E+04-0.104E+05
 gam= 0.000 trial= 0.277  step= 0.073 mean= 0.277
 gam= 0.000 g(H,U,f)=  0.116E+04 0.362E+04 0.335E+03 ort(H,U,f) =-0.489E+03-0.321E+04-0.324E+03
CGA:  17     0.186919061469E+03   -0.17355E+02   -0.26653E+03  5760   0.512E+04-0.402E+04
 gam= 0.000 trial= 0.267  step= 0.055 mean= 0.267
 gam= 0.000 g(H,U,f)=  0.351E+03 0.125E+04 0.103E+03 ort(H,U,f) =-0.987E+02-0.247E+04-0.225E+03
CGA:  18     0.834681727467E+02   -0.10345E+03   -0.14185E+03  5760   0.171E+04-0.279E+04
 gam= 0.000 trial= 0.257  step= 0.070 mean= 0.257
 gam= 0.732 g(H,U,f)=  0.370E+03 0.820E+03 0.596E+02 ort(H,U,f) = 0.589E+02-0.672E+03-0.617E+02
CGA:  19     0.620623368046E+02   -0.21406E+02   -0.59503E+02  5760   0.125E+04-0.675E+03
 gam= 0.732 trial= 0.247  step= 0.264 mean= 0.247
 gam= 0.797 g(H,U,f)=  0.208E+03 0.712E+03 0.754E+02 ort(H,U,f) = 0.128E+03-0.117E+03-0.238E+02
CGA:  20    -0.375249228895E+02   -0.99587E+02   -0.99664E+02  5760   0.996E+03-0.130E+02
 gam= 0.797 trial= 0.248  step= 0.099 mean= 0.248
 gam= 0.620 g(H,U,f)=  0.133E+03 0.429E+03 0.559E+02 ort(H,U,f) = 0.754E+02-0.244E+03-0.412E+02
CGA:  21    -0.661662407668E+02   -0.28641E+02   -0.48986E+02  5760   0.618E+03-0.210E+03
 gam= 0.620 trial= 0.241  step= 0.137 mean= 0.241
 gam= 0.323 g(H,U,f)=  0.617E+02 0.125E+03 0.123E+02 ort(H,U,f) = 0.696E+02-0.509E+02-0.166E+02
CGA:  22    -0.999225935363E+02   -0.33756E+02   -0.33283E+02  5760   0.199E+03 0.208E+01
 gam= 0.323 trial= 0.235  step= 0.125 mean= 0.235
 gam= 0.956 g(H,U,f)=  0.490E+02 0.117E+03 0.242E+02 ort(H,U,f) = 0.266E+02-0.302E+02-0.101E+02
CGA:  23    -0.111088513177E+03   -0.11166E+02   -0.12470E+02  5760   0.191E+03-0.137E+02
 gam= 0.956 trial= 0.230  step= 0.216 mean= 0.230
 gam= 1.091 g(H,U,f)=  0.468E+02 0.147E+03 0.141E+02 ort(H,U,f) = 0.152E+02-0.154E+02-0.837E+01
CGA:  24    -0.130233855546E+03   -0.19145E+02   -0.19124E+02  5760   0.208E+03-0.851E+01
 gam= 1.091 trial= 0.229  step= 0.091 mean= 0.229
 gam= 0.462 g(H,U,f)=  0.294E+02 0.612E+02 0.555E+01 ort(H,U,f) = 0.892E+01-0.184E+01-0.398E+01
CGA:  25    -0.140363647005E+03   -0.10130E+02   -0.90052E+01  5760   0.961E+02 0.310E+01
 gam= 0.462 trial= 0.222  step= 0.183 mean= 0.222
 gam= 1.671 g(H,U,f)=  0.348E+02 0.115E+03 0.112E+02 ort(H,U,f) = 0.172E+01-0.238E+01-0.271E+01
CGA:  26    -0.149238053554E+03   -0.88744E+01   -0.89272E+01  5760   0.161E+03-0.337E+01
 gam= 1.671 trial= 0.220  step= 0.127 mean= 0.220
 gam= 0.496 g(H,U,f)=  0.213E+02 0.535E+02 0.485E+01 ort(H,U,f) =-0.727E+01 0.625E+01-0.313E+01
CGA:  27    -0.161099484951E+03   -0.11861E+02   -0.98492E+01  5760   0.796E+02-0.415E+01
 gam= 0.496 trial= 0.216  step= 0.168 mean= 0.216
 gam= 1.448 g(H,U,f)=  0.271E+02 0.799E+02 0.828E+01 ort(H,U,f) =-0.484E+01 0.966E+00-0.219E+01
CGA:  28    -0.167632336677E+03   -0.65329E+01   -0.65216E+01  5760   0.115E+03-0.607E+01
 gam= 1.448 trial= 0.213  step= 0.124 mean= 0.213
 gam= 0.678 g(H,U,f)=  0.241E+02 0.505E+02 0.364E+01 ort(H,U,f) =-0.578E+01-0.226E+01 0.769E+00
CGA:  29    -0.174832601044E+03   -0.72003E+01   -0.66290E+01  5760   0.782E+02-0.728E+01
 gam= 0.678 trial= 0.209  step= 0.151 mean= 0.209
 gam= 0.929 g(H,U,f)=  0.214E+02 0.476E+02 0.361E+01 ort(H,U,f) =-0.164E+01-0.212E+01-0.235E+01
CGA:  30    -0.180535168412E+03   -0.57026E+01   -0.55183E+01  5760   0.727E+02-0.611E+01
 gam= 0.929 trial= 0.206  step= 0.139 mean= 0.206
 gam= 0.664 g(H,U,f)=  0.193E+02 0.273E+02 0.169E+01 ort(H,U,f) =-0.503E+00-0.296E+01-0.104E+00
CGA:  31    -0.185136442559E+03   -0.46013E+01   -0.46547E+01  5760   0.483E+02-0.357E+01
 gam= 0.664 trial= 0.203  step= 0.185 mean= 0.203
 gam= 1.509 g(H,U,f)=  0.187E+02 0.515E+02 0.263E+01 ort(H,U,f) = 0.487E+01-0.845E+01-0.115E+01
CGA:  32    -0.189452577057E+03   -0.43161E+01   -0.42511E+01  5760   0.729E+02-0.473E+01
 gam= 1.509 trial= 0.202  step= 0.144 mean= 0.202
 gam= 0.355 g(H,U,f)=  0.152E+02 0.106E+02 0.129E+00 ort(H,U,f) =-0.507E+01 0.413E+01 0.404E+00
CGA:  33    -0.194228286120E+03   -0.47757E+01   -0.47382E+01  5760   0.259E+02-0.539E+00
 gam= 0.355 trial= 0.199  step= 0.329 mean= 0.199
 gam= 0.989 g(H,U,f)=  0.131E+02 0.122E+02 0.330E+00 ort(H,U,f) =-0.666E+00 0.158E+01 0.416E-01
CGA:  34    -0.198545026319E+03   -0.43167E+01   -0.42287E+01  5760   0.256E+02 0.959E+00
 gam= 0.989 trial= 0.205  step= 0.210 mean= 0.205
 gam= 1.387 g(H,U,f)=  0.120E+02 0.225E+02 0.102E+01 ort(H,U,f) = 0.144E+01 0.631E+00 0.871E-01
CGA:  35    -0.201340649338E+03   -0.27956E+01   -0.27915E+01  5760   0.355E+02 0.216E+01
 gam= 1.387 trial= 0.206  step= 0.147 mean= 0.206
 gam= 0.465 g(H,U,f)=  0.896E+01 0.730E+01 0.246E+00 ort(H,U,f) =-0.299E+01 0.621E+01-0.223E-01
CGA:  36    -0.204248970331E+03   -0.29083E+01   -0.28217E+01  5760   0.165E+02 0.320E+01
 gam= 0.465 trial= 0.203  step= 0.185 mean= 0.203
 gam= 1.996 g(H,U,f)=  0.927E+01 0.218E+02 0.184E+01 ort(H,U,f) = 0.187E+01-0.158E+01-0.549E+00
CGA:  37    -0.205935721808E+03   -0.16868E+01   -0.16605E+01  5760   0.330E+02-0.251E+00
 gam= 1.996 trial= 0.202  step= 0.100 mean= 0.202
 gam= 1.171 g(H,U,f)=  0.873E+01 0.268E+02 0.306E+01 ort(H,U,f) = 0.422E+00 0.347E+01-0.118E+01
CGA:  38    -0.207618622657E+03   -0.16829E+01   -0.16245E+01  5760   0.386E+02 0.272E+01
 gam= 1.171 trial= 0.197  step= 0.080 mean= 0.197
 gam= 0.364 g(H,U,f)=  0.773E+01 0.612E+01 0.181E+00 ort(H,U,f) =-0.715E+01 0.645E+01-0.295E+00
CGA:  39    -0.208951402686E+03   -0.13328E+01   -0.16665E+01  5760   0.140E+02-0.994E+00
 gam= 0.364 trial= 0.191  step= 0.178 mean= 0.191
 gam= 1.227 g(H,U,f)=  0.681E+01 0.951E+01 0.904E+00 ort(H,U,f) =-0.557E+00 0.313E+01 0.318E-01
CGA:  40    -0.210152143624E+03   -0.12007E+01   -0.12179E+01  5760   0.172E+02 0.260E+01
 gam= 1.227 trial= 0.190  step= 0.100 mean= 0.190
 gam= 0.711 g(H,U,f)=  0.555E+01 0.630E+01 0.396E+00 ort(H,U,f) = 0.940E+00 0.217E+01-0.103E+00
CGA:  41    -0.211166032220E+03   -0.10139E+01   -0.10233E+01  5760   0.122E+02 0.301E+01
 gam= 0.711 trial= 0.186  step= 0.153 mean= 0.186
 gam= 1.254 g(H,U,f)=  0.503E+01 0.952E+01 0.801E+00 ort(H,U,f) = 0.105E+01 0.106E+01 0.173E+00
CGA:  42    -0.212234146196E+03   -0.10681E+01   -0.11022E+01  5760   0.153E+02 0.228E+01
 gam= 1.254 trial= 0.184  step= 0.103 mean= 0.184
 gam= 0.675 g(H,U,f)=  0.474E+01 0.542E+01 0.210E+00 ort(H,U,f) = 0.270E+00 0.134E+01-0.131E+00
CGA:  43    -0.213053451737E+03   -0.81931E+00   -0.93924E+00  5760   0.104E+02 0.148E+01
 gam= 0.675 trial= 0.180  step= 0.148 mean= 0.180
 gam= 0.822 g(H,U,f)=  0.358E+01 0.473E+01 0.214E+00 ort(H,U,f) = 0.238E+00 0.153E+01 0.636E-01
CGA:  44    -0.213862889600E+03   -0.80944E+00   -0.84149E+00  5760   0.852E+01 0.183E+01
 gam= 0.822 trial= 0.178  step= 0.122 mean= 0.178
 gam= 0.846 g(H,U,f)=  0.263E+01 0.438E+01 0.200E+00 ort(H,U,f) = 0.183E+00 0.125E+01-0.211E+00
CGA:  45    -0.214448697555E+03   -0.58581E+00   -0.61254E+00  5760   0.721E+01 0.122E+01
 gam= 0.846 trial= 0.176  step= 0.147 mean= 0.176
 gam= 1.076 g(H,U,f)=  0.243E+01 0.502E+01 0.304E+00 ort(H,U,f) =-0.574E+00 0.177E+01-0.149E+00
CGA:  46    -0.215042671892E+03   -0.59397E+00   -0.60484E+00  5760   0.776E+01 0.104E+01
 gam= 1.076 trial= 0.174  step= 0.123 mean= 0.174
 gam= 0.907 g(H,U,f)=  0.257E+01 0.436E+01 0.103E+00 ort(H,U,f) =-0.108E+01 0.229E+01-0.118E+00
CGA:  47    -0.215555231972E+03   -0.51256E+00   -0.54711E+00  5760   0.704E+01 0.109E+01
 gam= 0.907 trial= 0.172  step= 0.143 mean= 0.172
 gam= 0.938 g(H,U,f)=  0.239E+01 0.407E+01 0.141E+00 ort(H,U,f) =-0.100E+01 0.208E+01-0.225E+00
CGA:  48    -0.216117735316E+03   -0.56250E+00   -0.57435E+00  5760   0.660E+01 0.850E+00
 gam= 0.938 trial= 0.170  step= 0.114 mean= 0.170
 gam= 0.000 g(H,U,f)=  0.206E+01 0.413E+01 0.486E+00 ort(H,U,f) =-0.593E+00 0.143E+01-0.642E+00
SDA:  49    -0.216542722508E+03   -0.42499E+00   -0.42050E+00  5760   0.667E+01 0.199E+00
 gam= 0.000 trial= 0.167  step= 0.263 mean= 0.167
 gam= 2.291 g(H,U,f)=  0.166E+01 0.105E+02 0.309E+01 ort(H,U,f) = 0.105E+01 0.521E-01-0.104E+01
CGA:  50    -0.217459426335E+03   -0.91670E+00   -0.87842E+00  5760   0.153E+02 0.585E-01
 gam= 2.291 trial= 0.172  step= 0.220 mean= 0.172
 gam= 0.525 g(H,U,f)=  0.231E+01 0.476E+01 0.950E+00 ort(H,U,f) =-0.932E+00 0.234E+01-0.144E+00
CGA:  51    -0.219196348073E+03   -0.17369E+01   -0.16992E+01  5760   0.802E+01 0.127E+01
 gam= 0.525 trial= 0.175  step= 0.286 mean= 0.175
 gam= 0.831 g(H,U,f)=  0.115E+01 0.413E+01 0.140E+01 ort(H,U,f) =-0.116E+01 0.151E+01 0.710E+00
CGA:  52    -0.220477299459E+03   -0.12810E+01   -0.12429E+01  5760   0.667E+01 0.107E+01
 gam= 0.831 trial= 0.180  step= 0.095 mean= 0.180
 gam= 0.508 g(H,U,f)=  0.106E+01 0.149E+01 0.836E+00 ort(H,U,f) =-0.490E+00 0.125E+01-0.227E+01
CGA:  53    -0.220803515377E+03   -0.32622E+00   -0.35867E+00  5760   0.338E+01-0.151E+01
 gam= 0.508 trial= 0.176  step= 0.339 mean= 0.176
 gam= 1.971 g(H,U,f)=  0.107E+01 0.347E+01 0.213E+01 ort(H,U,f) =-0.237E+00-0.372E+00-0.740E+00
CGA:  54    -0.221161752301E+03   -0.35824E+00   -0.44406E+00  5760   0.667E+01-0.135E+01
 gam= 1.971 trial= 0.184  step= 0.061 mean= 0.184
 gam= 0.524 g(H,U,f)=  0.104E+01 0.173E+01 0.726E+00 ort(H,U,f) = 0.423E-01 0.450E+00 0.239E+00
CGA:  55    -0.221294869854E+03   -0.13312E+00   -0.12184E+00  5760   0.349E+01 0.731E+00
 gam= 0.524 trial= 0.178  step= 0.093 mean= 0.178
 gam= 1.168 g(H,U,f)=  0.729E+00 0.244E+01 0.911E+00 ort(H,U,f) = 0.578E+00-0.238E+00 0.118E+00
CGA:  56    -0.221436184378E+03   -0.14131E+00   -0.18063E+00  5760   0.408E+01 0.458E+00
 gam= 1.168 trial= 0.174  step= 0.110 mean= 0.174
 gam= 0.287 g(H,U,f)=  0.349E+00 0.645E+00 0.179E+00 ort(H,U,f) =-0.697E-01 0.283E-01-0.180E+00
CGA:  57    -0.221667560743E+03   -0.23138E+00   -0.25293E+00  5760   0.117E+01-0.221E+00
 gam= 0.287 trial= 0.170  step= 0.220 mean= 0.170
 gam= 0.999 g(H,U,f)=  0.222E+00 0.629E+00 0.321E+00 ort(H,U,f) =-0.343E-01-0.168E-01 0.976E-02
CGA:  58    -0.221789575087E+03   -0.12201E+00   -0.12190E+00  5760   0.117E+01-0.413E-01
 gam= 0.999 trial= 0.173  step= 0.178 mean= 0.173
 gam= 1.190 g(H,U,f)=  0.268E+00 0.863E+00 0.263E+00 ort(H,U,f) =-0.658E-01 0.221E+00 0.293E+00
CGA:  59    -0.221891436526E+03   -0.10186E+00   -0.10063E+00  5760   0.140E+01 0.448E+00
 gam= 1.190 trial= 0.173  step= 0.199 mean= 0.173
 gam= 0.994 g(H,U,f)=  0.319E+00 0.756E+00 0.311E+00 ort(H,U,f) =-0.160E+00 0.483E+00-0.106E-02
CGA:  60    -0.222095200252E+03   -0.20376E+00   -0.19233E+00  5760   0.139E+01 0.322E+00
 gam= 0.994 trial= 0.174  step= 0.243 mean= 0.174
 gam= 1.358 g(H,U,f)=  0.466E+00 0.125E+01 0.168E+00 ort(H,U,f) =-0.334E+00 0.898E-01-0.729E-01
CGA:  61    -0.222282815910E+03   -0.18762E+00   -0.20747E+00  5760   0.188E+01-0.317E+00
 gam= 1.358 trial= 0.178  step= 0.117 mean= 0.178
 gam= 0.841 g(H,U,f)=  0.566E+00 0.102E+01 0.902E-03 ort(H,U,f) =-0.363E+00 0.380E+00 0.280E-02
CGA:  62    -0.222368539460E+03   -0.85724E-01   -0.85264E-01  5760   0.158E+01 0.195E-01
 gam= 0.841 trial= 0.175  step= 0.159 mean= 0.175
 gam= 1.213 g(H,U,f)=  0.537E+00 0.122E+01 0.162E+00 ort(H,U,f) =-0.156E+00 0.292E+00-0.113E+00
CGA:  63    -0.222495165075E+03   -0.12663E+00   -0.12737E+00  5760   0.192E+01 0.231E-01
 gam= 1.213 trial= 0.174  step= 0.119 mean= 0.174
 gam= 0.498 g(H,U,f)=  0.418E+00 0.490E+00 0.480E-01 ort(H,U,f) =-0.230E+00 0.248E+00-0.261E-01
CGA:  64    -0.222618928824E+03   -0.12376E+00   -0.11617E+00  5760   0.956E+00-0.813E-02
 gam= 0.498 trial= 0.171  step= 0.184 mean= 0.171
 gam= 0.716 g(H,U,f)=  0.332E+00 0.310E+00 0.422E-01 ort(H,U,f) =-0.186E-01 0.127E+00 0.350E-01
CGA:  65    -0.222707267718E+03   -0.88339E-01   -0.87401E-01  5760   0.684E+00 0.144E+00
 gam= 0.716 trial= 0.172  step= 0.160 mean= 0.172
 gam= 1.163 g(H,U,f)=  0.277E+00 0.378E+00 0.141E+00 ort(H,U,f) = 0.101E+00 0.173E-01-0.121E+00
CGA:  66    -0.222769721280E+03   -0.62454E-01   -0.62851E-01  5760   0.796E+00-0.218E-02
 gam= 1.163 trial= 0.171  step= 0.179 mean= 0.171
 gam= 0.635 g(H,U,f)=  0.238E+00 0.251E+00 0.164E-01 ort(H,U,f) =-0.234E-01 0.169E-01-0.113E-01
CGA:  67    -0.222840588524E+03   -0.70867E-01   -0.71130E-01  5760   0.505E+00-0.179E-01
 gam= 0.635 trial= 0.172  step= 0.204 mean= 0.172
 gam= 0.683 g(H,U,f)=  0.136E+00 0.183E+00 0.253E-01 ort(H,U,f) =-0.312E-01 0.668E-01-0.837E-02
CGA:  68    -0.222891487526E+03   -0.50899E-01   -0.50289E-01  5760   0.345E+00 0.272E-01
 gam= 0.683 trial= 0.173  step= 0.150 mean= 0.173
 gam= 0.831 g(H,U,f)=  0.977E-01 0.148E+00 0.404E-01 ort(H,U,f) =-0.199E-01 0.521E-01-0.258E-01
CGA:  69    -0.222918827497E+03   -0.27340E-01   -0.27241E-01  5760   0.286E+00 0.633E-02
 gam= 0.831 trial= 0.172  step= 0.190 mean= 0.172
 gam= 0.742 g(H,U,f)=  0.880E-01 0.122E+00 0.210E-02 ort(H,U,f) =-0.419E-01 0.412E-01-0.936E-03
CGA:  70    -0.222946551898E+03   -0.27724E-01   -0.27759E-01  5760   0.212E+00-0.159E-02
 gam= 0.742 trial= 0.173  step= 0.238 mean= 0.173
 gam= 1.146 g(H,U,f)=  0.812E-01 0.129E+00 0.337E-01 ort(H,U,f) =-0.249E-01 0.391E-01-0.133E-01
CGA:  71    -0.222971644601E+03   -0.25093E-01   -0.25109E-01  5760   0.243E+00 0.912E-03
 gam= 1.146 trial= 0.176  step= 0.163 mean= 0.176
 gam= 0.877 g(H,U,f)=  0.778E-01 0.110E+00 0.256E-01 ort(H,U,f) =-0.253E-01 0.441E-01-0.229E-01
CGA:  72    -0.222991566625E+03   -0.19922E-01   -0.19979E-01  5760   0.213E+00-0.413E-02
 gam= 0.877 trial= 0.176  step= 0.205 mean= 0.176
 gam= 0.670 g(H,U,f)=  0.693E-01 0.697E-01 0.403E-02 ort(H,U,f) =-0.354E-01 0.393E-01 0.147E-02
CGA:  73    -0.223013268793E+03   -0.21702E-01   -0.21550E-01  5760   0.143E+00 0.542E-02
 gam= 0.670 trial= 0.177  step= 0.209 mean= 0.177
 gam= 1.102 g(H,U,f)=  0.575E-01 0.753E-01 0.248E-01 ort(H,U,f) =-0.126E-01 0.231E-01-0.111E-01
CGA:  74    -0.223028571145E+03   -0.15302E-01   -0.15297E-01  5760   0.158E+00-0.530E-03
 gam= 1.102 trial= 0.179  step= 0.173 mean= 0.179
 gam= 0.783 g(H,U,f)=  0.587E-01 0.568E-01 0.790E-02 ort(H,U,f) =-0.254E-01 0.262E-01-0.248E-02
CGA:  75    -0.223042153251E+03   -0.13582E-01   -0.13571E-01  5760   0.123E+00-0.169E-02
 gam= 0.783 trial= 0.178  step= 0.250 mean= 0.178
 gam= 0.970 g(H,U,f)=  0.589E-01 0.548E-01 0.602E-02 ort(H,U,f) =-0.157E-01 0.134E-01 0.772E-03
CGA:  76    -0.223057342889E+03   -0.15190E-01   -0.15229E-01  5760   0.120E+00-0.154E-02
 gam= 0.970 trial= 0.182  step= 0.209 mean= 0.182
 gam= 1.003 g(H,U,f)=  0.478E-01 0.577E-01 0.146E-01 ort(H,U,f) =-0.723E-02 0.226E-01-0.109E-01
CGA:  77    -0.223069656487E+03   -0.12314E-01   -0.12321E-01  5760   0.120E+00 0.442E-02
 gam= 1.003 trial= 0.183  step= 0.165 mean= 0.183
 gam= 0.569 g(H,U,f)=  0.345E-01 0.333E-01 0.452E-03 ort(H,U,f) =-0.230E-01 0.244E-01 0.576E-03
CGA:  78    -0.223079868033E+03   -0.10212E-01   -0.10242E-01  5760   0.682E-01 0.192E-02
 gam= 0.569 trial= 0.182  step= 0.291 mean= 0.182
 gam= 1.524 g(H,U,f)=  0.411E-01 0.514E-01 0.115E-01 ort(H,U,f) =-0.169E-01 0.137E-01 0.305E-02
CGA:  79    -0.223089912824E+03   -0.10045E-01   -0.10073E-01  5760   0.104E+00-0.191E-03
 gam= 1.524 trial= 0.188  step= 0.230 mean= 0.188
 gam= 0.000 g(H,U,f)=  0.459E-01 0.659E-01 0.170E-01 ort(H,U,f) =-0.274E-01 0.327E-01 0.458E-02
SDA:  80    -0.223101881112E+03   -0.11968E-01   -0.11914E-01  5760   0.129E+00 0.985E-02
 gam= 0.000 trial= 0.190  step= 0.189 mean= 0.190
 gam= 0.538 g(H,U,f)=  0.152E-01 0.309E-01 0.232E-01 ort(H,U,f) = 0.112E-01 0.834E-02-0.140E-01
CGA:  81    -0.223114028359E+03   -0.12147E-01   -0.12150E-01  5760   0.692E-01 0.560E-02
 gam= 0.538 trial= 0.190  step= 0.228 mean= 0.190
 gam= 1.056 g(H,U,f)=  0.213E-01 0.404E-01 0.114E-01 ort(H,U,f) =-0.172E-02 0.102E-01-0.876E-02
CGA:  82    -0.223122054238E+03   -0.80259E-02   -0.82447E-02  5760   0.731E-01-0.258E-03
 gam= 1.056 trial= 0.192  step= 0.474 mean= 0.192
 gam= 1.242 g(H,U,f)=  0.346E-01 0.472E-01 0.898E-02 ort(H,U,f) =-0.260E-01 0.273E-01 0.234E-02
CGA:  83    -0.223139981914E+03   -0.17928E-01   -0.17272E-01  5760   0.907E-01 0.361E-02
 gam= 1.242 trial= 0.206  step= 0.690 mean= 0.206
 gam= 1.581 g(H,U,f)=  0.736E-01 0.582E-01 0.117E-01 ort(H,U,f) =-0.472E-01 0.418E-01 0.270E-02
CGA:  84    -0.223172838252E+03   -0.32856E-01   -0.32867E-01  5760   0.143E+00-0.260E-02
 gam= 1.581 trial= 0.230  step= 0.348 mean= 0.230
 gam= 2.524 g(H,U,f)=  0.999E-01 0.120E+00 0.142E+00 ort(H,U,f) =-0.424E-01 0.410E-01-0.328E-01
CGA:  85    -0.223193583303E+03   -0.20745E-01   -0.24272E-01  5760   0.362E+00-0.342E-01
 gam= 2.524 trial= 0.236  step= 0.086 mean= 0.236
 gam= 1.404 g(H,U,f)=  0.115E+00 0.161E+00 0.232E+00 ort(H,U,f) =-0.570E-01 0.111E+00 0.125E+00
CGA:  86    -0.223203482074E+03   -0.98988E-02   -0.11798E-01  5760   0.508E+00 0.179E+00
 gam= 1.404 trial= 0.228  step= 0.078 mean= 0.228
 gam= 0.722 g(H,U,f)=  0.124E+00 0.182E+00 0.620E-01 ort(H,U,f) =-0.687E-01 0.141E-01 0.125E+00
CGA:  87    -0.223217700616E+03   -0.14219E-01   -0.29794E-01  5760   0.367E+00 0.708E-01
 gam= 0.722 trial= 0.221  step= 0.088 mean= 0.221
 gam= 0.922 g(H,U,f)=  0.121E+00 0.207E+00 0.112E-01 ort(H,U,f) = 0.408E-02-0.991E-02-0.400E-01
CGA:  88    -0.223230334735E+03   -0.12634E-01   -0.18435E-01  5760   0.339E+00-0.458E-01
 gam= 0.922 trial= 0.214  step= 0.117 mean= 0.214
 gam= 1.102 g(H,U,f)=  0.987E-01 0.195E+00 0.791E-01 ort(H,U,f) = 0.223E-01 0.868E-02-0.618E-01
CGA:  89    -0.223247960585E+03   -0.17626E-01   -0.17334E-01  5760   0.373E+00-0.309E-01
 gam= 1.102 trial= 0.209  step= 0.114 mean= 0.209
 gam= 0.591 g(H,U,f)=  0.745E-01 0.119E+00 0.271E-01 ort(H,U,f) =-0.244E-01 0.502E-02 0.112E-01
CGA:  90    -0.223266736672E+03   -0.18776E-01   -0.19295E-01  5760   0.220E+00-0.813E-02
 gam= 0.591 trial= 0.205  step= 0.122 mean= 0.205
 gam= 0.768 g(H,U,f)=  0.673E-01 0.904E-01 0.116E-01 ort(H,U,f) =-0.916E-02 0.257E-01-0.213E-01
CGA:  91    -0.223279875350E+03   -0.13139E-01   -0.13155E-01  5760   0.169E+00-0.484E-02
 gam= 0.768 trial= 0.201  step= 0.201 mean= 0.201
 gam= 1.518 g(H,U,f)=  0.711E-01 0.104E+00 0.814E-01 ort(H,U,f) =-0.745E-02 0.426E-01-0.177E-01
CGA:  92    -0.223296541725E+03   -0.16666E-01   -0.16661E-01  5760   0.257E+00 0.175E-01
 gam= 1.518 trial= 0.201  step= 0.155 mean= 0.201
 gam= 0.619 g(H,U,f)=  0.642E-01 0.807E-01 0.141E-01 ort(H,U,f) =-0.563E-01 0.616E-01 0.155E-01
CGA:  93    -0.223317403876E+03   -0.20862E-01   -0.21995E-01  5760   0.159E+00 0.207E-01
 gam= 0.619 trial= 0.198  step= 0.170 mean= 0.198
 gam= 0.902 g(H,U,f)=  0.510E-01 0.773E-01 0.152E-01 ort(H,U,f) =-0.273E-01 0.507E-01-0.212E-01
CGA:  94    -0.223332143678E+03   -0.14740E-01   -0.14638E-01  5760   0.143E+00 0.221E-02
 gam= 0.902 trial= 0.197  step= 0.202 mean= 0.197
 gam= 0.882 g(H,U,f)=  0.451E-01 0.589E-01 0.225E-01 ort(H,U,f) =-0.334E-01 0.471E-01-0.561E-02
CGA:  95    -0.223346883485E+03   -0.14740E-01   -0.14721E-01  5760   0.126E+00 0.811E-02
 gam= 0.882 trial= 0.197  step= 0.162 mean= 0.197
 gam= 0.754 g(H,U,f)=  0.455E-01 0.484E-01 0.159E-02 ort(H,U,f) =-0.216E-01 0.245E-01-0.442E-02
CGA:  96    -0.223357821566E+03   -0.10938E-01   -0.10843E-01  5760   0.954E-01-0.150E-02
 gam= 0.754 trial= 0.195  step= 0.233 mean= 0.195
 gam= 1.255 g(H,U,f)=  0.408E-01 0.576E-01 0.214E-01 ort(H,U,f) = 0.263E-02 0.934E-02-0.700E-02
CGA:  97    -0.223368844139E+03   -0.11023E-01   -0.10979E-01  5760   0.120E+00 0.497E-02
 gam= 1.255 trial= 0.197  step= 0.167 mean= 0.197
 gam= 0.570 g(H,U,f)=  0.292E-01 0.387E-01 0.351E-03 ort(H,U,f) = 0.341E-02-0.507E-02 0.151E-02
CGA:  98    -0.223379348860E+03   -0.10505E-01   -0.10490E-01  5760   0.682E-01-0.140E-03
 gam= 0.570 trial= 0.196  step= 0.188 mean= 0.196
 gam= 1.018 g(H,U,f)=  0.222E-01 0.345E-01 0.127E-01 ort(H,U,f) = 0.699E-02 0.107E-02-0.788E-02
CGA:  99    -0.223385752738E+03   -0.64039E-02   -0.64031E-02  5760   0.694E-01 0.178E-03
 gam= 1.018 trial= 0.195  step= 0.191 mean= 0.195
 gam= 0.668 g(H,U,f)=  0.168E-01 0.244E-01 0.518E-02 ort(H,U,f) =-0.452E-02 0.935E-03 0.293E-02
CGA: 100    -0.223392400888E+03   -0.66481E-02   -0.66466E-02  5760   0.463E-01-0.657E-03
 gam= 0.668 trial= 0.195  step= 0.161 mean= 0.195
 gam= 0.827 g(H,U,f)=  0.160E-01 0.196E-01 0.276E-02 ort(H,U,f) =-0.114E-02 0.686E-02-0.499E-02
CGA: 101    -0.223396121521E+03   -0.37206E-02   -0.36894E-02  5760   0.383E-01 0.730E-03
 gam= 0.827 trial= 0.193  step= 0.270 mean= 0.193
 gam= 1.300 g(H,U,f)=  0.152E-01 0.233E-01 0.114E-01 ort(H,U,f) =-0.349E-02 0.836E-02-0.271E-02
CGA: 102    -0.223401432086E+03   -0.53106E-02   -0.52654E-02  5760   0.498E-01 0.216E-02
 gam= 1.300 trial= 0.197  step= 0.173 mean= 0.197
 gam= 0.568 g(H,U,f)=  0.128E-01 0.153E-01 0.178E-03 ort(H,U,f) =-0.124E-01 0.111E-01-0.483E-03
CGA: 103    -0.223406037241E+03   -0.46052E-02   -0.45512E-02  5760   0.283E-01-0.178E-02
 gam= 0.568 trial= 0.196  step= 0.226 mean= 0.196
 gam= 1.221 g(H,U,f)=  0.121E-01 0.141E-01 0.842E-02 ort(H,U,f) =-0.443E-02 0.871E-02-0.343E-02
CGA: 104    -0.223409129664E+03   -0.30924E-02   -0.30911E-02  5760   0.346E-01 0.848E-03
 gam= 1.221 trial= 0.198  step= 0.196 mean= 0.198
 gam= 0.600 g(H,U,f)=  0.111E-01 0.858E-02 0.113E-02 ort(H,U,f) =-0.671E-02 0.550E-02 0.150E-02
CGA: 105    -0.223412626066E+03   -0.34964E-02   -0.34967E-02  5760   0.208E-01 0.298E-03
 gam= 0.600 trial= 0.198  step= 0.198 mean= 0.198
 gam= 1.065 g(H,U,f)=  0.959E-02 0.902E-02 0.350E-02 ort(H,U,f) = 0.151E-02 0.235E-02-0.352E-02
CGA: 106    -0.223414696952E+03   -0.20709E-02   -0.20709E-02  5760   0.221E-01 0.336E-03
 gam= 1.065 trial= 0.198  step= 0.258 mean= 0.198
 gam= 0.853 g(H,U,f)=  0.593E-02 0.890E-02 0.404E-02 ort(H,U,f) = 0.567E-03-0.873E-03-0.258E-03
CGA: 107    -0.223417575449E+03   -0.28785E-02   -0.28988E-02  5760   0.189E-01-0.564E-03
 gam= 0.853 trial= 0.201  step= 0.154 mean= 0.201
 gam= 0.640 g(H,U,f)=  0.471E-02 0.719E-02 0.177E-03 ort(H,U,f) = 0.124E-03 0.506E-03-0.820E-03
CGA: 108    -0.223419027807E+03   -0.14524E-02   -0.14203E-02  5760   0.121E-01-0.189E-03
 gam= 0.640 trial= 0.198  step= 0.231 mean= 0.198
 gam= 1.138 g(H,U,f)=  0.419E-02 0.653E-02 0.303E-02 ort(H,U,f) =-0.778E-04 0.199E-02-0.151E-02
CGA: 109    -0.223420411133E+03   -0.13833E-02   -0.13789E-02  5760   0.137E-01 0.403E-03
 gam= 1.138 trial= 0.200  step= 0.180 mean= 0.200
 gam= 0.710 g(H,U,f)=  0.421E-02 0.551E-02 0.342E-04 ort(H,U,f) =-0.162E-02 0.134E-02 0.129E-03
CGA: 110    -0.223421693687E+03   -0.12826E-02   -0.12799E-02  5760   0.976E-02-0.144E-03
 gam= 0.710 trial= 0.199  step= 0.265 mean= 0.199
 gam= 0.000 g(H,U,f)=  0.486E-02 0.752E-02 0.269E-02 ort(H,U,f) =-0.973E-03 0.228E-02-0.108E-02
SDA: 111    -0.223422973197E+03   -0.12795E-02   -0.12795E-02  5760   0.151E-01 0.232E-03
 gam= 0.000 trial= 0.202  step= 0.213 mean= 0.202
 gam= 0.599 g(H,U,f)=  0.208E-02 0.432E-02 0.262E-02 ort(H,U,f) = 0.111E-02 0.142E-02-0.271E-02
CGA: 112    -0.223424570073E+03   -0.15969E-02   -0.16017E-02  5760   0.902E-02-0.174E-03
 gam= 0.599 trial= 0.203  step= 0.572 mean= 0.203
 gam= 1.158 g(H,U,f)=  0.387E-02 0.576E-02 0.816E-03 ort(H,U,f) =-0.169E-02 0.158E-02-0.548E-03
CGA: 113    -0.223426957483E+03   -0.23874E-02   -0.25508E-02  5760   0.104E-01-0.653E-03
 gam= 1.158 trial= 0.221  step= 0.568 mean= 0.221
 gam= 0.351 g(H,U,f)=  0.230E-02 0.132E-02 0.370E-04 ort(H,U,f) =-0.240E-02 0.260E-02-0.223E-04
CGA: 114    -0.223429739629E+03   -0.27821E-02   -0.27536E-02  5760   0.366E-02 0.180E-03
 gam= 0.351 trial= 0.239  step= 0.547 mean= 0.239
 gam= 0.928 g(H,U,f)=  0.147E-02 0.145E-02 0.472E-03 ort(H,U,f) =-0.242E-03 0.313E-03-0.925E-04
CGA: 115    -0.223430751183E+03   -0.10116E-02   -0.10196E-02  5760   0.340E-02-0.213E-04
 gam= 0.928 trial= 0.254  step= 0.376 mean= 0.254
 gam= 1.016 g(H,U,f)=  0.107E-02 0.111E-02 0.127E-02 ort(H,U,f) =-0.416E-04 0.609E-03-0.643E-03
CGA: 116    -0.223431373520E+03   -0.62234E-03   -0.63567E-03  5760   0.345E-02-0.754E-04
 gam= 1.016 trial= 0.260  step= 0.331 mean= 0.260
 gam= 0.428 g(H,U,f)=  0.617E-03 0.781E-03 0.773E-04 ort(H,U,f) =-0.372E-03 0.486E-03-0.153E-03
CGA: 117    -0.223431929178E+03   -0.55566E-03   -0.55853E-03  5760   0.148E-02-0.392E-04
 gam= 0.428 trial= 0.264  step= 0.486 mean= 0.264
 gam= 0.761 g(H,U,f)=  0.435E-03 0.677E-03 0.119E-04 ort(H,U,f) =-0.225E-03 0.229E-03-0.482E-05
CGA: 118    -0.223432283846E+03   -0.35467E-03   -0.35466E-03  5760   0.112E-02-0.133E-05
 gam= 0.761 trial= 0.275  step= 0.702 mean= 0.275
 gam= 1.152 g(H,U,f)=  0.506E-03 0.741E-03 0.474E-04 ort(H,U,f) =-0.279E-03 0.293E-03-0.106E-04
CGA: 119    -0.223432679352E+03   -0.39551E-03   -0.39413E-03  5760   0.129E-02 0.371E-05
 gam= 1.152 trial= 0.296  step= 0.790 mean= 0.296
 gam= 1.430 g(H,U,f)=  0.692E-03 0.640E-03 0.518E-03 ort(H,U,f) =-0.392E-03 0.499E-03-0.110E-03
CGA: 120    -0.223433189595E+03   -0.51024E-03   -0.51298E-03  5760   0.185E-02-0.261E-05
 gam= 1.430 trial= 0.321  step= 0.354 mean= 0.321
 gam= 1.160 g(H,U,f)=  0.835E-03 0.772E-03 0.539E-03 ort(H,U,f) =-0.327E-03 0.709E-03-0.377E-03
CGA: 121    -0.223433515779E+03   -0.32618E-03   -0.32657E-03  5760   0.215E-02 0.495E-05
 gam= 1.160 trial= 0.323  step= 0.536 mean= 0.323
 gam= 0.921 g(H,U,f)=  0.915E-03 0.995E-03 0.666E-04 ort(H,U,f) =-0.451E-03 0.464E-03-0.386E-04
CGA: 122    -0.223434088084E+03   -0.57230E-03   -0.57675E-03  5760   0.198E-02-0.263E-04
 gam= 0.921 trial= 0.333  step= 0.803 mean= 0.333
 gam= 0.902 g(H,U,f)=  0.888E-03 0.810E-03 0.840E-04 ort(H,U,f) =-0.455E-03 0.465E-03-0.280E-04
CGA: 123    -0.223434868234E+03   -0.78015E-03   -0.78431E-03  5760   0.178E-02-0.182E-04
 gam= 0.902 trial= 0.357  step= 0.620 mean= 0.357
 gam= 1.172 g(H,U,f)=  0.672E-03 0.836E-03 0.581E-03 ort(H,U,f) =-0.237E-03 0.381E-03-0.155E-03
CGA: 124    -0.223435414963E+03   -0.54673E-03   -0.54735E-03  5760   0.209E-02-0.985E-05
 gam= 1.172 trial= 0.370  step= 0.313 mean= 0.370
 gam= 0.878 g(H,U,f)=  0.589E-03 0.770E-03 0.476E-03 ort(H,U,f) =-0.220E-03 0.585E-03-0.371E-03
CGA: 125    -0.223435740213E+03   -0.32525E-03   -0.32542E-03  5760   0.184E-02-0.485E-05
 gam= 0.878 trial= 0.367  step= 0.550 mean= 0.367
 gam= 0.864 g(H,U,f)=  0.655E-03 0.848E-03 0.822E-04 ort(H,U,f) =-0.386E-03 0.438E-03-0.492E-04
CGA: 126    -0.223436244695E+03   -0.50448E-03   -0.50384E-03  5760   0.159E-02 0.205E-05
 gam= 0.864 trial= 0.376  step= 0.486 mean= 0.376
 gam= 0.654 g(H,U,f)=  0.481E-03 0.507E-03 0.492E-04 ort(H,U,f) =-0.208E-03 0.257E-03-0.393E-04
CGA: 127    -0.223436630598E+03   -0.38590E-03   -0.38546E-03  5760   0.104E-02 0.105E-04
 gam= 0.654 trial= 0.382  step= 0.727 mean= 0.382
 gam= 1.464 g(H,U,f)=  0.471E-03 0.675E-03 0.372E-03 ort(H,U,f) =-0.133E-03 0.180E-03-0.526E-04
CGA: 128    -0.223437009105E+03   -0.37851E-03   -0.37952E-03  5760   0.152E-02-0.630E-05
 gam= 1.464 trial= 0.399  step= 0.329 mean= 0.399
 gam= 0.852 g(H,U,f)=  0.434E-03 0.454E-03 0.406E-03 ort(H,U,f) =-0.207E-03 0.530E-03-0.316E-03
CGA: 129    -0.223437256516E+03   -0.24741E-03   -0.24820E-03  5760   0.129E-02 0.663E-05
 gam= 0.852 trial= 0.395  step= 0.412 mean= 0.395
 gam= 0.735 g(H,U,f)=  0.442E-03 0.463E-03 0.456E-04 ort(H,U,f) =-0.243E-03 0.297E-03-0.455E-04
CGA: 130    -0.223437523922E+03   -0.26741E-03   -0.26730E-03  5760   0.951E-03 0.885E-05
 gam= 0.735 trial= 0.396  step= 0.876 mean= 0.396
 gam= 1.050 g(H,U,f)=  0.497E-03 0.494E-03 0.784E-05 ort(H,U,f) =-0.270E-03 0.270E-03-0.397E-05
CGA: 131    -0.223437940386E+03   -0.41646E-03   -0.41913E-03  5760   0.998E-03-0.384E-05
 gam= 1.050 trial= 0.420  step= 0.622 mean= 0.420
 gam= 0.896 g(H,U,f)=  0.470E-03 0.278E-03 0.147E-03 ort(H,U,f) =-0.174E-03 0.202E-03-0.160E-04
CGA: 132    -0.223438247743E+03   -0.30736E-03   -0.30913E-03  5760   0.895E-03 0.121E-04
 gam= 0.896 trial= 0.430  step= 0.341 mean= 0.430
 gam= 0.984 g(H,U,f)=  0.321E-03 0.290E-03 0.270E-03 ort(H,U,f) = 0.492E-04 0.182E-03-0.179E-03
CGA: 133    -0.223438409885E+03   -0.16214E-03   -0.15428E-03  5760   0.881E-03 0.522E-04
 gam= 0.984 trial= 0.426  step= 0.374 mean= 0.426
 gam= 0.475 g(H,U,f)=  0.180E-03 0.216E-03 0.217E-04 ort(H,U,f) =-0.608E-04 0.545E-04-0.250E-04
CGA: 134    -0.223438586069E+03   -0.17618E-03   -0.17433E-03  5760   0.418E-03-0.313E-04
 gam= 0.475 trial= 0.423  step= 0.408 mean= 0.423
 gam= 0.460 g(H,U,f)=  0.100E-03 0.880E-04 0.419E-05 ort(H,U,f) =-0.198E-04 0.203E-04-0.414E-05
CGA: 135    -0.223438668419E+03   -0.82350E-04   -0.82313E-04  5760   0.193E-03-0.360E-05
 gam= 0.460 trial= 0.422  step= 0.625 mean= 0.422
 gam= 0.761 g(H,U,f)=  0.642E-04 0.751E-04 0.738E-05 ort(H,U,f) =-0.772E-05 0.102E-04-0.358E-05
CGA: 136    -0.223438727760E+03   -0.59341E-04   -0.59622E-04  5760   0.147E-03-0.108E-05
 gam= 0.761 trial= 0.433  step= 0.613 mean= 0.433
 gam= 0.894 g(H,U,f)=  0.471E-04 0.638E-04 0.202E-04 ort(H,U,f) =-0.278E-04 0.357E-04-0.770E-05
CGA: 137    -0.223438772024E+03   -0.44265E-04   -0.44670E-04  5760   0.131E-03 0.145E-06
 gam= 0.894 trial= 0.442  step= 0.312 mean= 0.442
 gam= 0.962 g(H,U,f)=  0.480E-04 0.555E-04 0.227E-04 ort(H,U,f) =-0.177E-04 0.349E-04-0.139E-04
CGA: 138    -0.223438792920E+03   -0.20896E-04   -0.20442E-04  5760   0.126E-03 0.329E-05
 gam= 0.962 trial= 0.435  step= 0.595 mean= 0.435
 gam= 1.210 g(H,U,f)=  0.650E-04 0.683E-04 0.192E-04 ort(H,U,f) =-0.342E-04 0.382E-04-0.897E-05
CGA: 139    -0.223438830008E+03   -0.37088E-04   -0.38464E-04  5760   0.153E-03-0.503E-05
 gam= 1.210 trial= 0.443  step= 0.660 mean= 0.443
 gam= 0.873 g(H,U,f)=  0.741E-04 0.425E-04 0.166E-04 ort(H,U,f) =-0.564E-04 0.574E-04-0.798E-05
CGA: 140    -0.223438876237E+03   -0.46228E-04   -0.48350E-04  5760   0.133E-03-0.704E-05
 gam= 0.873 trial= 0.454  step= 0.438 mean= 0.454
 gam= 1.255 g(H,U,f)=  0.688E-04 0.667E-04 0.316E-04 ort(H,U,f) =-0.174E-04 0.319E-04-0.129E-04
CGA: 141    -0.223438904145E+03   -0.27908E-04   -0.27817E-04  5760   0.167E-03 0.153E-05
 gam= 1.255 trial= 0.453  step= 0.429 mean= 0.453
 gam= 0.000 g(H,U,f)=  0.633E-04 0.850E-04 0.270E-04 ort(H,U,f) =-0.207E-04 0.339E-04-0.149E-04
SDA: 142    -0.223438940550E+03   -0.36405E-04   -0.36288E-04  5760   0.175E-03-0.160E-05
 gam= 0.000 trial= 0.452  step= 0.221 mean= 0.452
 gam= 0.472 g(H,U,f)=  0.283E-04 0.374E-04 0.171E-04 ort(H,U,f) = 0.245E-04 0.936E-06-0.210E-04
CGA: 143    -0.223438960443E+03   -0.19893E-04   -0.19411E-04  5760   0.829E-04 0.440E-05
 gam= 0.472 trial= 0.440  step= 0.391 mean= 0.440
 gam= 0.846 g(H,U,f)=  0.216E-04 0.391E-04 0.931E-05 ort(H,U,f) = 0.240E-05 0.280E-05-0.538E-05
CGA: 144    -0.223438977242E+03   -0.16799E-04   -0.16624E-04  5760   0.701E-04-0.185E-06
 gam= 0.846 trial= 0.438  step= 0.545 mean= 0.438
 gam= 1.014 g(H,U,f)=  0.261E-04 0.370E-04 0.792E-05 ort(H,U,f) =-0.127E-04 0.148E-04-0.453E-05
CGA: 145    -0.223438995797E+03   -0.18555E-04   -0.19065E-04  5760   0.711E-04-0.242E-05
 gam= 1.014 trial= 0.443  step= 0.547 mean= 0.443
 gam= 0.803 g(H,U,f)=  0.254E-04 0.243E-04 0.737E-05 ort(H,U,f) =-0.200E-04 0.220E-04-0.311E-05
CGA: 146    -0.223439014278E+03   -0.18481E-04   -0.18755E-04  5760   0.571E-04-0.109E-05
 gam= 0.803 trial= 0.449  step= 0.402 mean= 0.449
 gam= 1.228 g(H,U,f)=  0.244E-04 0.294E-04 0.163E-04 ort(H,U,f) =-0.906E-05 0.165E-04-0.737E-05
CGA: 147    -0.223439025622E+03   -0.11344E-04   -0.11288E-04  5760   0.701E-04 0.607E-07
 gam= 1.228 trial= 0.446  step= 0.425 mean= 0.446
 gam= 0.851 g(H,U,f)=  0.276E-04 0.263E-04 0.567E-05 ort(H,U,f) =-0.168E-04 0.197E-04-0.431E-05
CGA: 148    -0.223439040577E+03   -0.14955E-04   -0.14903E-04  5760   0.596E-04-0.142E-05
 gam= 0.851 trial= 0.445  step= 0.782 mean= 0.445
 gam= 0.941 g(H,U,f)=  0.298E-04 0.194E-04 0.683E-05 ort(H,U,f) =-0.201E-04 0.222E-04-0.228E-05
CGA: 149    -0.223439063136E+03   -0.22559E-04   -0.22836E-04  5760   0.561E-04-0.200E-06
 gam= 0.941 trial= 0.462  step= 0.493 mean= 0.462
 gam= 1.767 g(H,U,f)=  0.319E-04 0.386E-04 0.286E-04 ort(H,U,f) =-0.800E-05 0.194E-04-0.975E-05
CGA: 150    -0.223439076878E+03   -0.13742E-04   -0.13783E-04  5760   0.991E-04 0.162E-05
 gam= 1.767 trial= 0.464  step= 0.472 mean= 0.464
 gam= 1.002 g(H,U,f)=  0.429E-04 0.417E-04 0.147E-04 ort(H,U,f) =-0.260E-04 0.331E-04-0.812E-05
CGA: 151    -0.223439100904E+03   -0.24027E-04   -0.24047E-04  5760   0.993E-04-0.100E-05
 gam= 1.002 trial= 0.464  step= 0.590 mean= 0.464
 gam= 0.974 g(H,U,f)=  0.433E-04 0.410E-04 0.123E-04 ort(H,U,f) =-0.261E-04 0.299E-04-0.624E-05
CGA: 152    -0.223439129647E+03   -0.28743E-04   -0.28977E-04  5760   0.967E-04-0.246E-05
 gam= 0.974 trial= 0.470  step= 0.418 mean= 0.470
 gam= 0.913 g(H,U,f)=  0.383E-04 0.343E-04 0.156E-04 ort(H,U,f) =-0.141E-04 0.202E-04-0.662E-05
CGA: 153    -0.223439149356E+03   -0.19709E-04   -0.19693E-04  5760   0.882E-04-0.559E-06
 gam= 0.913 trial= 0.468  step= 0.470 mean= 0.468
 gam= 1.152 g(H,U,f)=  0.326E-04 0.402E-04 0.290E-04 ort(H,U,f) =-0.668E-05 0.198E-04-0.135E-04
CGA: 154    -0.223439169963E+03   -0.20607E-04   -0.20609E-04  5760   0.102E-03-0.375E-06
 gam= 1.152 trial= 0.468  step= 0.356 mean= 0.468
 gam= 0.549 g(H,U,f)=  0.264E-04 0.207E-04 0.869E-05 ort(H,U,f) =-0.162E-04 0.231E-04-0.736E-05
CGA: 155    -0.223439188077E+03   -0.18114E-04   -0.18031E-04  5760   0.558E-04-0.462E-06
 gam= 0.549 trial= 0.462  step= 0.587 mean= 0.462
 gam= 1.039 g(H,U,f)=  0.232E-04 0.203E-04 0.145E-04 ort(H,U,f) =-0.669E-05 0.119E-04-0.599E-05
CGA: 156    -0.223439204302E+03   -0.16226E-04   -0.16314E-04  5760   0.580E-04-0.770E-06
 gam= 1.039 trial= 0.468  step= 0.392 mean= 0.468
 gam= 1.037 g(H,U,f)=  0.191E-04 0.274E-04 0.136E-04 ort(H,U,f) =-0.411E-05 0.117E-04-0.810E-05
CGA: 157    -0.223439215545E+03   -0.11242E-04   -0.11207E-04  5760   0.601E-04-0.559E-06
 gam= 1.037 trial= 0.465  step= 0.382 mean= 0.465
 gam= 0.546 g(H,U,f)=  0.163E-04 0.132E-04 0.328E-05 ort(H,U,f) =-0.101E-04 0.120E-04-0.241E-05
CGA: 158    -0.223439226938E+03   -0.11393E-04   -0.11361E-04  5760   0.328E-04-0.496E-06
 gam= 0.546 trial= 0.460  step= 0.603 mean= 0.460
 gam= 1.097 g(H,U,f)=  0.126E-04 0.130E-04 0.104E-04 ort(H,U,f) =-0.373E-05 0.801E-05-0.355E-05
CGA: 159    -0.223439236786E+03   -0.98484E-05   -0.98058E-05  5760   0.360E-04 0.738E-06
 gam= 1.097 trial= 0.468  step= 0.355 mean= 0.468
 gam= 0.848 g(H,U,f)=  0.115E-04 0.109E-04 0.813E-05 ort(H,U,f) =-0.421E-05 0.105E-04-0.574E-05
CGA: 160    -0.223439243311E+03   -0.65252E-05   -0.65305E-05  5760   0.305E-04 0.517E-06
 gam= 0.848 trial= 0.462  step= 0.464 mean= 0.462
 gam= 0.921 g(H,U,f)=  0.112E-04 0.129E-04 0.402E-05 ort(H,U,f) =-0.502E-05 0.732E-05-0.233E-05
CGA: 161    -0.223439250495E+03   -0.71841E-05   -0.71842E-05  5760   0.281E-04-0.332E-07
 gam= 0.921 trial= 0.462  step= 0.424 mean= 0.462
 gam= 0.726 g(H,U,f)=  0.918E-05 0.896E-05 0.227E-05 ort(H,U,f) =-0.452E-05 0.583E-05-0.139E-05
CGA: 162    -0.223439256447E+03   -0.59520E-05   -0.59504E-05  5760   0.204E-04-0.706E-07
 gam= 0.726 trial= 0.460  step= 0.499 mean= 0.460
 gam= 0.995 g(H,U,f)=  0.761E-05 0.682E-05 0.586E-05 ort(H,U,f) =-0.250E-05 0.501E-05-0.203E-05
CGA: 163    -0.223439261533E+03   -0.50858E-05   -0.50775E-05  5760   0.203E-04 0.480E-06
 gam= 0.995 trial= 0.462  step= 0.354 mean= 0.462
 gam= 0.810 g(H,U,f)=  0.605E-05 0.588E-05 0.450E-05 ort(H,U,f) =-0.180E-05 0.525E-05-0.338E-05
CGA: 164    -0.223439265219E+03   -0.36854E-05   -0.36819E-05  5760   0.164E-04 0.670E-07
 gam= 0.810 trial= 0.457  step= 0.445 mean= 0.457
 gam= 0.632 g(H,U,f)=  0.506E-05 0.394E-05 0.139E-05 ort(H,U,f) =-0.235E-05 0.279E-05-0.956E-06
CGA: 165    -0.223439268887E+03   -0.36681E-05   -0.36649E-05  5760   0.104E-04-0.513E-06
 gam= 0.632 trial= 0.456  step= 0.540 mean= 0.456
 gam= 1.261 g(H,U,f)=  0.384E-05 0.556E-05 0.370E-05 ort(H,U,f) =-0.459E-06 0.142E-05-0.129E-05
CGA: 166    -0.223439271591E+03   -0.27048E-05   -0.27199E-05  5760   0.131E-04-0.335E-06
 gam= 1.261 trial= 0.460  step= 0.310 mean= 0.460
 gam= 0.539 g(H,U,f)=  0.296E-05 0.289E-05 0.122E-05 ort(H,U,f) =-0.140E-05 0.247E-05-0.120E-05
CGA: 167    -0.223439273572E+03   -0.19809E-05   -0.19686E-05  5760   0.707E-05-0.135E-06
 gam= 0.539 trial= 0.453  step= 0.525 mean= 0.453
 gam= 0.860 g(H,U,f)=  0.257E-05 0.214E-05 0.136E-05 ort(H,U,f) =-0.115E-05 0.153E-05-0.591E-06
CGA: 168    -0.223439275400E+03   -0.18276E-05   -0.18356E-05  5760   0.608E-05-0.206E-06
 gam= 0.860 trial= 0.456  step= 0.479 mean= 0.456
 gam= 1.271 g(H,U,f)=  0.242E-05 0.298E-05 0.232E-05 ort(H,U,f) =-0.688E-06 0.171E-05-0.110E-05
CGA: 169    -0.223439276813E+03   -0.14126E-05   -0.14135E-05  5760   0.772E-05-0.766E-07
 gam= 1.271 trial= 0.458  step= 0.398 mean= 0.458
 gam= 0.701 g(H,U,f)=  0.234E-05 0.240E-05 0.666E-06 ort(H,U,f) =-0.171E-05 0.236E-05-0.494E-06
CGA: 170    -0.223439278325E+03   -0.15121E-05   -0.15169E-05  5760   0.541E-05 0.156E-06
 gam= 0.701 trial= 0.455  step= 0.451 mean= 0.455
 gam= 1.081 g(H,U,f)=  0.223E-05 0.275E-05 0.867E-06 ort(H,U,f) =-0.819E-06 0.144E-05-0.372E-06
CGA: 171    -0.223439279569E+03   -0.12446E-05   -0.12450E-05  5760   0.585E-05 0.247E-06
 gam= 1.081 trial= 0.454  step= 0.618 mean= 0.454
 gam= 1.036 g(H,U,f)=  0.251E-05 0.182E-05 0.172E-05 ort(H,U,f) =-0.160E-05 0.225E-05-0.648E-06
CGA: 172    -0.223439281458E+03   -0.18888E-05   -0.18882E-05  5760   0.606E-05 0.182E-08
 gam= 1.036 trial= 0.463  step= 0.398 mean= 0.463
 gam= 0.000 g(H,U,f)=  0.272E-05 0.285E-05 0.220E-05 ort(H,U,f) =-0.918E-06 0.211E-05-0.119E-05
SDA: 173    -0.223439282662E+03   -0.12039E-05   -0.12045E-05  5760   0.776E-05 0.198E-08
 gam= 0.000 trial= 0.459  step= 0.190 mean= 0.459
 gam= 0.460 g(H,U,f)=  0.137E-05 0.119E-05 0.101E-05 ort(H,U,f) = 0.132E-05 0.215E-06-0.148E-05
CGA: 174    -0.223439283387E+03   -0.72461E-06   -0.73658E-06  5760   0.357E-05 0.608E-07
 gam= 0.460 trial= 0.446  step= 0.512 mean= 0.446
 final diagonalization
   1 F= -.23303245E+03 E0= -.23302930E+03  d E =-.629643E-02  mag=     6.0000
