       N       E                     dE             d eps       ncg     rms          ort
DAV:   1     0.347574960923E+04    0.34757E+04   -0.13966E+05  5760   0.217E+03
DAV:   2     0.411887166636E+03   -0.30639E+04   -0.28239E+04  5760   0.528E+02
DAV:   3    -0.218890675948E+03   -0.63078E+03   -0.57770E+03  5760   0.253E+02
DAV:   4    -0.270182088451E+03   -0.51291E+02   -0.50159E+02  5760   0.743E+01
DAV:   5    -0.272079008745E+03   -0.18969E+01   -0.18932E+01  5760   0.141E+01
SDA:   6     0.144050808511E+03    0.41613E+03   -0.18932E+01  5760   0.286E+04 0.000E+00
CGA:   7     0.767182634399E+02   -0.67333E+02   -0.77142E+02  5760   0.821E+04-0.116E+04
CGA:   8     0.109572935382E+04    0.10190E+04   -0.96237E+02  5760   0.487E+05-0.132E+05
CGA:   9     0.270628739476E+04    0.16106E+04   -0.32687E+04  5760   0.638E+05-0.139E+05
CGA:  10     0.172590096814E+04   -0.98039E+03   -0.30189E+04  5760   0.884E+05-0.437E+05
CGA:  11     0.184158138365E+04    0.11568E+03   -0.61584E+04  5760   0.458E+05-0.245E+05
CGA:  12     0.575815630444E+03   -0.12658E+04   -0.22256E+04  5760   0.194E+05 0.672E+04
CGA:  13     0.844996671389E+03    0.26918E+03   -0.93423E+03  5760   0.283E+05-0.184E+05
CGA:  14     0.109418878505E+04    0.24919E+03   -0.14078E+04  5760   0.278E+05-0.224E+05
CGA:  15     0.378207125937E+03   -0.71598E+03   -0.93437E+03  5760   0.102E+05-0.180E+05
CGA:  16     0.204274472518E+03   -0.17393E+03   -0.31896E+03  5760   0.726E+04-0.104E+05
CGA:  17     0.186919061469E+03   -0.17355E+02   -0.26653E+03  5760   0.512E+04-0.402E+04
CGA:  18     0.834681727467E+02   -0.10345E+03   -0.14185E+03  5760   0.171E+04-0.279E+04
CGA:  19     0.620623368046E+02   -0.21406E+02   -0.59503E+02  5760   0.125E+04-0.675E+03
CGA:  20    -0.375249228895E+02   -0.99587E+02   -0.99664E+02  5760   0.996E+03-0.130E+02
CGA:  21    -0.661662407668E+02   -0.28641E+02   -0.48986E+02  5760   0.618E+03-0.210E+03
CGA:  22    -0.999225935363E+02   -0.33756E+02   -0.33283E+02  5760   0.199E+03 0.208E+01
CGA:  23    -0.111088513177E+03   -0.11166E+02   -0.12470E+02  5760   0.191E+03-0.137E+02
CGA:  24    -0.130233855546E+03   -0.19145E+02   -0.19124E+02  5760   0.208E+03-0.851E+01
CGA:  25    -0.140363647005E+03   -0.10130E+02   -0.90052E+01  5760   0.961E+02 0.310E+01
CGA:  26    -0.149238053554E+03   -0.88744E+01   -0.89272E+01  5760   0.161E+03-0.337E+01
CGA:  27    -0.161099484951E+03   -0.11861E+02   -0.98492E+01  5760   0.796E+02-0.415E+01
CGA:  28    -0.167632336677E+03   -0.65329E+01   -0.65216E+01  5760   0.115E+03-0.607E+01
CGA:  29    -0.174832601044E+03   -0.72003E+01   -0.66290E+01  5760   0.782E+02-0.728E+01
CGA:  30    -0.180535168412E+03   -0.57026E+01   -0.55183E+01  5760   0.727E+02-0.611E+01
CGA:  31    -0.185136442559E+03   -0.46013E+01   -0.46547E+01  5760   0.483E+02-0.357E+01
CGA:  32    -0.189452577057E+03   -0.43161E+01   -0.42511E+01  5760   0.729E+02-0.473E+01
CGA:  33    -0.194228286120E+03   -0.47757E+01   -0.47382E+01  5760   0.259E+02-0.539E+00
CGA:  34    -0.198545026319E+03   -0.43167E+01   -0.42287E+01  5760   0.256E+02 0.959E+00
CGA:  35    -0.201340649338E+03   -0.27956E+01   -0.27915E+01  5760   0.355E+02 0.216E+01
CGA:  36    -0.204248970331E+03   -0.29083E+01   -0.28217E+01  5760   0.165E+02 0.320E+01
CGA:  37    -0.205935721808E+03   -0.16868E+01   -0.16605E+01  5760   0.330E+02-0.251E+00
CGA:  38    -0.207618622657E+03   -0.16829E+01   -0.16245E+01  5760   0.386E+02 0.272E+01
CGA:  39    -0.208951402686E+03   -0.13328E+01   -0.16665E+01  5760   0.140E+02-0.994E+00
CGA:  40    -0.210152143624E+03   -0.12007E+01   -0.12179E+01  5760   0.172E+02 0.260E+01
CGA:  41    -0.211166032220E+03   -0.10139E+01   -0.10233E+01  5760   0.122E+02 0.301E+01
CGA:  42    -0.212234146196E+03   -0.10681E+01   -0.11022E+01  5760   0.153E+02 0.228E+01
CGA:  43    -0.213053451737E+03   -0.81931E+00   -0.93924E+00  5760   0.104E+02 0.148E+01
CGA:  44    -0.213862889600E+03   -0.80944E+00   -0.84149E+00  5760   0.852E+01 0.183E+01
CGA:  45    -0.214448697555E+03   -0.58581E+00   -0.61254E+00  5760   0.721E+01 0.122E+01
CGA:  46    -0.215042671892E+03   -0.59397E+00   -0.60484E+00  5760   0.776E+01 0.104E+01
CGA:  47    -0.215555231972E+03   -0.51256E+00   -0.54711E+00  5760   0.704E+01 0.109E+01
CGA:  48    -0.216117735316E+03   -0.56250E+00   -0.57435E+00  5760   0.660E+01 0.850E+00
SDA:  49    -0.216542722508E+03   -0.42499E+00   -0.42050E+00  5760   0.667E+01 0.199E+00
CGA:  50    -0.217459426335E+03   -0.91670E+00   -0.87842E+00  5760   0.153E+02 0.585E-01
CGA:  51    -0.219196348073E+03   -0.17369E+01   -0.16992E+01  5760   0.802E+01 0.127E+01
CGA:  52    -0.220477299459E+03   -0.12810E+01   -0.12429E+01  5760   0.667E+01 0.107E+01
CGA:  53    -0.220803515377E+03   -0.32622E+00   -0.35867E+00  5760   0.338E+01-0.151E+01
CGA:  54    -0.221161752301E+03   -0.35824E+00   -0.44406E+00  5760   0.667E+01-0.135E+01
CGA:  55    -0.221294869854E+03   -0.13312E+00   -0.12184E+00  5760   0.349E+01 0.731E+00
CGA:  56    -0.221436184378E+03   -0.14131E+00   -0.18063E+00  5760   0.408E+01 0.458E+00
CGA:  57    -0.221667560743E+03   -0.23138E+00   -0.25293E+00  5760   0.117E+01-0.221E+00
CGA:  58    -0.221789575087E+03   -0.12201E+00   -0.12190E+00  5760   0.117E+01-0.413E-01
CGA:  59    -0.221891436526E+03   -0.10186E+00   -0.10063E+00  5760   0.140E+01 0.448E+00
CGA:  60    -0.222095200252E+03   -0.20376E+00   -0.19233E+00  5760   0.139E+01 0.322E+00
CGA:  61    -0.222282815910E+03   -0.18762E+00   -0.20747E+00  5760   0.188E+01-0.317E+00
CGA:  62    -0.222368539460E+03   -0.85724E-01   -0.85264E-01  5760   0.158E+01 0.195E-01
CGA:  63    -0.222495165075E+03   -0.12663E+00   -0.12737E+00  5760   0.192E+01 0.231E-01
CGA:  64    -0.222618928824E+03   -0.12376E+00   -0.11617E+00  5760   0.956E+00-0.813E-02
CGA:  65    -0.222707267718E+03   -0.88339E-01   -0.87401E-01  5760   0.684E+00 0.144E+00
CGA:  66    -0.222769721280E+03   -0.62454E-01   -0.62851E-01  5760   0.796E+00-0.218E-02
CGA:  67    -0.222840588524E+03   -0.70867E-01   -0.71130E-01  5760   0.505E+00-0.179E-01
CGA:  68    -0.222891487526E+03   -0.50899E-01   -0.50289E-01  5760   0.345E+00 0.272E-01
CGA:  69    -0.222918827497E+03   -0.27340E-01   -0.27241E-01  5760   0.286E+00 0.633E-02
CGA:  70    -0.222946551898E+03   -0.27724E-01   -0.27759E-01  5760   0.212E+00-0.159E-02
CGA:  71    -0.222971644601E+03   -0.25093E-01   -0.25109E-01  5760   0.243E+00 0.912E-03
CGA:  72    -0.222991566625E+03   -0.19922E-01   -0.19979E-01  5760   0.213E+00-0.413E-02
CGA:  73    -0.223013268793E+03   -0.21702E-01   -0.21550E-01  5760   0.143E+00 0.542E-02
CGA:  74    -0.223028571145E+03   -0.15302E-01   -0.15297E-01  5760   0.158E+00-0.530E-03
CGA:  75    -0.223042153251E+03   -0.13582E-01   -0.13571E-01  5760   0.123E+00-0.169E-02
CGA:  76    -0.223057342889E+03   -0.15190E-01   -0.15229E-01  5760   0.120E+00-0.154E-02
CGA:  77    -0.223069656487E+03   -0.12314E-01   -0.12321E-01  5760   0.120E+00 0.442E-02
CGA:  78    -0.223079868033E+03   -0.10212E-01   -0.10242E-01  5760   0.682E-01 0.192E-02
CGA:  79    -0.223089912824E+03   -0.10045E-01   -0.10073E-01  5760   0.104E+00-0.191E-03
SDA:  80    -0.223101881112E+03   -0.11968E-01   -0.11914E-01  5760   0.129E+00 0.985E-02
CGA:  81    -0.223114028359E+03   -0.12147E-01   -0.12150E-01  5760   0.692E-01 0.560E-02
CGA:  82    -0.223122054238E+03   -0.80259E-02   -0.82447E-02  5760   0.731E-01-0.258E-03
CGA:  83    -0.223139981914E+03   -0.17928E-01   -0.17272E-01  5760   0.907E-01 0.361E-02
CGA:  84    -0.223172838252E+03   -0.32856E-01   -0.32867E-01  5760   0.143E+00-0.260E-02
CGA:  85    -0.223193583303E+03   -0.20745E-01   -0.24272E-01  5760   0.362E+00-0.342E-01
CGA:  86    -0.223203482074E+03   -0.98988E-02   -0.11798E-01  5760   0.508E+00 0.179E+00
CGA:  87    -0.223217700616E+03   -0.14219E-01   -0.29794E-01  5760   0.367E+00 0.708E-01
CGA:  88    -0.223230334735E+03   -0.12634E-01   -0.18435E-01  5760   0.339E+00-0.458E-01
CGA:  89    -0.223247960585E+03   -0.17626E-01   -0.17334E-01  5760   0.373E+00-0.309E-01
CGA:  90    -0.223266736672E+03   -0.18776E-01   -0.19295E-01  5760   0.220E+00-0.813E-02
CGA:  91    -0.223279875350E+03   -0.13139E-01   -0.13155E-01  5760   0.169E+00-0.484E-02
CGA:  92    -0.223296541725E+03   -0.16666E-01   -0.16661E-01  5760   0.257E+00 0.175E-01
CGA:  93    -0.223317403876E+03   -0.20862E-01   -0.21995E-01  5760   0.159E+00 0.207E-01
CGA:  94    -0.223332143678E+03   -0.14740E-01   -0.14638E-01  5760   0.143E+00 0.221E-02
CGA:  95    -0.223346883485E+03   -0.14740E-01   -0.14721E-01  5760   0.126E+00 0.811E-02
CGA:  96    -0.223357821566E+03   -0.10938E-01   -0.10843E-01  5760   0.954E-01-0.150E-02
CGA:  97    -0.223368844139E+03   -0.11023E-01   -0.10979E-01  5760   0.120E+00 0.497E-02
CGA:  98    -0.223379348860E+03   -0.10505E-01   -0.10490E-01  5760   0.682E-01-0.140E-03
CGA:  99    -0.223385752738E+03   -0.64039E-02   -0.64031E-02  5760   0.694E-01 0.178E-03
CGA: 100    -0.223392400888E+03   -0.66481E-02   -0.66466E-02  5760   0.463E-01-0.657E-03
CGA: 101    -0.223396121521E+03   -0.37206E-02   -0.36894E-02  5760   0.383E-01 0.730E-03
CGA: 102    -0.223401432086E+03   -0.53106E-02   -0.52654E-02  5760   0.498E-01 0.216E-02
CGA: 103    -0.223406037241E+03   -0.46052E-02   -0.45512E-02  5760   0.283E-01-0.178E-02
CGA: 104    -0.223409129664E+03   -0.30924E-02   -0.30911E-02  5760   0.346E-01 0.848E-03
CGA: 105    -0.223412626066E+03   -0.34964E-02   -0.34967E-02  5760   0.208E-01 0.298E-03
CGA: 106    -0.223414696952E+03   -0.20709E-02   -0.20709E-02  5760   0.221E-01 0.336E-03
CGA: 107    -0.223417575449E+03   -0.28785E-02   -0.28988E-02  5760   0.189E-01-0.564E-03
CGA: 108    -0.223419027807E+03   -0.14524E-02   -0.14203E-02  5760   0.121E-01-0.189E-03
CGA: 109    -0.223420411133E+03   -0.13833E-02   -0.13789E-02  5760   0.137E-01 0.403E-03
CGA: 110    -0.223421693687E+03   -0.12826E-02   -0.12799E-02  5760   0.976E-02-0.144E-03
SDA: 111    -0.223422973197E+03   -0.12795E-02   -0.12795E-02  5760   0.151E-01 0.232E-03
CGA: 112    -0.223424570073E+03   -0.15969E-02   -0.16017E-02  5760   0.902E-02-0.174E-03
CGA: 113    -0.223426957483E+03   -0.23874E-02   -0.25508E-02  5760   0.104E-01-0.653E-03
CGA: 114    -0.223429739629E+03   -0.27821E-02   -0.27536E-02  5760   0.366E-02 0.180E-03
CGA: 115    -0.223430751183E+03   -0.10116E-02   -0.10196E-02  5760   0.340E-02-0.213E-04
CGA: 116    -0.223431373520E+03   -0.62234E-03   -0.63567E-03  5760   0.345E-02-0.754E-04
CGA: 117    -0.223431929178E+03   -0.55566E-03   -0.55853E-03  5760   0.148E-02-0.392E-04
CGA: 118    -0.223432283846E+03   -0.35467E-03   -0.35466E-03  5760   0.112E-02-0.133E-05
CGA: 119    -0.223432679352E+03   -0.39551E-03   -0.39413E-03  5760   0.129E-02 0.371E-05
CGA: 120    -0.223433189595E+03   -0.51024E-03   -0.51298E-03  5760   0.185E-02-0.261E-05
CGA: 121    -0.223433515779E+03   -0.32618E-03   -0.32657E-03  5760   0.215E-02 0.495E-05
CGA: 122    -0.223434088084E+03   -0.57230E-03   -0.57675E-03  5760   0.198E-02-0.263E-04
CGA: 123    -0.223434868234E+03   -0.78015E-03   -0.78431E-03  5760   0.178E-02-0.182E-04
CGA: 124    -0.223435414963E+03   -0.54673E-03   -0.54735E-03  5760   0.209E-02-0.985E-05
CGA: 125    -0.223435740213E+03   -0.32525E-03   -0.32542E-03  5760   0.184E-02-0.485E-05
CGA: 126    -0.223436244695E+03   -0.50448E-03   -0.50384E-03  5760   0.159E-02 0.205E-05
CGA: 127    -0.223436630598E+03   -0.38590E-03   -0.38546E-03  5760   0.104E-02 0.105E-04
CGA: 128    -0.223437009105E+03   -0.37851E-03   -0.37952E-03  5760   0.152E-02-0.630E-05
CGA: 129    -0.223437256516E+03   -0.24741E-03   -0.24820E-03  5760   0.129E-02 0.663E-05
CGA: 130    -0.223437523922E+03   -0.26741E-03   -0.26730E-03  5760   0.951E-03 0.885E-05
CGA: 131    -0.223437940386E+03   -0.41646E-03   -0.41913E-03  5760   0.998E-03-0.384E-05
CGA: 132    -0.223438247743E+03   -0.30736E-03   -0.30913E-03  5760   0.895E-03 0.121E-04
CGA: 133    -0.223438409885E+03   -0.16214E-03   -0.15428E-03  5760   0.881E-03 0.522E-04
CGA: 134    -0.223438586069E+03   -0.17618E-03   -0.17433E-03  5760   0.418E-03-0.313E-04
CGA: 135    -0.223438668419E+03   -0.82350E-04   -0.82313E-04  5760   0.193E-03-0.360E-05
CGA: 136    -0.223438727760E+03   -0.59341E-04   -0.59622E-04  5760   0.147E-03-0.108E-05
CGA: 137    -0.223438772024E+03   -0.44265E-04   -0.44670E-04  5760   0.131E-03 0.145E-06
CGA: 138    -0.223438792920E+03   -0.20896E-04   -0.20442E-04  5760   0.126E-03 0.329E-05
CGA: 139    -0.223438830008E+03   -0.37088E-04   -0.38464E-04  5760   0.153E-03-0.503E-05
CGA: 140    -0.223438876237E+03   -0.46228E-04   -0.48350E-04  5760   0.133E-03-0.704E-05
CGA: 141    -0.223438904145E+03   -0.27908E-04   -0.27817E-04  5760   0.167E-03 0.153E-05
SDA: 142    -0.223438940550E+03   -0.36405E-04   -0.36288E-04  5760   0.175E-03-0.160E-05
CGA: 143    -0.223438960443E+03   -0.19893E-04   -0.19411E-04  5760   0.829E-04 0.440E-05
CGA: 144    -0.223438977242E+03   -0.16799E-04   -0.16624E-04  5760   0.701E-04-0.185E-06
CGA: 145    -0.223438995797E+03   -0.18555E-04   -0.19065E-04  5760   0.711E-04-0.242E-05
CGA: 146    -0.223439014278E+03   -0.18481E-04   -0.18755E-04  5760   0.571E-04-0.109E-05
CGA: 147    -0.223439025622E+03   -0.11344E-04   -0.11288E-04  5760   0.701E-04 0.607E-07
CGA: 148    -0.223439040577E+03   -0.14955E-04   -0.14903E-04  5760   0.596E-04-0.142E-05
CGA: 149    -0.223439063136E+03   -0.22559E-04   -0.22836E-04  5760   0.561E-04-0.200E-06
CGA: 150    -0.223439076878E+03   -0.13742E-04   -0.13783E-04  5760   0.991E-04 0.162E-05
CGA: 151    -0.223439100904E+03   -0.24027E-04   -0.24047E-04  5760   0.993E-04-0.100E-05
CGA: 152    -0.223439129647E+03   -0.28743E-04   -0.28977E-04  5760   0.967E-04-0.246E-05
CGA: 153    -0.223439149356E+03   -0.19709E-04   -0.19693E-04  5760   0.882E-04-0.559E-06
CGA: 154    -0.223439169963E+03   -0.20607E-04   -0.20609E-04  5760   0.102E-03-0.375E-06
CGA: 155    -0.223439188077E+03   -0.18114E-04   -0.18031E-04  5760   0.558E-04-0.462E-06
CGA: 156    -0.223439204302E+03   -0.16226E-04   -0.16314E-04  5760   0.580E-04-0.770E-06
CGA: 157    -0.223439215545E+03   -0.11242E-04   -0.11207E-04  5760   0.601E-04-0.559E-06
CGA: 158    -0.223439226938E+03   -0.11393E-04   -0.11361E-04  5760   0.328E-04-0.496E-06
CGA: 159    -0.223439236786E+03   -0.98484E-05   -0.98058E-05  5760   0.360E-04 0.738E-06
CGA: 160    -0.223439243311E+03   -0.65252E-05   -0.65305E-05  5760   0.305E-04 0.517E-06
CGA: 161    -0.223439250495E+03   -0.71841E-05   -0.71842E-05  5760   0.281E-04-0.332E-07
CGA: 162    -0.223439256447E+03   -0.59520E-05   -0.59504E-05  5760   0.204E-04-0.706E-07
CGA: 163    -0.223439261533E+03   -0.50858E-05   -0.50775E-05  5760   0.203E-04 0.480E-06
CGA: 164    -0.223439265219E+03   -0.36854E-05   -0.36819E-05  5760   0.164E-04 0.670E-07
CGA: 165    -0.223439268887E+03   -0.36681E-05   -0.36649E-05  5760   0.104E-04-0.513E-06
CGA: 166    -0.223439271591E+03   -0.27048E-05   -0.27199E-05  5760   0.131E-04-0.335E-06
CGA: 167    -0.223439273572E+03   -0.19809E-05   -0.19686E-05  5760   0.707E-05-0.135E-06
CGA: 168    -0.223439275400E+03   -0.18276E-05   -0.18356E-05  5760   0.608E-05-0.206E-06
CGA: 169    -0.223439276813E+03   -0.14126E-05   -0.14135E-05  5760   0.772E-05-0.766E-07
CGA: 170    -0.223439278325E+03   -0.15121E-05   -0.15169E-05  5760   0.541E-05 0.156E-06
CGA: 171    -0.223439279569E+03   -0.12446E-05   -0.12450E-05  5760   0.585E-05 0.247E-06
CGA: 172    -0.223439281458E+03   -0.18888E-05   -0.18882E-05  5760   0.606E-05 0.182E-08
SDA: 173    -0.223439282662E+03   -0.12039E-05   -0.12045E-05  5760   0.776E-05 0.198E-08
CGA: 174    -0.223439283387E+03   -0.72461E-06   -0.73658E-06  5760   0.357E-05 0.608E-07
   1 F= -.23303245E+03 E0= -.23302930E+03  d E =-.629643E-02  mag=     6.0000
