 running on   64 total cores
 distrk:  each k-point on   64 cores,    1 groups
 distr:  one band on    4 cores,   16 groups
 using from now: INCAR     
 vasp.5.4.4.18Apr17-6-g9f103f2a35 (build Nov 22 2021 14:44:17) complex          
  
 POSCAR found type information on POSCAR  Li Co O 
 POSCAR found :  3 types and      42 ions
 scaLAPACK will be used
 LDA part: xc-table for Pade appr. of Perdew
 generate k-points for:    6    6    2
 POSCAR, INCAR and KPOINTS ok, starting setup
 FFT: planning ...
 WAVECAR not read
 entering main loop
       N       E                     dE             d eps       ncg     rms          ort
DAV:   1     0.347213705226E+04    0.34721E+04   -0.13944E+05  5760   0.217E+03
DAV:   2     0.409598022771E+03   -0.30625E+04   -0.28252E+04  5760   0.530E+02
DAV:   3    -0.219195405815E+03   -0.62879E+03   -0.57548E+03  5760   0.253E+02
DAV:   4    -0.269685966272E+03   -0.50491E+02   -0.49331E+02  5760   0.739E+01
DAV:   5    -0.271461878676E+03   -0.17759E+01   -0.17726E+01  5760   0.138E+01
 gam= 0.000 g(H,U,f)=  0.179E+04 0.102E+04 0.106E+04 ort(H,U,f) = 0.000E+00 0.000E+00 0.000E+00
SDA:   6     0.996462190099E+02    0.37111E+03   -0.17726E+01  5760   0.386E+04 0.000E+00
 gam= 0.000 trial= 0.400  step= 0.077 mean= 0.400
 gam= 0.644 g(H,U,f)=  0.880E+03 0.936E+03 0.673E+03 ort(H,U,f) = 0.103E+04 0.282E+03-0.361E+03
CGA:   7    -0.666999296092E+01   -0.10632E+03   -0.14866E+03  5760   0.249E+04 0.954E+03
 gam= 0.644 trial= 0.384  step= 0.057 mean= 0.384
 gam= 1.290 g(H,U,f)=  0.328E+03 0.134E+04 0.154E+04 ort(H,U,f) = 0.778E+03-0.230E+03-0.134E+04
CGA:   8    -0.116691310898E+03   -0.11002E+03   -0.89011E+02  5760   0.321E+04-0.796E+03
 gam= 1.290 trial= 0.368  step= 0.036 mean= 0.368
 gam= 0.000 g(H,U,f)=  0.359E+03 0.114E+04 0.851E+03 ort(H,U,f) = 0.124E+04 0.106E+04-0.894E+02
CGA:   9    -0.124726894331E+03   -0.80356E+01   -0.39020E+02  5760   0.234E+04 0.221E+04
 gam= 0.000 trial= 0.351  step= 0.044 mean= 0.351
 gam= 0.325 g(H,U,f)=  0.206E+03 0.357E+03 0.199E+03 ort(H,U,f) = 0.206E+03-0.216E+03-0.396E+03
CGA:  10    -0.161657804719E+03   -0.36931E+02   -0.51966E+02  5760   0.762E+03-0.406E+03
 gam= 0.325 trial= 0.336  step= 0.144 mean= 0.336
 gam= 0.400 g(H,U,f)=  0.560E+02 0.158E+03 0.910E+02 ort(H,U,f) = 0.246E+02-0.480E+02-0.349E+02
CGA:  11    -0.198017998945E+03   -0.36360E+02   -0.45386E+02  5760   0.305E+03-0.582E+02
 gam= 0.400 trial= 0.326  step= 0.092 mean= 0.326
 gam= 0.805 g(H,U,f)=  0.486E+02 0.137E+03 0.600E+02 ort(H,U,f) = 0.219E+02-0.980E+02-0.432E+02
CGA:  12    -0.203887839419E+03   -0.58698E+01   -0.12922E+02  5760   0.246E+03-0.119E+03
 gam= 0.805 trial= 0.314  step= 0.108 mean= 0.314
 gam= 0.296 g(H,U,f)=  0.371E+02 0.324E+02 0.321E+01 ort(H,U,f) = 0.225E+02-0.378E+02-0.274E+01
CGA:  13    -0.210042955254E+03   -0.61551E+01   -0.80967E+01  5760   0.727E+02-0.180E+02
 gam= 0.296 trial= 0.304  step= 0.200 mean= 0.304
 gam= 0.490 g(H,U,f)=  0.670E+01 0.217E+02 0.718E+01 ort(H,U,f) = 0.939E+01-0.666E+01-0.221E+01
CGA:  14    -0.216428602487E+03   -0.63856E+01   -0.67205E+01  5760   0.356E+02 0.512E+00
 gam= 0.490 trial= 0.299  step= 0.073 mean= 0.299
 gam= 0.290 g(H,U,f)=  0.239E+01 0.640E+01 0.154E+01 ort(H,U,f) = 0.377E+01-0.980E+00-0.184E+01
CGA:  15    -0.217789586292E+03   -0.13610E+01   -0.13097E+01  5760   0.103E+02 0.953E+00
 gam= 0.290 trial= 0.287  step= 0.089 mean= 0.287
 gam= 0.779 g(H,U,f)=  0.147E+01 0.481E+01 0.177E+01 ort(H,U,f) = 0.144E+01-0.102E+01-0.123E+01
CGA:  16    -0.218223876800E+03   -0.43429E+00   -0.47127E+00  5760   0.805E+01-0.812E+00
 gam= 0.779 trial= 0.278  step= 0.170 mean= 0.278
 gam= 1.090 g(H,U,f)=  0.171E+01 0.567E+01 0.140E+01 ort(H,U,f) = 0.425E-01 0.303E+00-0.462E+00
CGA:  17    -0.218791993745E+03   -0.56812E+00   -0.63096E+00  5760   0.877E+01-0.117E+00
 gam= 1.090 trial= 0.272  step= 0.123 mean= 0.272
 gam= 0.960 g(H,U,f)=  0.113E+01 0.537E+01 0.192E+01 ort(H,U,f) =-0.173E+00 0.943E+00-0.997E+00
CGA:  18    -0.219300076153E+03   -0.50808E+00   -0.53105E+00  5760   0.841E+01-0.226E+00
 gam= 0.960 trial= 0.265  step= 0.110 mean= 0.265
 gam= 0.194 g(H,U,f)=  0.568E+00 0.950E+00 0.117E+00 ort(H,U,f) =-0.938E+00 0.985E+00-0.600E-01
CGA:  19    -0.219748342038E+03   -0.44827E+00   -0.45228E+00  5760   0.164E+01-0.133E-01
 gam= 0.194 trial= 0.257  step= 0.224 mean= 0.257
 gam= 1.734 g(H,U,f)=  0.378E+00 0.168E+01 0.773E+00 ort(H,U,f) =-0.513E-01 0.261E+00-0.172E+00
CGA:  20    -0.219929542996E+03   -0.18120E+00   -0.18290E+00  5760   0.284E+01 0.375E-01
 gam= 1.734 trial= 0.255  step= 0.113 mean= 0.255
 gam= 0.609 g(H,U,f)=  0.569E+00 0.966E+00 0.191E+00 ort(H,U,f) =-0.383E+00 0.492E+00-0.198E+00
CGA:  21    -0.220086359993E+03   -0.15682E+00   -0.16414E+00  5760   0.173E+01-0.898E-01
 gam= 0.609 trial= 0.248  step= 0.307 mean= 0.248
 gam= 1.495 g(H,U,f)=  0.521E+00 0.143E+01 0.624E+00 ort(H,U,f) =-0.218E+00 0.293E+00-0.463E-01
CGA:  22    -0.220344182362E+03   -0.25782E+00   -0.25650E+00  5760   0.258E+01 0.288E-01
 gam= 1.495 trial= 0.251  step= 0.178 mean= 0.251
 gam= 0.486 g(H,U,f)=  0.466E+00 0.602E+00 0.184E+00 ort(H,U,f) =-0.456E+00 0.492E+00-0.298E-02
CGA:  23    -0.220565893327E+03   -0.22171E+00   -0.23367E+00  5760   0.125E+01 0.330E-01
 gam= 0.486 trial= 0.248  step= 0.233 mean= 0.248
 gam= 1.393 g(H,U,f)=  0.372E+00 0.907E+00 0.465E+00 ort(H,U,f) = 0.237E-02 0.282E+00-0.210E+00
CGA:  24    -0.220712674935E+03   -0.14678E+00   -0.14801E+00  5760   0.174E+01 0.749E-01
 gam= 1.393 trial= 0.247  step= 0.174 mean= 0.247
 gam= 0.668 g(H,U,f)=  0.320E+00 0.709E+00 0.137E+00 ort(H,U,f) =-0.122E+00 0.265E+00-0.134E+00
CGA:  25    -0.220883201070E+03   -0.17053E+00   -0.16092E+00  5760   0.117E+01 0.851E-02
 gam= 0.668 trial= 0.243  step= 0.323 mean= 0.243
 gam= 0.740 g(H,U,f)=  0.331E+00 0.512E+00 0.201E-01 ort(H,U,f) =-0.167E+00 0.170E+00-0.294E-02
CGA:  26    -0.221072814010E+03   -0.18961E+00   -0.18946E+00  5760   0.863E+00 0.973E-03
 gam= 0.740 trial= 0.247  step= 0.367 mean= 0.247
 gam= 0.748 g(H,U,f)=  0.177E+00 0.386E+00 0.833E-01 ort(H,U,f) =-0.994E-01 0.136E+00-0.233E-01
CGA:  27    -0.221232857238E+03   -0.16004E+00   -0.15846E+00  5760   0.646E+00 0.130E-01
 gam= 0.748 trial= 0.253  step= 0.203 mean= 0.253
 gam= 1.119 g(H,U,f)=  0.169E+00 0.400E+00 0.154E+00 ort(H,U,f) =-0.211E-01 0.109E+00-0.720E-01
CGA:  28    -0.221297754648E+03   -0.64897E-01   -0.66376E-01  5760   0.723E+00 0.159E-01
 gam= 1.119 trial= 0.251  step= 0.257 mean= 0.251
 gam= 1.087 g(H,U,f)=  0.176E+00 0.383E+00 0.226E+00 ort(H,U,f) =-0.661E-01 0.148E+00-0.107E+00
CGA:  29    -0.221392830395E+03   -0.95076E-01   -0.95241E-01  5760   0.786E+00-0.259E-01
 gam= 1.087 trial= 0.251  step= 0.195 mean= 0.251
 gam= 0.456 g(H,U,f)=  0.135E+00 0.148E+00 0.754E-01 ort(H,U,f) =-0.882E-01 0.155E+00-0.678E-01
CGA:  30    -0.221466097079E+03   -0.73267E-01   -0.73945E-01  5760   0.358E+00-0.122E-02
 gam= 0.456 trial= 0.248  step= 0.241 mean= 0.248
 gam= 1.284 g(H,U,f)=  0.870E-01 0.247E+00 0.126E+00 ort(H,U,f) =-0.446E-02 0.479E-01-0.582E-01
CGA:  31    -0.221509215413E+03   -0.43118E-01   -0.43035E-01  5760   0.460E+00-0.147E-01
 gam= 1.284 trial= 0.248  step= 0.186 mean= 0.248
 gam= 0.558 g(H,U,f)=  0.905E-01 0.126E+00 0.407E-01 ort(H,U,f) =-0.537E-01 0.879E-01-0.159E-01
CGA:  32    -0.221549657470E+03   -0.40442E-01   -0.40978E-01  5760   0.257E+00 0.183E-01
 gam= 0.558 trial= 0.245  step= 0.277 mean= 0.245
 gam= 1.537 g(H,U,f)=  0.760E-01 0.167E+00 0.152E+00 ort(H,U,f) =-0.446E-02 0.380E-01-0.980E-01
CGA:  33    -0.221586798104E+03   -0.37141E-01   -0.36927E-01  5760   0.395E+00-0.645E-01
 gam= 1.537 trial= 0.246  step= 0.209 mean= 0.246
 gam= 0.840 g(H,U,f)=  0.747E-01 0.114E+00 0.143E+00 ort(H,U,f) =-0.343E-01 0.577E-01-0.755E-01
CGA:  34    -0.221618556492E+03   -0.31758E-01   -0.30842E-01  5760   0.331E+00-0.522E-01
 gam= 0.840 trial= 0.244  step= 0.207 mean= 0.244
 gam= 0.634 g(H,U,f)=  0.840E-01 0.102E+00 0.239E-01 ort(H,U,f) =-0.370E-01 0.785E-01-0.169E-01
CGA:  35    -0.221646857844E+03   -0.28301E-01   -0.29796E-01  5760   0.210E+00 0.247E-01
 gam= 0.634 trial= 0.243  step= 0.522 mean= 0.243
 gam= 3.191 g(H,U,f)=  0.169E+00 0.348E+00 0.154E+00 ort(H,U,f) =-0.867E-01 0.882E-01-0.171E-01
CGA:  36    -0.221702570922E+03   -0.55713E-01   -0.59003E-01  5760   0.671E+00-0.156E-01
 gam= 3.191 trial= 0.257  step= 0.120 mean= 0.257
 gam= 1.067 g(H,U,f)=  0.275E+00 0.303E+00 0.137E+00 ort(H,U,f) =-0.303E+00 0.238E+00 0.165E+00
CGA:  37    -0.221741676120E+03   -0.39105E-01   -0.37285E-01  5760   0.716E+00 0.996E-01
 gam= 1.067 trial= 0.250  step= 0.149 mean= 0.250
 gam= 1.103 g(H,U,f)=  0.317E+00 0.352E+00 0.121E+00 ort(H,U,f) =-0.214E+00 0.122E+00 0.143E+00
CGA:  38    -0.221800930678E+03   -0.59255E-01   -0.61184E-01  5760   0.790E+00 0.507E-01
 gam= 1.103 trial= 0.245  step= 0.082 mean= 0.245
 gam= 0.902 g(H,U,f)=  0.295E+00 0.372E+00 0.460E-01 ort(H,U,f) =-0.432E-01 0.139E+00-0.116E+00
CGA:  39    -0.221834650760E+03   -0.33720E-01   -0.34501E-01  5760   0.713E+00-0.200E-01
 gam= 0.902 trial= 0.237  step= 0.116 mean= 0.237
 gam= 0.000 g(H,U,f)=  0.251E+00 0.441E+00 0.213E+00 ort(H,U,f) = 0.141E-01 0.134E+00-0.174E+00
SDA:  40    -0.221871325348E+03   -0.36675E-01   -0.40345E-01  5760   0.904E+00-0.257E-01
 gam= 0.000 trial= 0.231  step= 0.129 mean= 0.231
 gam= 0.657 g(H,U,f)=  0.132E+00 0.248E+00 0.214E+00 ort(H,U,f) = 0.901E-01 0.786E-01-0.187E+00
CGA:  41    -0.221927614564E+03   -0.56289E-01   -0.58228E-01  5760   0.594E+00-0.179E-01
 gam= 0.657 trial= 0.225  step= 0.212 mean= 0.225
 gam= 0.548 g(H,U,f)=  0.145E+00 0.177E+00 0.428E-02 ort(H,U,f) = 0.102E-01 0.131E-01-0.819E-02
CGA:  42    -0.221989019045E+03   -0.61404E-01   -0.61640E-01  5760   0.326E+00 0.151E-01
 gam= 0.548 trial= 0.225  step= 0.596 mean= 0.225
 gam= 0.632 g(H,U,f)=  0.964E-01 0.958E-01 0.138E-01 ort(H,U,f) =-0.794E-01 0.835E-01 0.129E-01
CGA:  43    -0.222089306909E+03   -0.10029E+00   -0.99638E-01  5760   0.206E+00 0.170E-01
 gam= 0.632 trial= 0.243  step= 0.286 mean= 0.243
 gam= 1.056 g(H,U,f)=  0.640E-01 0.747E-01 0.789E-01 ort(H,U,f) =-0.199E-01 0.516E-01 0.457E-01
CGA:  44    -0.222121300712E+03   -0.31994E-01   -0.31006E-01  5760   0.218E+00 0.774E-01
 gam= 1.056 trial= 0.245  step= 0.213 mean= 0.245
 gam= 0.000 g(H,U,f)=  0.447E-01 0.648E-01 0.432E-01 ort(H,U,f) =-0.109E-01 0.872E-01 0.908E-01
CGA:  45    -0.222150742621E+03   -0.29442E-01   -0.31821E-01  5760   0.153E+00 0.167E+00
 gam= 0.000 trial= 0.244  step= 0.173 mean= 0.244
 gam= 0.731 g(H,U,f)=  0.191E-01 0.330E-01 0.596E-01 ort(H,U,f) = 0.141E-01 0.125E-01 0.238E-01
CGA:  46    -0.222162065134E+03   -0.11323E-01   -0.13227E-01  5760   0.112E+00 0.504E-01
 gam= 0.731 trial= 0.240  step= 0.198 mean= 0.240
 gam= 0.000 g(H,U,f)=  0.198E-01 0.447E-01 0.430E-01 ort(H,U,f) = 0.667E-02 0.310E-01 0.651E-01
CGA:  47    -0.222174548123E+03   -0.12483E-01   -0.14673E-01  5760   0.107E+00 0.103E+00
 gam= 0.000 trial= 0.238  step= 0.183 mean= 0.238
 gam= 0.000 g(H,U,f)=  0.446E-02 0.295E-01 0.355E-01 ort(H,U,f) = 0.184E-02 0.191E-01 0.378E-01
CGA:  48    -0.222182607851E+03   -0.80597E-02   -0.98336E-02  5760   0.694E-01 0.588E-01
 gam= 0.000 trial= 0.235  step= 0.213 mean= 0.235
 gam= 0.000 g(H,U,f)=  0.573E-02 0.303E-01 0.384E-01 ort(H,U,f) = 0.216E-02 0.238E-01 0.347E-01
CGA:  49    -0.222189329443E+03   -0.67216E-02   -0.73869E-02  5760   0.744E-01 0.606E-01
 gam= 0.000 trial= 0.234  step= 0.195 mean= 0.234
 gam= 0.000 g(H,U,f)=  0.232E-02 0.275E-01 0.438E-01 ort(H,U,f) = 0.145E-02 0.233E-01 0.365E-01
CGA:  50    -0.222195362099E+03   -0.60327E-02   -0.72641E-02  5760   0.736E-01 0.612E-01
 gam= 0.000 trial= 0.232  step= 0.186 mean= 0.232
 gam= 0.000 g(H,U,f)=  0.639E-02 0.377E-01 0.477E-01 ort(H,U,f) = 0.747E-03 0.244E-01 0.341E-01
CGA:  51    -0.222200949908E+03   -0.55878E-02   -0.68560E-02  5760   0.918E-01 0.593E-01
 gam= 0.000 trial= 0.230  step= 0.154 mean= 0.230
 gam= 0.000 g(H,U,f)=  0.273E-02 0.293E-01 0.604E-01 ort(H,U,f) =-0.302E-03 0.219E-01 0.358E-01
CGA:  52    -0.222205802601E+03   -0.48527E-02   -0.70517E-02  5760   0.924E-01 0.574E-01
 gam= 0.000 trial= 0.226  step= 0.150 mean= 0.226
 gam= 0.000 g(H,U,f)=  0.673E-02 0.423E-01 0.570E-01 ort(H,U,f) =-0.689E-03 0.225E-01 0.354E-01
CGA:  53    -0.222210710025E+03   -0.49074E-02   -0.69476E-02  5760   0.106E+00 0.573E-01
 gam= 0.000 trial= 0.222  step= 0.141 mean= 0.222
 gam= 0.000 g(H,U,f)=  0.265E-02 0.306E-01 0.677E-01 ort(H,U,f) =-0.714E-03 0.232E-01 0.414E-01
CGA:  54    -0.222215632189E+03   -0.49222E-02   -0.74717E-02  5760   0.101E+00 0.639E-01
 gam= 0.000 trial= 0.218  step= 0.148 mean= 0.218
 gam= 0.000 g(H,U,f)=  0.640E-02 0.441E-01 0.684E-01 ort(H,U,f) =-0.624E-03 0.244E-01 0.453E-01
CGA:  55    -0.222220839614E+03   -0.52074E-02   -0.74581E-02  5760   0.119E+00 0.691E-01
 gam= 0.000 trial= 0.215  step= 0.139 mean= 0.215
 gam= 0.000 g(H,U,f)=  0.248E-02 0.322E-01 0.759E-01 ort(H,U,f) =-0.402E-03 0.260E-01 0.543E-01
CGA:  56    -0.222226100200E+03   -0.52606E-02   -0.82450E-02  5760   0.111E+00 0.798E-01
 gam= 0.000 trial= 0.211  step= 0.148 mean= 0.211
 gam= 0.000 g(H,U,f)=  0.593E-02 0.457E-01 0.795E-01 ort(H,U,f) =-0.227E-03 0.275E-01 0.567E-01
CGA:  57    -0.222231768609E+03   -0.56684E-02   -0.81582E-02  5760   0.131E+00 0.840E-01
 gam= 0.000 trial= 0.208  step= 0.138 mean= 0.208
 gam= 0.000 g(H,U,f)=  0.239E-02 0.344E-01 0.791E-01 ort(H,U,f) = 0.116E-03 0.295E-01 0.611E-01
CGA:  58    -0.222237500127E+03   -0.57315E-02   -0.90724E-02  5760   0.116E+00 0.907E-01
 gam= 0.000 trial= 0.204  step= 0.151 mean= 0.204
 gam= 0.000 g(H,U,f)=  0.559E-02 0.480E-01 0.774E-01 ort(H,U,f) = 0.262E-03 0.312E-01 0.591E-01
CGA:  59    -0.222243846025E+03   -0.63459E-02   -0.87383E-02  5760   0.131E+00 0.905E-01
 gam= 0.000 trial= 0.202  step= 0.143 mean= 0.202
 gam= 0.000 g(H,U,f)=  0.257E-02 0.377E-01 0.794E-01 ort(H,U,f) = 0.465E-03 0.329E-01 0.621E-01
CGA:  60    -0.222250332979E+03   -0.64870E-02   -0.93953E-02  5760   0.120E+00 0.954E-01
 gam= 0.000 trial= 0.199  step= 0.155 mean= 0.199
 gam= 0.000 g(H,U,f)=  0.562E-02 0.521E-01 0.764E-01 ort(H,U,f) = 0.533E-03 0.348E-01 0.601E-01
CGA:  61    -0.222257580715E+03   -0.72477E-02   -0.92999E-02  5760   0.134E+00 0.955E-01
 gam= 0.000 trial= 0.197  step= 0.148 mean= 0.197
 gam= 0.000 g(H,U,f)=  0.293E-02 0.420E-01 0.795E-01 ort(H,U,f) = 0.670E-03 0.366E-01 0.628E-01
CGA:  62    -0.222265035733E+03   -0.74550E-02   -0.99456E-02  5760   0.124E+00 0.100E+00
 gam= 0.000 trial= 0.194  step= 0.162 mean= 0.194
 gam= 0.000 g(H,U,f)=  0.564E-02 0.573E-01 0.694E-01 ort(H,U,f) = 0.696E-03 0.389E-01 0.563E-01
CGA:  63    -0.222273458005E+03   -0.84223E-02   -0.10050E-01  5760   0.132E+00 0.959E-01
 gam= 0.000 trial= 0.193  step= 0.160 mean= 0.193
 gam= 0.000 g(H,U,f)=  0.362E-02 0.480E-01 0.740E-01 ort(H,U,f) = 0.609E-03 0.404E-01 0.559E-01
CGA:  64    -0.222282376324E+03   -0.89183E-02   -0.10557E-01  5760   0.126E+00 0.969E-01
 gam= 0.000 trial= 0.191  step= 0.175 mean= 0.191
 gam= 0.000 g(H,U,f)=  0.593E-02 0.653E-01 0.600E-01 ort(H,U,f) = 0.424E-03 0.428E-01 0.498E-01
CGA:  65    -0.222292554379E+03   -0.10178E-01   -0.10966E-01  5760   0.131E+00 0.930E-01
 gam= 0.000 trial= 0.190  step= 0.177 mean= 0.190
 gam= 0.000 g(H,U,f)=  0.532E-02 0.578E-01 0.733E-01 ort(H,U,f) =-0.289E-03 0.428E-01 0.538E-01
CGA:  66    -0.222303590851E+03   -0.11036E-01   -0.11610E-01  5760   0.136E+00 0.963E-01
 gam= 0.000 trial= 0.189  step= 0.183 mean= 0.189
 gam= 0.000 g(H,U,f)=  0.585E-02 0.741E-01 0.461E-01 ort(H,U,f) =-0.751E-03 0.449E-01 0.388E-01
CGA:  67    -0.222315746862E+03   -0.12156E-01   -0.12468E-01  5760   0.126E+00 0.829E-01
 gam= 0.000 trial= 0.189  step= 0.216 mean= 0.189
 gam= 0.000 g(H,U,f)=  0.118E-01 0.795E-01 0.538E-01 ort(H,U,f) =-0.317E-02 0.363E-01 0.306E-01
CGA:  68    -0.222330047445E+03   -0.14301E-01   -0.13580E-01  5760   0.145E+00 0.637E-01
 gam= 0.000 trial= 0.190  step= 0.185 mean= 0.190
 gam= 0.749 g(H,U,f)=  0.776E-02 0.808E-01 0.202E-01 ort(H,U,f) =-0.433E-02 0.322E-01 0.124E-01
CGA:  69    -0.222343372887E+03   -0.13325E-01   -0.13446E-01  5760   0.109E+00 0.402E-01
 gam= 0.749 trial= 0.190  step= 0.750 mean= 0.190
 gam= 0.000 g(H,U,f)=  0.189E+00 0.119E+01 0.673E-02 ort(H,U,f) = 0.112E-01-0.149E+00-0.534E-02
CGA:  70    -0.222340787606E+03    0.25853E-02   -0.52110E-01  5760   0.139E+01-0.144E+00
 gam= 0.000 trial= 0.218  step= 0.116 mean= 0.218
 gam= 0.095 g(H,U,f)=  0.285E-01 0.969E-01 0.648E-02 ort(H,U,f) =-0.486E-01-0.115E+00-0.714E-02
CGA:  71    -0.222418444157E+03   -0.77657E-01   -0.80264E-01  5760   0.132E+00-0.171E+00
 gam= 0.095 trial= 0.213  step= 0.363 mean= 0.213
 gam= 1.296 g(H,U,f)=  0.259E-01 0.145E+00 0.314E-03 ort(H,U,f) =-0.161E-01 0.685E-02 0.582E-03
CGA:  72    -0.222437525926E+03   -0.19082E-01   -0.20971E-01  5760   0.171E+00-0.869E-02
 gam= 1.296 trial= 0.221  step= 0.989 mean= 0.221
 gam= 2.196 g(H,U,f)=  0.889E-01 0.284E+00 0.264E-02 ort(H,U,f) =-0.142E-01 0.446E-01 0.595E-02
CGA:  73    -0.222508969438E+03   -0.71444E-01   -0.78944E-01  5760   0.375E+00 0.363E-01
 gam= 2.196 trial= 0.259  step= 0.314 mean= 0.259
 gam= 1.938 g(H,U,f)=  0.191E+00 0.532E+00 0.413E-02 ort(H,U,f) =-0.760E-01-0.971E-01 0.139E-01
CGA:  74    -0.222567928963E+03   -0.58960E-01   -0.71415E-01  5760   0.727E+00-0.159E+00
 gam= 1.938 trial= 0.262  step= 0.093 mean= 0.262
 gam= 1.429 g(H,U,f)=  0.244E+00 0.794E+00 0.511E-03 ort(H,U,f) = 0.438E-02 0.708E-01 0.791E-02
CGA:  75    -0.222584403458E+03   -0.16474E-01   -0.19451E-01  5760   0.104E+01 0.830E-01
 gam= 1.429 trial= 0.253  step= 0.114 mean= 0.253
 gam= 0.212 g(H,U,f)=  0.852E-01 0.135E+00 0.248E-04 ort(H,U,f) =-0.463E-01 0.108E+00-0.172E-03
CGA:  76    -0.222666569497E+03   -0.82166E-01   -0.65887E-01  5760   0.220E+00 0.618E-01
 gam= 0.212 trial= 0.246  step= 0.129 mean= 0.246
 gam= 0.897 g(H,U,f)=  0.505E-01 0.147E+00 0.222E-04 ort(H,U,f) = 0.131E-01 0.166E-01-0.190E-04
CGA:  77    -0.222682093456E+03   -0.15524E-01   -0.15058E-01  5760   0.197E+00 0.297E-01
 gam= 0.897 trial= 0.240  step= 0.158 mean= 0.240
 gam= 0.431 g(H,U,f)=  0.305E-01 0.545E-01 0.336E-05 ort(H,U,f) =-0.208E-01 0.229E-01-0.626E-05
CGA:  78    -0.222700562405E+03   -0.18469E-01   -0.17727E-01  5760   0.850E-01 0.211E-02
 gam= 0.431 trial= 0.236  step= 0.158 mean= 0.236
 gam= 1.024 g(H,U,f)=  0.225E-01 0.644E-01 0.269E-05 ort(H,U,f) = 0.489E-02-0.234E-02 0.110E-05
CGA:  79    -0.222708541715E+03   -0.79793E-02   -0.67698E-02  5760   0.870E-01 0.255E-02
 gam= 1.024 trial= 0.232  step= 0.190 mean= 0.232
 gam= 0.783 g(H,U,f)=  0.175E-01 0.507E-01 0.125E-04 ort(H,U,f) =-0.621E-02 0.112E-01 0.854E-05
CGA:  80    -0.222717367210E+03   -0.88255E-02   -0.84914E-02  5760   0.681E-01 0.502E-02
 gam= 0.783 trial= 0.230  step= 0.181 mean= 0.230
 gam= 1.174 g(H,U,f)=  0.183E-01 0.617E-01 0.148E-04 ort(H,U,f) =-0.103E-01 0.169E-01 0.198E-04
CGA:  81    -0.222723953784E+03   -0.65866E-02   -0.65151E-02  5760   0.800E-01 0.661E-02
 gam= 1.174 trial= 0.228  step= 0.166 mean= 0.228
 gam= 0.512 g(H,U,f)=  0.188E-01 0.222E-01 0.516E-05 ort(H,U,f) =-0.215E-01 0.184E-01 0.130E-04
CGA:  82    -0.222732148897E+03   -0.81951E-02   -0.72645E-02  5760   0.410E-01-0.301E-02
 gam= 0.512 trial= 0.225  step= 0.336 mean= 0.225
 gam= 1.326 g(H,U,f)=  0.104E-01 0.439E-01 0.304E-05 ort(H,U,f) =-0.142E-02 0.660E-02 0.884E-05
CGA:  83    -0.222738783572E+03   -0.66347E-02   -0.66218E-02  5760   0.543E-01 0.520E-02
 gam= 1.326 trial= 0.230  step= 0.144 mean= 0.230
 gam= 0.561 g(H,U,f)=  0.886E-02 0.216E-01 0.325E-05 ort(H,U,f) =-0.139E-02 0.477E-02 0.169E-04
CGA:  84    -0.222744390073E+03   -0.56065E-02   -0.44105E-02  5760   0.305E-01 0.339E-02
 gam= 0.561 trial= 0.226  step= 0.481 mean= 0.226
 gam= 0.742 g(H,U,f)=  0.112E-01 0.114E-01 0.350E-05 ort(H,U,f) =-0.724E-02 0.670E-02 0.151E-04
CGA:  85    -0.222752145288E+03   -0.77552E-02   -0.77776E-02  5760   0.226E-01-0.526E-03
 gam= 0.742 trial= 0.239  step= 0.303 mean= 0.239
 gam= 1.335 g(H,U,f)=  0.102E-01 0.200E-01 0.226E-05 ort(H,U,f) = 0.259E-03 0.708E-04-0.145E-04
CGA:  86    -0.222755258817E+03   -0.31135E-02   -0.33637E-02  5760   0.302E-01 0.316E-03
 gam= 1.335 trial= 0.242  step= 0.199 mean= 0.242
 gam= 0.777 g(H,U,f)=  0.536E-02 0.181E-01 0.218E-05 ort(H,U,f) =-0.266E-02 0.395E-02-0.178E-04
CGA:  87    -0.222758370509E+03   -0.31117E-02   -0.30439E-02  5760   0.234E-01 0.128E-02
 gam= 0.777 trial= 0.240  step= 0.236 mean= 0.240
 gam= 0.664 g(H,U,f)=  0.758E-02 0.798E-02 0.248E-05 ort(H,U,f) =-0.507E-02 0.300E-02 0.128E-04
CGA:  88    -0.222761272749E+03   -0.29022E-02   -0.28886E-02  5760   0.156E-01-0.206E-02
 gam= 0.664 trial= 0.240  step= 0.512 mean= 0.240
 gam= 1.684 g(H,U,f)=  0.537E-02 0.208E-01 0.197E-05 ort(H,U,f) =-0.164E-02 0.189E-02-0.110E-04
CGA:  89    -0.222764721661E+03   -0.34489E-02   -0.36369E-02  5760   0.262E-01 0.243E-03
 gam= 1.684 trial= 0.253  step= 0.123 mean= 0.253
 gam= 0.404 g(H,U,f)=  0.456E-02 0.601E-02 0.691E-05 ort(H,U,f) =-0.413E-02 0.608E-02-0.336E-04
CGA:  90    -0.222766815999E+03   -0.20943E-02   -0.16384E-02  5760   0.106E-01 0.192E-02
 gam= 0.404 trial= 0.247  step= 0.580 mean= 0.247
 gam= 1.481 g(H,U,f)=  0.547E-02 0.102E-01 0.129E-04 ort(H,U,f) =-0.216E-02 0.254E-02-0.971E-05
CGA:  91    -0.222770156214E+03   -0.33402E-02   -0.32934E-02  5760   0.157E-01 0.365E-03
 gam= 1.481 trial= 0.263  step= 0.211 mean= 0.263
 gam= 1.099 g(H,U,f)=  0.461E-02 0.126E-01 0.411E-05 ort(H,U,f) =-0.131E-02 0.272E-02-0.797E-06
CGA:  92    -0.222771965871E+03   -0.18097E-02   -0.17075E-02  5760   0.172E-01 0.140E-02
 gam= 1.099 trial= 0.261  step= 0.258 mean= 0.261
 gam= 0.872 g(H,U,f)=  0.453E-02 0.105E-01 0.593E-05 ort(H,U,f) =-0.222E-02 0.266E-02-0.883E-06
CGA:  93    -0.222774390554E+03   -0.24247E-02   -0.24183E-02  5760   0.150E-01 0.439E-03
 gam= 0.872 trial= 0.261  step= 0.314 mean= 0.261
 gam= 0.706 g(H,U,f)=  0.505E-02 0.554E-02 0.261E-05 ort(H,U,f) =-0.353E-02 0.151E-02-0.224E-05
CGA:  94    -0.222776664737E+03   -0.22742E-02   -0.24178E-02  5760   0.106E-01-0.202E-02
 gam= 0.706 trial= 0.263  step= 0.634 mean= 0.263
 gam= 0.937 g(H,U,f)=  0.444E-02 0.549E-02 0.800E-06 ort(H,U,f) =-0.230E-02 0.142E-02-0.161E-06
CGA:  95    -0.222779354677E+03   -0.26899E-02   -0.29066E-02  5760   0.993E-02-0.879E-03
 gam= 0.937 trial= 0.282  step= 0.324 mean= 0.282
 gam= 1.290 g(H,U,f)=  0.367E-02 0.913E-02 0.258E-05 ort(H,U,f) =-0.283E-03 0.759E-03-0.605E-06
CGA:  96    -0.222780794331E+03   -0.14397E-02   -0.14757E-02  5760   0.128E-01 0.476E-03
 gam= 1.290 trial= 0.284  step= 0.203 mean= 0.284
 gam= 0.725 g(H,U,f)=  0.252E-02 0.676E-02 0.170E-05 ort(H,U,f) =-0.117E-02 0.194E-02 0.161E-05
CGA:  97    -0.222782267030E+03   -0.14727E-02   -0.13612E-02  5760   0.929E-02 0.770E-03
 gam= 0.725 trial= 0.280  step= 0.302 mean= 0.280
 gam= 1.226 g(H,U,f)=  0.398E-02 0.740E-02 0.128E-05 ort(H,U,f) =-0.167E-02 0.177E-02-0.207E-05
CGA:  98    -0.222783724952E+03   -0.14579E-02   -0.14886E-02  5760   0.114E-01 0.954E-04
 gam= 1.226 trial= 0.281  step= 0.693 mean= 0.281
 gam= 2.283 g(H,U,f)=  0.928E-02 0.167E-01 0.518E-06 ort(H,U,f) =-0.536E-02 0.244E-02-0.372E-05
CGA:  99    -0.222786531879E+03   -0.28069E-02   -0.39872E-02  5760   0.260E-01-0.293E-02
 gam= 2.283 trial= 0.302  step= 0.121 mean= 0.302
 gam= 0.614 g(H,U,f)=  0.922E-02 0.674E-02 0.128E-05 ort(H,U,f) =-0.670E-02 0.870E-02-0.111E-04
CGA: 100    -0.222788079132E+03   -0.15473E-02   -0.11678E-02  5760   0.160E-01 0.199E-02
 gam= 0.614 trial= 0.293  step= 0.254 mean= 0.293
 gam= 0.000 g(H,U,f)=  0.688E-02 0.149E-01 0.234E-05 ort(H,U,f) =-0.894E-03 0.395E-02-0.672E-05
SDA: 101    -0.222790250005E+03   -0.21709E-02   -0.21809E-02  5760   0.218E-01 0.305E-02
 gam= 0.000 trial= 0.291  step= 0.074 mean= 0.291
 gam= 0.273 g(H,U,f)=  0.427E-02 0.166E-02 0.275E-05 ort(H,U,f) = 0.442E-02 0.115E-02 0.250E-05
CGA: 102    -0.222791666160E+03   -0.14162E-02   -0.80595E-03  5760   0.594E-02 0.557E-02
 gam= 0.273 trial= 0.280  step= 0.246 mean= 0.280
 gam= 2.325 g(H,U,f)=  0.339E-02 0.104E-01 0.183E-05 ort(H,U,f) = 0.300E-02-0.972E-03 0.261E-05
CGA: 103    -0.222792579745E+03   -0.91359E-03   -0.91671E-03  5760   0.138E-01 0.203E-02
 gam= 2.325 trial= 0.278  step= 0.189 mean= 0.278
 gam= 0.433 g(H,U,f)=  0.233E-02 0.365E-02 0.353E-06 ort(H,U,f) =-0.384E-02 0.330E-02 0.368E-05
CGA: 104    -0.222794447475E+03   -0.18677E-02   -0.17527E-02  5760   0.597E-02-0.539E-03
 gam= 0.433 trial= 0.274  step= 0.233 mean= 0.274
 gam= 0.973 g(H,U,f)=  0.218E-02 0.363E-02 0.114E-05 ort(H,U,f) =-0.208E-02 0.240E-02 0.368E-05
CGA: 105    -0.222795126229E+03   -0.67875E-03   -0.66823E-03  5760   0.581E-02 0.316E-03
 gam= 0.973 trial= 0.272  step= 0.142 mean= 0.272
 gam= 0.652 g(H,U,f)=  0.190E-02 0.189E-02 0.191E-05 ort(H,U,f) =-0.143E-02 0.208E-02 0.612E-05
CGA: 106    -0.222795633443E+03   -0.50721E-03   -0.43444E-03  5760   0.379E-02 0.651E-03
 gam= 0.652 trial= 0.265  step= 0.459 mean= 0.265
 gam= 2.125 g(H,U,f)=  0.302E-02 0.503E-02 0.184E-06 ort(H,U,f) =-0.110E-02 0.799E-03-0.739E-06
CGA: 107    -0.222796523305E+03   -0.88986E-03   -0.96721E-03  5760   0.805E-02-0.299E-03
 gam= 2.125 trial= 0.275  step= 0.236 mean= 0.275
 gam= 1.257 g(H,U,f)=  0.400E-02 0.612E-02 0.141E-05 ort(H,U,f) =-0.222E-02 0.316E-02-0.102E-04
CGA: 108    -0.222797412672E+03   -0.88937E-03   -0.87641E-03  5760   0.101E-01 0.923E-03
 gam= 1.257 trial= 0.273  step= 0.220 mean= 0.273
 gam= 0.555 g(H,U,f)=  0.364E-02 0.198E-02 0.352E-06 ort(H,U,f) =-0.358E-02 0.306E-02-0.566E-05
CGA: 109    -0.222798746043E+03   -0.13334E-02   -0.12410E-02  5760   0.562E-02-0.529E-03
 gam= 0.555 trial= 0.270  step= 0.395 mean= 0.270
 gam= 0.991 g(H,U,f)=  0.319E-02 0.238E-02 0.192E-05 ort(H,U,f) =-0.874E-03 0.810E-03-0.830E-05
CGA: 110    -0.222799791556E+03   -0.10455E-02   -0.10508E-02  5760   0.557E-02-0.732E-04
 gam= 0.991 trial= 0.277  step= 0.396 mean= 0.277
 gam= 1.205 g(H,U,f)=  0.302E-02 0.369E-02 0.776E-05 ort(H,U,f) =-0.901E-03 0.868E-03-0.136E-04
CGA: 111    -0.222800847559E+03   -0.10560E-02   -0.10875E-02  5760   0.671E-02-0.469E-04
 gam= 1.205 trial= 0.282  step= 0.337 mean= 0.282
 gam= 0.693 g(H,U,f)=  0.239E-02 0.226E-02 0.406E-05 ort(H,U,f) =-0.212E-02 0.187E-02-0.634E-05
CGA: 112    -0.222801957901E+03   -0.11103E-02   -0.11222E-02  5760   0.465E-02-0.252E-03
 gam= 0.693 trial= 0.285  step= 0.350 mean= 0.285
 gam= 1.186 g(H,U,f)=  0.230E-02 0.321E-02 0.249E-05 ort(H,U,f) =-0.112E-02 0.130E-02-0.247E-06
CGA: 113    -0.222802734273E+03   -0.77637E-03   -0.78370E-03  5760   0.552E-02 0.180E-03
 gam= 1.186 trial= 0.288  step= 0.287 mean= 0.288
 gam= 1.356 g(H,U,f)=  0.261E-02 0.486E-02 0.635E-05 ort(H,U,f) =-0.137E-02 0.156E-02 0.320E-05
CGA: 114    -0.222803556705E+03   -0.82243E-03   -0.82154E-03  5760   0.748E-02 0.199E-03
 gam= 1.356 trial= 0.288  step= 0.352 mean= 0.288
 gam= 1.583 g(H,U,f)=  0.397E-02 0.786E-02 0.676E-05 ort(H,U,f) =-0.213E-02 0.190E-02 0.101E-04
CGA: 115    -0.222804851981E+03   -0.12953E-02   -0.13630E-02  5760   0.118E-01-0.219E-03
 gam= 1.583 trial= 0.292  step= 0.252 mean= 0.292
 gam= 0.607 g(H,U,f)=  0.500E-02 0.218E-02 0.101E-05 ort(H,U,f) =-0.487E-02 0.421E-02 0.848E-05
CGA: 116    -0.222806328496E+03   -0.14765E-02   -0.14474E-02  5760   0.719E-02-0.645E-03
 gam= 0.607 trial= 0.290  step= 0.360 mean= 0.290
 gam= 1.097 g(H,U,f)=  0.477E-02 0.311E-02 0.746E-06 ort(H,U,f) =-0.882E-03 0.978E-03-0.421E-05
CGA: 117    -0.222807523450E+03   -0.11950E-02   -0.12225E-02  5760   0.788E-02 0.921E-04
 gam= 1.097 trial= 0.293  step= 0.337 mean= 0.293
 gam= 0.835 g(H,U,f)=  0.361E-02 0.297E-02 0.336E-06 ort(H,U,f) =-0.987E-03 0.857E-03-0.915E-06
CGA: 118    -0.222808858688E+03   -0.13352E-02   -0.13438E-02  5760   0.658E-02-0.130E-03
 gam= 0.835 trial= 0.295  step= 0.328 mean= 0.295
 gam= 0.682 g(H,U,f)=  0.240E-02 0.209E-02 0.196E-06 ort(H,U,f) =-0.989E-03 0.942E-03 0.311E-06
CGA: 119    -0.222809917342E+03   -0.10587E-02   -0.10618E-02  5760   0.448E-02-0.469E-04
 gam= 0.682 trial= 0.297  step= 0.240 mean= 0.297
 gam= 0.904 g(H,U,f)=  0.178E-02 0.227E-02 0.378E-06 ort(H,U,f) =-0.150E-03 0.269E-03-0.153E-05
CGA: 120    -0.222810473869E+03   -0.55653E-03   -0.53473E-03  5760   0.405E-02 0.118E-03
 gam= 0.904 trial= 0.294  step= 0.308 mean= 0.294
 gam= 1.280 g(H,U,f)=  0.137E-02 0.382E-02 0.658E-06 ort(H,U,f) =-0.337E-03 0.660E-03-0.130E-05
CGA: 121    -0.222811110774E+03   -0.63691E-03   -0.64014E-03  5760   0.519E-02 0.322E-03
 gam= 1.280 trial= 0.295  step= 0.290 mean= 0.295
 gam= 0.873 g(H,U,f)=  0.207E-02 0.246E-02 0.137E-06 ort(H,U,f) =-0.194E-02 0.150E-02-0.403E-06
CGA: 122    -0.222811927203E+03   -0.81643E-03   -0.81325E-03  5760   0.453E-02-0.435E-03
 gam= 0.873 trial= 0.295  step= 0.277 mean= 0.295
 gam= 0.860 g(H,U,f)=  0.191E-02 0.198E-02 0.139E-06 ort(H,U,f) =-0.116E-02 0.130E-02 0.529E-07
CGA: 123    -0.222812503796E+03   -0.57659E-03   -0.57553E-03  5760   0.390E-02 0.139E-03
 gam= 0.860 trial= 0.294  step= 0.295 mean= 0.294
 gam= 0.792 g(H,U,f)=  0.158E-02 0.151E-02 0.405E-06 ort(H,U,f) =-0.692E-03 0.622E-03-0.218E-06
CGA: 124    -0.222813095679E+03   -0.59188E-03   -0.59238E-03  5760   0.309E-02-0.705E-04
 gam= 0.792 trial= 0.294  step= 0.373 mean= 0.294
 gam= 1.186 g(H,U,f)=  0.154E-02 0.211E-02 0.251E-06 ort(H,U,f) =-0.531E-03 0.457E-03 0.350E-06
CGA: 125    -0.222813645783E+03   -0.55010E-03   -0.56496E-03  5760   0.366E-02-0.738E-04
 gam= 1.186 trial= 0.298  step= 0.215 mean= 0.298
 gam= 0.788 g(H,U,f)=  0.133E-02 0.155E-02 0.864E-07 ort(H,U,f) =-0.218E-03 0.349E-03 0.357E-06
CGA: 126    -0.222814046435E+03   -0.40065E-03   -0.38443E-03  5760   0.288E-02 0.131E-03
 gam= 0.788 trial= 0.294  step= 0.325 mean= 0.294
 gam= 0.666 g(H,U,f)=  0.107E-02 0.856E-03 0.437E-07 ort(H,U,f) =-0.256E-03 0.114E-03 0.105E-06
CGA: 127    -0.222814525035E+03   -0.47860E-03   -0.48468E-03  5760   0.192E-02-0.142E-03
 gam= 0.666 trial= 0.295  step= 0.298 mean= 0.295
 gam= 0.852 g(H,U,f)=  0.805E-03 0.831E-03 0.108E-06 ort(H,U,f) = 0.363E-04-0.927E-05-0.147E-06
CGA: 128    -0.222814796357E+03   -0.27132E-03   -0.27182E-03  5760   0.164E-02 0.269E-04
 gam= 0.852 trial= 0.295  step= 0.281 mean= 0.295
 gam= 0.969 g(H,U,f)=  0.634E-03 0.952E-03 0.155E-06 ort(H,U,f) =-0.231E-04 0.218E-04-0.262E-06
CGA: 129    -0.222815031264E+03   -0.23491E-03   -0.23316E-03  5760   0.159E-02-0.163E-05
 gam= 0.969 trial= 0.295  step= 0.218 mean= 0.295
 gam= 0.743 g(H,U,f)=  0.517E-03 0.661E-03 0.223E-06 ort(H,U,f) =-0.187E-03 0.241E-03-0.217E-06
CGA: 130    -0.222815212636E+03   -0.18137E-03   -0.17280E-03  5760   0.118E-02 0.539E-04
 gam= 0.743 trial= 0.291  step= 0.417 mean= 0.291
 gam= 0.810 g(H,U,f)=  0.489E-03 0.465E-03 0.235E-08 ort(H,U,f) =-0.393E-03 0.299E-03-0.679E-08
CGA: 131    -0.222815453264E+03   -0.24063E-03   -0.25410E-03  5760   0.955E-03-0.932E-04
 gam= 0.810 trial= 0.297  step= 0.319 mean= 0.297
 gam= 0.000 g(H,U,f)=  0.514E-03 0.585E-03 0.134E-06 ort(H,U,f) =-0.234E-03 0.255E-03-0.914E-08
SDA: 132    -0.222815592180E+03   -0.13892E-03   -0.14038E-03  5760   0.110E-02 0.207E-04
 gam= 0.000 trial= 0.298  step= 0.196 mean= 0.298
 gam= 0.853 g(H,U,f)=  0.286E-03 0.651E-03 0.104E-07 ort(H,U,f) = 0.249E-03-0.444E-04-0.178E-07
CGA: 133    -0.222815712723E+03   -0.12054E-03   -0.10745E-03  5760   0.937E-03 0.205E-03
 gam= 0.853 trial= 0.293  step= 0.316 mean= 0.293
 gam= 1.155 g(H,U,f)=  0.221E-03 0.861E-03 0.275E-06 ort(H,U,f) = 0.393E-04-0.586E-04-0.131E-06
CGA: 134    -0.222815882612E+03   -0.16989E-03   -0.17594E-03  5760   0.108E-02-0.194E-04
 gam= 1.155 trial= 0.294  step= 0.268 mean= 0.294
 gam= 0.790 g(H,U,f)=  0.331E-03 0.524E-03 0.161E-06 ort(H,U,f) =-0.338E-03 0.267E-03 0.920E-07
CGA: 135    -0.222816028507E+03   -0.14590E-03   -0.14178E-03  5760   0.855E-03-0.708E-04
 gam= 0.790 trial= 0.293  step= 0.414 mean= 0.293
 gam= 1.021 g(H,U,f)=  0.395E-03 0.477E-03 0.805E-07 ort(H,U,f) =-0.325E-03 0.336E-03-0.157E-07
CGA: 136    -0.222816187791E+03   -0.15928E-03   -0.16537E-03  5760   0.872E-03 0.109E-04
 gam= 1.021 trial= 0.299  step= 0.278 mean= 0.299
 gam= 1.049 g(H,U,f)=  0.405E-03 0.510E-03 0.613E-07 ort(H,U,f) =-0.193E-03 0.245E-03-0.139E-06
CGA: 137    -0.222816314534E+03   -0.12674E-03   -0.12258E-03  5760   0.915E-03 0.512E-04
 gam= 1.049 trial= 0.298  step= 0.303 mean= 0.298
 gam= 1.408 g(H,U,f)=  0.371E-03 0.918E-03 0.130E-06 ort(H,U,f) =-0.135E-03 0.155E-03-0.104E-06
CGA: 138    -0.222816460611E+03   -0.14608E-03   -0.14694E-03  5760   0.129E-02 0.195E-04
 gam= 1.408 trial= 0.298  step= 0.329 mean= 0.298
 gam= 0.640 g(H,U,f)=  0.407E-03 0.417E-03 0.658E-07 ort(H,U,f) =-0.334E-03 0.201E-03-0.106E-06
CGA: 139    -0.222816672240E+03   -0.21163E-03   -0.21655E-03  5760   0.825E-03-0.133E-03
 gam= 0.640 trial= 0.300  step= 0.531 mean= 0.300
 gam= 0.979 g(H,U,f)=  0.376E-03 0.431E-03 0.334E-07 ort(H,U,f) =-0.160E-03 0.177E-03 0.176E-07
CGA: 140    -0.222816863164E+03   -0.19092E-03   -0.19648E-03  5760   0.807E-03 0.172E-04
 gam= 0.979 trial= 0.311  step= 0.175 mean= 0.311
 gam= 0.808 g(H,U,f)=  0.310E-03 0.343E-03 0.151E-07 ort(H,U,f) = 0.631E-04 0.940E-04-0.201E-07
CGA: 141    -0.222816954568E+03   -0.91404E-04   -0.72058E-04  5760   0.652E-03 0.157E-03
 gam= 0.808 trial= 0.304  step= 0.402 mean= 0.304
 gam= 0.945 g(H,U,f)=  0.267E-03 0.349E-03 0.115E-06 ort(H,U,f) =-0.312E-04 0.274E-04-0.326E-07
CGA: 142    -0.222817109442E+03   -0.15487E-03   -0.15682E-03  5760   0.617E-03-0.386E-05
 gam= 0.945 trial= 0.309  step= 0.346 mean= 0.309
 gam= 0.723 g(H,U,f)=  0.211E-03 0.234E-03 0.505E-07 ort(H,U,f) =-0.119E-03 0.103E-03-0.116E-07
CGA: 143    -0.222817213580E+03   -0.10414E-03   -0.10592E-03  5760   0.446E-03-0.160E-04
 gam= 0.723 trial= 0.311  step= 0.448 mean= 0.311
 gam= 0.647 g(H,U,f)=  0.183E-03 0.105E-03 0.101E-07 ort(H,U,f) =-0.132E-03 0.103E-03 0.168E-07
CGA: 144    -0.222817307243E+03   -0.93663E-04   -0.97326E-04  5760   0.288E-03-0.296E-04
 gam= 0.647 trial= 0.318  step= 0.319 mean= 0.318
 gam= 1.362 g(H,U,f)=  0.167E-03 0.225E-03 0.190E-07 ort(H,U,f) = 0.104E-05 0.308E-04 0.149E-07
CGA: 145    -0.222817350192E+03   -0.42948E-04   -0.42971E-04  5760   0.393E-03 0.318E-04
 gam= 1.362 trial= 0.318  step= 0.219 mean= 0.318
 gam= 0.528 g(H,U,f)=  0.905E-04 0.117E-03 0.962E-08 ort(H,U,f) =-0.162E-04 0.406E-04 0.219E-07
CGA: 146    -0.222817403363E+03   -0.53171E-04   -0.47761E-04  5760   0.208E-03 0.245E-04
 gam= 0.528 trial= 0.313  step= 0.283 mean= 0.313
 gam= 1.004 g(H,U,f)=  0.811E-04 0.127E-03 0.230E-07 ort(H,U,f) =-0.425E-05 0.108E-04 0.149E-07
CGA: 147    -0.222817435736E+03   -0.32373E-04   -0.31239E-04  5760   0.208E-03 0.660E-05
 gam= 1.004 trial= 0.312  step= 0.261 mean= 0.312
 gam= 0.669 g(H,U,f)=  0.720E-04 0.673E-04 0.220E-08 ort(H,U,f) =-0.236E-04 0.201E-04-0.121E-08
CGA: 148    -0.222817464603E+03   -0.28867E-04   -0.28056E-04  5760   0.139E-03-0.351E-05
 gam= 0.669 trial= 0.309  step= 0.293 mean= 0.309
 gam= 0.854 g(H,U,f)=  0.549E-04 0.641E-04 0.225E-07 ort(H,U,f) = 0.246E-05 0.610E-05-0.222E-07
CGA: 149    -0.222817485015E+03   -0.20412E-04   -0.20026E-04  5760   0.119E-03 0.854E-05
 gam= 0.854 trial= 0.308  step= 0.291 mean= 0.308
 gam= 0.991 g(H,U,f)=  0.374E-04 0.804E-04 0.777E-08 ort(H,U,f) =-0.353E-05 0.302E-05-0.607E-08
CGA: 150    -0.222817503788E+03   -0.18773E-04   -0.18357E-04  5760   0.118E-03-0.516E-06
 gam= 0.991 trial= 0.307  step= 0.180 mean= 0.307
 gam= 0.469 g(H,U,f)=  0.269E-04 0.284E-04 0.606E-08 ort(H,U,f) =-0.797E-05 0.116E-04-0.643E-08
CGA: 151    -0.222817516296E+03   -0.12508E-04   -0.10559E-04  5760   0.553E-04 0.359E-05
 gam= 0.469 trial= 0.301  step= 0.439 mean= 0.301
 gam= 0.625 g(H,U,f)=  0.211E-04 0.134E-04 0.154E-08 ort(H,U,f) =-0.899E-05 0.983E-05 0.573E-09
CGA: 152    -0.222817528838E+03   -0.12542E-04   -0.12507E-04  5760   0.345E-04 0.841E-06
 gam= 0.625 trial= 0.308  step= 0.697 mean= 0.308
 gam= 1.410 g(H,U,f)=  0.190E-04 0.296E-04 0.327E-07 ort(H,U,f) =-0.801E-05 0.799E-05 0.697E-08
CGA: 153    -0.222817540937E+03   -0.12099E-04   -0.12227E-04  5760   0.487E-04-0.997E-08
 gam= 1.410 trial= 0.327  step= 0.196 mean= 0.327
 gam= 0.749 g(H,U,f)=  0.166E-04 0.198E-04 0.303E-07 ort(H,U,f) =-0.744E-05 0.144E-04 0.391E-07
CGA: 154    -0.222817546240E+03   -0.53035E-05   -0.47710E-05  5760   0.365E-04 0.703E-05
 gam= 0.749 trial= 0.321  step= 0.285 mean= 0.321
 gam= 0.938 g(H,U,f)=  0.155E-04 0.187E-04 0.550E-09 ort(H,U,f) =-0.494E-05 0.643E-05 0.506E-08
CGA: 155    -0.222817552418E+03   -0.61781E-05   -0.59495E-05  5760   0.342E-04 0.150E-05
 gam= 0.938 trial= 0.319  step= 0.350 mean= 0.319
 gam= 1.314 g(H,U,f)=  0.178E-04 0.272E-04 0.154E-08 ort(H,U,f) =-0.535E-05 0.344E-05 0.105E-07
CGA: 156    -0.222817558468E+03   -0.60501E-05   -0.62394E-05  5760   0.450E-04-0.190E-05
 gam= 1.314 trial= 0.321  step= 0.257 mean= 0.321
 gam= 0.795 g(H,U,f)=  0.150E-04 0.208E-04 0.253E-08 ort(H,U,f) =-0.835E-05 0.103E-04-0.225E-07
CGA: 157    -0.222817564081E+03   -0.56131E-05   -0.54494E-05  5760   0.358E-04 0.191E-05
 gam= 0.795 trial= 0.317  step= 0.297 mean= 0.317
 gam= 0.592 g(H,U,f)=  0.114E-04 0.977E-05 0.215E-07 ort(H,U,f) =-0.884E-05 0.794E-05-0.498E-07
CGA: 158    -0.222817569694E+03   -0.56125E-05   -0.55300E-05  5760   0.212E-04-0.959E-06
 gam= 0.592 trial= 0.316  step= 0.417 mean= 0.316
 gam= 1.711 g(H,U,f)=  0.136E-04 0.226E-04 0.558E-08 ort(H,U,f) =-0.325E-05 0.357E-05-0.419E-08
CGA: 159    -0.222817573816E+03   -0.41226E-05   -0.42987E-05  5760   0.362E-04 0.318E-06
 gam= 1.711 trial= 0.321  step= 0.220 mean= 0.321
 gam= 0.782 g(H,U,f)=  0.128E-04 0.155E-04 0.735E-08 ort(H,U,f) =-0.614E-05 0.887E-05 0.896E-09
CGA: 160    -0.222817578415E+03   -0.45982E-05   -0.40425E-05  5760   0.284E-04 0.273E-05
 gam= 0.782 trial= 0.316  step= 0.527 mean= 0.316
 gam= 1.489 g(H,U,f)=  0.153E-04 0.269E-04 0.225E-08 ort(H,U,f) =-0.101E-04 0.805E-05 0.344E-08
CGA: 161    -0.222817585597E+03   -0.71819E-05   -0.80257E-05  5760   0.422E-04-0.201E-05
 gam= 1.489 trial= 0.327  step= 0.209 mean= 0.327
 gam= 0.905 g(H,U,f)=  0.182E-04 0.200E-04 0.291E-08 ort(H,U,f) =-0.142E-04 0.175E-04-0.484E-08
CGA: 162    -0.222817590267E+03   -0.46704E-05   -0.41023E-05  5760   0.382E-04 0.332E-05
 gam= 0.905 trial= 0.321  step= 0.386 mean= 0.321
 gam= 0.000 g(H,U,f)=  0.183E-04 0.110E-04 0.609E-07 ort(H,U,f) =-0.153E-04 0.146E-04-0.274E-07
SDA: 163    -0.222817598117E+03   -0.78504E-05   -0.79500E-05  5760   0.294E-04-0.640E-06
 gam= 0.000 trial= 0.324  step= 0.379 mean= 0.324
 gam= 1.231 g(H,U,f)=  0.101E-04 0.261E-04 0.174E-08 ort(H,U,f) = 0.767E-05-0.498E-05-0.464E-08
CGA: 164    -0.222817603527E+03   -0.54093E-05   -0.55733E-05  5760   0.362E-04 0.268E-05
 gam= 1.231 trial= 0.327  step= 0.179 mean= 0.327
 gam= 0.606 g(H,U,f)=  0.542E-05 0.165E-04 0.631E-09 ort(H,U,f) = 0.542E-05-0.801E-06-0.110E-08
CGA: 165    -0.222817608043E+03   -0.45165E-05   -0.35402E-05  5760   0.219E-04 0.462E-05
 gam= 0.606 trial= 0.320  step= 0.243 mean= 0.320
 gam= 0.548 g(H,U,f)=  0.364E-05 0.837E-05 0.799E-08 ort(H,U,f) =-0.190E-06 0.978E-06 0.148E-07
CGA: 166    -0.222817611264E+03   -0.32209E-05   -0.30060E-05  5760   0.120E-04 0.803E-06
 gam= 0.548 trial= 0.316  step= 0.585 mean= 0.316
 gam= 0.912 g(H,U,f)=  0.522E-05 0.574E-05 0.639E-09 ort(H,U,f) =-0.375E-05 0.287E-05 0.423E-08
CGA: 167    -0.222817614607E+03   -0.33428E-05   -0.36450E-05  5760   0.110E-04-0.880E-06
 gam= 0.912 trial= 0.329  step= 0.687 mean= 0.329
 gam= 1.761 g(H,U,f)=  0.719E-05 0.121E-04 0.118E-07 ort(H,U,f) =-0.308E-05 0.227E-05 0.199E-07
CGA: 168    -0.222817617389E+03   -0.27826E-05   -0.34939E-05  5760   0.193E-04-0.790E-06
 gam= 1.761 trial= 0.347  step= 0.130 mean= 0.347
 gam= 0.624 g(H,U,f)=  0.551E-05 0.653E-05 0.298E-08 ort(H,U,f) =-0.166E-05 0.472E-05 0.236E-07
CGA: 169    -0.222817619157E+03   -0.17679E-05   -0.11608E-05  5760   0.121E-04 0.309E-05
 gam= 0.624 trial= 0.336  step= 0.288 mean= 0.336
 gam= 1.145 g(H,U,f)=  0.453E-05 0.926E-05 0.665E-08 ort(H,U,f) =-0.531E-06 0.305E-05-0.259E-07
CGA: 170    -0.222817621186E+03   -0.20288E-05   -0.20158E-05  5760   0.138E-04 0.249E-05
 gam= 1.145 trial= 0.334  step= 0.129 mean= 0.334
 gam= 0.697 g(H,U,f)=  0.336E-05 0.626E-05 0.577E-08 ort(H,U,f) = 0.197E-06 0.261E-05-0.220E-07
CGA: 171    -0.222817622633E+03   -0.14473E-05   -0.10778E-05  5760   0.963E-05 0.279E-05
 gam= 0.697 trial= 0.324  step= 0.240 mean= 0.324
 gam= 1.253 g(H,U,f)=  0.350E-05 0.856E-05 0.271E-09 ort(H,U,f) =-0.507E-06 0.237E-05-0.519E-09
CGA: 172    -0.222817624052E+03   -0.14186E-05   -0.13860E-05  5760   0.121E-04 0.187E-05
 gam= 1.253 trial= 0.319  step= 0.141 mean= 0.319
 gam= 0.975 g(H,U,f)=  0.368E-05 0.808E-05 0.376E-09 ort(H,U,f) =-0.422E-06 0.270E-05-0.583E-09
CGA: 173    -0.222817625245E+03   -0.11926E-05   -0.10126E-05  5760   0.118E-04 0.227E-05
 gam= 0.975 trial= 0.310  step= 0.286 mean= 0.310
 gam= 1.541 g(H,U,f)=  0.390E-05 0.142E-04 0.869E-08 ort(H,U,f) =-0.269E-05 0.296E-05-0.149E-07
CGA: 174    -0.222817627268E+03   -0.20231E-05   -0.19995E-05  5760   0.181E-04 0.255E-06
 gam= 1.541 trial= 0.309  step= 0.101 mean= 0.309
 gam= 0.533 g(H,U,f)=  0.367E-05 0.599E-05 0.987E-08 ort(H,U,f) =-0.515E-05 0.843E-05-0.152E-07
CGA: 175    -0.222817628668E+03   -0.14004E-05   -0.93374E-06  5760   0.967E-05 0.327E-05
 gam= 0.533 trial= 0.299  step= 0.165 mean= 0.299
 gam= 1.343 g(H,U,f)=  0.375E-05 0.923E-05 0.143E-08 ort(H,U,f) =-0.149E-05 0.426E-05 0.565E-09
CGA: 176    -0.222817629651E+03   -0.98292E-06   -0.94059E-06  5760   0.130E-04 0.277E-05
 gam= 1.343 trial= 0.292  step= 0.167 mean= 0.292
 gam= 0.685 g(H,U,f)=  0.352E-05 0.536E-05 0.140E-08 ort(H,U,f) =-0.353E-05 0.382E-05-0.235E-08
CGA: 177    -0.222817631283E+03   -0.16318E-05   -0.13940E-05  5760   0.889E-05 0.289E-06
 gam= 0.685 trial= 0.286  step= 0.243 mean= 0.286
 gam= 2.032 g(H,U,f)=  0.485E-05 0.132E-04 0.746E-10 ort(H,U,f) =-0.135E-05 0.383E-05-0.105E-09
CGA: 178    -0.222817632405E+03   -0.11225E-05   -0.11016E-05  5760   0.181E-04 0.248E-05
 gam= 2.032 trial= 0.284  step= 0.265 mean= 0.284
 gam= 0.730 g(H,U,f)=  0.612E-05 0.705E-05 0.655E-08 ort(H,U,f) =-0.764E-05 0.664E-05 0.340E-09
CGA: 179    -0.222817635524E+03   -0.31190E-05   -0.30550E-05  5760   0.132E-04-0.101E-05
 gam= 0.730 trial= 0.283  step= 0.459 mean= 0.283
 gam= 1.217 g(H,U,f)=  0.881E-05 0.722E-05 0.707E-09 ort(H,U,f) =-0.500E-05 0.451E-05-0.215E-08
CGA: 180    -0.222817638125E+03   -0.26002E-05   -0.28530E-05  5760   0.160E-04-0.489E-06
 gam= 1.217 trial= 0.292  step= 0.194 mean= 0.292
 gam= 1.144 g(H,U,f)=  0.793E-05 0.104E-04 0.810E-09 ort(H,U,f) =-0.163E-05 0.335E-05-0.211E-08
CGA: 181    -0.222817639805E+03   -0.16802E-05   -0.15014E-05  5760   0.183E-04 0.171E-05
 gam= 1.144 trial= 0.287  step= 0.324 mean= 0.287
 gam= 0.782 g(H,U,f)=  0.789E-05 0.645E-05 0.393E-09 ort(H,U,f) =-0.396E-05 0.190E-05 0.221E-09
CGA: 182    -0.222817643024E+03   -0.32193E-05   -0.32904E-05  5760   0.143E-04-0.206E-05
 gam= 0.782 trial= 0.289  step= 0.446 mean= 0.289
 gam= 1.326 g(H,U,f)=  0.627E-05 0.128E-04 0.555E-09 ort(H,U,f) =-0.197E-05 0.307E-05-0.923E-09
CGA: 183    -0.222817645793E+03   -0.27688E-05   -0.28430E-05  5760   0.190E-04 0.110E-05
 gam= 1.326 trial= 0.296  step= 0.131 mean= 0.296
 gam= 0.493 g(H,U,f)=  0.515E-05 0.423E-05 0.356E-09 ort(H,U,f) =-0.726E-06 0.317E-05-0.220E-09
CGA: 184    -0.222817647535E+03   -0.17423E-05   -0.13437E-05  5760   0.938E-05 0.244E-05
 gam= 0.493 trial= 0.288  step= 0.509 mean= 0.288
 gam= 1.305 g(H,U,f)=  0.445E-05 0.779E-05 0.896E-09 ort(H,U,f) =-0.135E-05 0.173E-05 0.561E-10
CGA: 185    -0.222817650267E+03   -0.27317E-05   -0.26939E-05  5760   0.122E-04 0.380E-06
 gam= 1.305 trial= 0.299  step= 0.192 mean= 0.299
 gam= 1.037 g(H,U,f)=  0.488E-05 0.781E-05 0.209E-08 ort(H,U,f) =-0.120E-05 0.287E-05 0.104E-08
CGA: 186    -0.222817651585E+03   -0.13176E-05   -0.12220E-05  5760   0.127E-04 0.168E-05
 gam= 1.037 trial= 0.294  step= 0.317 mean= 0.294
 gam= 0.652 g(H,U,f)=  0.385E-05 0.442E-05 0.117E-08 ort(H,U,f) =-0.367E-05 0.219E-05 0.273E-08
CGA: 187    -0.222817653824E+03   -0.22398E-05   -0.22860E-05  5760   0.827E-05-0.148E-05
 gam= 0.652 trial= 0.295  step= 0.471 mean= 0.295
 gam= 0.937 g(H,U,f)=  0.421E-05 0.354E-05 0.103E-09 ort(H,U,f) =-0.291E-05 0.196E-05 0.493E-10
CGA: 188    -0.222817655364E+03   -0.15401E-05   -0.17195E-05  5760   0.775E-05-0.953E-06
 gam= 0.937 trial= 0.304  step= 0.205 mean= 0.304
 gam= 0.974 g(H,U,f)=  0.384E-05 0.371E-05 0.630E-09 ort(H,U,f) =-0.168E-06 0.649E-06-0.178E-08
CGA: 189    -0.222817656124E+03   -0.75993E-06   -0.70335E-06  5760   0.755E-05 0.479E-06
 gam= 0.974 trial= 0.299  step= 0.355 mean= 0.299
 gam= 0.874 g(H,U,f)=  0.293E-05 0.367E-05 0.540E-09 ort(H,U,f) = 0.325E-06-0.154E-06-0.105E-08
CGA: 190    -0.222817657527E+03   -0.14030E-05   -0.14220E-05  5760   0.660E-05 0.170E-06
 gam= 0.874 trial= 0.302  step= 0.333 mean= 0.302
 gam= 0.571 g(H,U,f)=  0.197E-05 0.179E-05 0.528E-09 ort(H,U,f) =-0.653E-06 0.545E-06 0.424E-09
CGA: 191    -0.222817658636E+03   -0.11083E-05   -0.11234E-05  5760   0.376E-05-0.108E-06
 gam= 0.571 trial= 0.303  step= 0.246 mean= 0.303
 gam= 1.002 g(H,U,f)=  0.142E-05 0.235E-05 0.322E-09 ort(H,U,f) = 0.303E-06-0.290E-06 0.478E-09
CGA: 192    -0.222817659109E+03   -0.47288E-06   -0.45551E-06  5760   0.377E-05 0.134E-07
 gam= 1.002 trial= 0.300  step= 0.271 mean= 0.300
 final diagonalization
   1 F= -.23231652E+03 E0= -.23231094E+03  d E =-.111622E-01  mag=     6.0000
