 vasp.5.4.4.18Apr17-6-g9f103f2a35 (build Nov 22 2021 14:44:17) complex          
  
 executed on             LinuxIFC date 2022.08.08  11:43:07
 running on   64 total cores
 distrk:  each k-point on   64 cores,    1 groups
 distr:  one band on NCORES_PER_BAND=   4 cores,   16 groups


--------------------------------------------------------------------------------------------------------


 INCAR:
 POTCAR:    PAW_PBE Li 17Jan2003                  
 POTCAR:    PAW_PBE Co 02Aug2007                  
 POTCAR:    PAW_PBE O 08Apr2002                   
 POTCAR:    PAW_PBE Li 17Jan2003                  
   VRHFIN =Li: s1p0                                                             
   LEXCH  = PE                                                                  
   EATOM  =     5.3001 eV,    0.3895 Ry                                         
                                                                                
   TITEL  = PAW_PBE Li 17Jan2003                                                
   LULTRA =        F    use ultrasoft PP ?                                      
   IUNSCR =        1    unscreen: 0-lin 1-nonlin 2-no                           
   RPACOR =    1.500    partial core radius                                     
   POMASS =    7.010; ZVAL   =    1.000    mass and valenz                      
   RCORE  =    2.050    outmost cutoff radius                                   
   RWIGS  =    2.600; RWIGS  =    1.376    wigner-seitz radius (au A)           
   ENMAX  =  140.000; ENMIN  =  100.000 eV                                      
   ICORE  =        2    local potential                                         
   LCOR   =        T    correct aug charges                                     
   LPAW   =        T    paw PP                                                  
   EAUG   =  331.638                                                            
   DEXC   =    0.000                                                            
   RMAX   =    2.098    core radius for proj-oper                               
   RAUG   =    1.300    factor for augmentation sphere                          
   RDEP   =    2.094    radius for radial grids                                 
   RDEPT  =    1.810    core radius for aug-charge                              
                                                                                
   Atomic configuration                                                         
    4 entries                                                                   
     n  l   j            E        occ.                                          
     1  0  0.50       -51.8549   2.0000                                         
     2  0  0.50        -2.8742   1.0000                                         
     2  1  0.50        -1.3606   0.0000                                         
     3  2  1.50        -1.3606   0.0000                                         
   Description                                                                  
     l       E           TYP  RCUT    TYP  RCUT                                 
     0     -2.8742052     23  2.050                                             
     0     27.2116520     23  2.050                                             
     1     -1.3605826     23  2.050                                             
     2     -1.3605826     23  2.050                                             
  local pseudopotential read in
  partial core-charges read in
  partial kinetic energy density read in
  atomic valenz-charges read in
  non local Contribution for L=           0  read in
    real space projection operators read in
  non local Contribution for L=           0  read in
    real space projection operators read in
  non local Contribution for L=           1  read in
    real space projection operators read in
    PAW grid and wavefunctions read in
 
   number of l-projection  operators is LMAX  =           3
   number of lm-projection operators is LMMAX =           5
 
 POTCAR:    PAW_PBE Co 02Aug2007                  
   VRHFIN =Co: d8 s1                                                            
   LEXCH  = PE                                                                  
   EATOM  =   813.3670 eV,   59.7808 Ry                                         
                                                                                
   TITEL  = PAW_PBE Co 02Aug2007                                                
   LULTRA =        F    use ultrasoft PP ?                                      
   IUNSCR =        1    unscreen: 0-lin 1-nonlin 2-no                           
   RPACOR =    2.000    partial core radius                                     
   POMASS =   58.933; ZVAL   =    9.000    mass and valenz                      
   RCORE  =    2.300    outmost cutoff radius                                   
   RWIGS  =    2.460; RWIGS  =    1.302    wigner-seitz radius (au A)           
   ENMAX  =  267.968; ENMIN  =  200.976 eV                                      
   RCLOC  =    1.203    cutoff for local pot                                    
   LCOR   =        T    correct aug charges                                     
   LPAW   =        T    paw PP                                                  
   EAUG   =  477.818                                                            
   DEXC   =    0.000                                                            
   RMAX   =    2.360    core radius for proj-oper                               
   RAUG   =    1.300    factor for augmentation sphere                          
   RDEP   =    2.393    radius for radial grids                                 
   RDEPT  =    1.864    core radius for aug-charge                              
                                                                                
   Atomic configuration                                                         
    9 entries                                                                   
     n  l   j            E        occ.                                          
     1  0  0.50     -7587.6674   2.0000                                         
     2  0  0.50      -893.6084   2.0000                                         
     2  1  1.50      -764.5805   6.0000                                         
     3  0  0.50       -97.5973   2.0000                                         
     3  1  1.50       -60.9648   6.0000                                         
     3  2  2.50        -4.2382   8.0000                                         
     4  0  0.50        -4.3746   1.0000                                         
     4  1  1.50        -4.0817   0.0000                                         
     4  3  2.50        -1.3606   0.0000                                         
   Description                                                                  
     l       E           TYP  RCUT    TYP  RCUT                                 
     2     -4.2382362     23  2.300                                             
     2     -5.5988188     23  2.300                                             
     0     -4.3745797     23  2.300                                             
     0      5.7660125     23  2.300                                             
     1     -2.7211652     23  2.300                                             
     1     16.9860234     23  2.300                                             
  local pseudopotential read in
  partial core-charges read in
  partial kinetic energy density read in
  atomic valenz-charges read in
  non local Contribution for L=           2  read in
    real space projection operators read in
  non local Contribution for L=           2  read in
    real space projection operators read in
  non local Contribution for L=           0  read in
    real space projection operators read in
  non local Contribution for L=           0  read in
    real space projection operators read in
  non local Contribution for L=           1  read in
    real space projection operators read in
  non local Contribution for L=           1  read in
    real space projection operators read in
    PAW grid and wavefunctions read in
 
   number of l-projection  operators is LMAX  =           6
   number of lm-projection operators is LMMAX =          18
 
 POTCAR:    PAW_PBE O 08Apr2002                   
   VRHFIN =O: s2p4                                                              
   LEXCH  = PE                                                                  
   EATOM  =   432.3788 eV,   31.7789 Ry                                         
                                                                                
   TITEL  = PAW_PBE O 08Apr2002                                                 
   LULTRA =        F    use ultrasoft PP ?                                      
   IUNSCR =        1    unscreen: 0-lin 1-nonlin 2-no                           
   RPACOR =    1.200    partial core radius                                     
   POMASS =   16.000; ZVAL   =    6.000    mass and valenz                      
   RCORE  =    1.520    outmost cutoff radius                                   
   RWIGS  =    1.550; RWIGS  =    0.820    wigner-seitz radius (au A)           
   ENMAX  =  400.000; ENMIN  =  300.000 eV                                      
   ICORE  =        2    local potential                                         
   LCOR   =        T    correct aug charges                                     
   LPAW   =        T    paw PP                                                  
   EAUG   =  605.392                                                            
   DEXC   =    0.000                                                            
   RMAX   =    1.553    core radius for proj-oper                               
   RAUG   =    1.300    factor for augmentation sphere                          
   RDEP   =    1.550    radius for radial grids                                 
   RDEPT  =    1.329    core radius for aug-charge                              
                                                                                
   Atomic configuration                                                         
    4 entries                                                                   
     n  l   j            E        occ.                                          
     1  0  0.50      -514.6923   2.0000                                         
     2  0  0.50       -23.9615   2.0000                                         
     2  1  0.50        -9.0305   4.0000                                         
     3  2  1.50        -9.5241   0.0000                                         
   Description                                                                  
     l       E           TYP  RCUT    TYP  RCUT                                 
     0    -23.9615318     23  1.200                                             
     0     -9.5240782     23  1.200                                             
     1     -9.0304911     23  1.520                                             
     1      8.1634956     23  1.520                                             
     2     -9.5240782      7  1.500                                             
  local pseudopotential read in
  partial core-charges read in
  partial kinetic energy density read in
  kinetic energy density of atom read in
  atomic valenz-charges read in
  non local Contribution for L=           0  read in
    real space projection operators read in
  non local Contribution for L=           0  read in
    real space projection operators read in
  non local Contribution for L=           1  read in
    real space projection operators read in
  non local Contribution for L=           1  read in
    real space projection operators read in
    PAW grid and wavefunctions read in
 
   number of l-projection  operators is LMAX  =           4
   number of lm-projection operators is LMMAX =           8
 
 Optimization of the real space projectors (new method)

 maximal supplied QI-value         = 18.33
 optimisation between [QCUT,QGAM] = [ 12.46, 24.93] = [ 43.51,174.03] Ry 
 Optimized for a Real-space Cutoff    1.13 Angstroem

   l    n(q)    QCUT    max X(q) W(low)/X(q) W(high)/X(q)  e(spline) 
   0      8    12.465    33.825    0.12E-03    0.29E-03    0.99E-07
   0      8    12.465     8.944    0.86E-04    0.22E-03    0.72E-07
   1      8    12.465     4.214    0.27E-03    0.11E-03    0.82E-07
 Optimization of the real space projectors (new method)

 maximal supplied QI-value         = 16.25
 optimisation between [QCUT,QGAM] = [ 12.51, 25.03] = [ 43.85,175.40] Ry 
 Optimized for a Real-space Cutoff    1.31 Angstroem

   l    n(q)    QCUT    max X(q) W(low)/X(q) W(high)/X(q)  e(spline) 
   2      9    12.514    65.824    0.30E-03    0.46E-03    0.43E-06
   2      9    12.514    61.429    0.31E-03    0.46E-03    0.44E-06
   0     10    12.514    56.174    0.90E-04    0.33E-03    0.30E-06
   0     10    12.514    31.263    0.81E-04    0.30E-03    0.28E-06
   1      9    12.514    19.828    0.38E-03    0.65E-04    0.24E-06
   1      9    12.514    15.139    0.32E-03    0.60E-04    0.20E-06
 Optimization of the real space projectors (new method)

 maximal supplied QI-value         = 24.76
 optimisation between [QCUT,QGAM] = [ 12.38, 25.00] = [ 42.90,175.06] Ry 
 Optimized for a Real-space Cutoff    1.13 Angstroem

   l    n(q)    QCUT    max X(q) W(low)/X(q) W(high)/X(q)  e(spline) 
   0      8    12.378    20.381    0.16E-03    0.54E-05    0.27E-06
   0      8    12.378    15.268    0.17E-03    0.61E-05    0.29E-06
   1      8    12.378     5.964    0.38E-03    0.23E-03    0.28E-06
   1      8    12.378     5.382    0.33E-03    0.20E-03    0.25E-06
  PAW_PBE Li 17Jan2003                  :
 energy of atom  1       EATOM=   -5.3001
 kinetic energy error for atom=    0.0000 (will be added to EATOM!!)
  PAW_PBE Co 02Aug2007                  :
 energy of atom  2       EATOM= -813.3670
 kinetic energy error for atom=    0.0018 (will be added to EATOM!!)
  PAW_PBE O 08Apr2002                   :
 energy of atom  3       EATOM= -432.3788
 kinetic energy error for atom=    0.0168 (will be added to EATOM!!)
 
 
 POSCAR: Li6 Co12 O24                            
  positions in cartesian coordinates
  No initial velocities read in
 exchange correlation table for  LEXCH =        8
   RHO(1)=    0.500       N(1)  =     2000
   RHO(2)=  100.500       N(2)  =     4000
 


--------------------------------------------------------------------------------------------------------


 ion  position               nearest neighbor table
   1  0.475  0.977  0.005-  23 2.04  38 2.11  24 2.11  36 2.15  25 2.16  37 2.50   8 2.71   9 2.87
                            10 2.90  16 2.92  17 3.06  15 3.12
   2  0.915  0.806  0.334-  34 2.03  32 2.10  19 2.14  20 2.37  22 2.38  11 2.51  10 2.85   8 2.88

   3  0.129  0.259  0.673-  29 1.85  39 2.00  42 2.03  27 2.08  40 2.19  28 2.30   6 2.49   5 2.61
                             4 2.72  15 2.72  11 2.78  17 2.83  16 2.90  12 2.90   4 3.00   5 3.07
   4  0.129  0.735  0.677-  40 1.92  28 2.02  41 2.04  30 2.10  39 2.23  12 2.62  16 2.64   5 2.64
                             6 2.68   3 2.72  18 2.87  15 2.90   3 3.00   6 3.10   5 3.19  13 3.20
   5  0.623  0.329  0.654-  27 1.86  42 2.09  30 2.15  29 2.23  40 2.26  41 2.43  14 2.53   3 2.61
                             4 2.64  13 2.68   6 2.76  12 2.76   6 2.98  15 3.00  18 3.01   3 3.07
   6  0.656  0.865  0.662-  29 1.87  28 1.94  41 2.02  39 2.17  30 2.23  42 2.46   3 2.49  13 2.61
                             4 2.68  17 2.76   5 2.76  14 2.85  11 2.92   5 2.98  16 3.07   4 3.10
   7  0.189  0.377  0.166-  19 1.79  20 1.81  24 1.81  22 1.94  25 1.97  23 1.99   9 2.77  10 2.85
                             9 2.85  10 2.86   8 2.86   8 2.86
   8  0.176  0.869  0.159-  19 1.85  26 1.86  21 1.91  20 1.93  24 1.94  23 2.12   1 2.71  10 2.73
                             9 2.74   7 2.86   7 2.86  10 2.88   2 2.88   9 2.97
   9  0.690  0.392  0.153-  22 1.71  26 1.87  25 1.88  21 1.93  23 1.95  20 2.01   8 2.74  10 2.75
                             7 2.77   7 2.85   1 2.87   8 2.97  10 2.99
  10  0.691  0.875  0.169-  26 1.84  21 1.84  19 1.92  22 1.92  25 1.96  24 2.04   8 2.73   9 2.75
                             7 2.85   2 2.85   7 2.86   8 2.88   1 2.90   9 2.99
  11  0.001  0.970  0.502-  34 1.71  32 1.81  27 1.84  30 1.89  31 1.93  29 1.94   2 2.51  13 2.74
                             3 2.78  14 2.80  12 2.84  13 2.87  12 2.89  14 2.91   6 2.92   4 3.20
  12  0.997  0.466  0.515-  33 1.89  28 1.90  30 1.91  31 1.92  29 1.95  32 2.01   4 2.62  13 2.75
                            14 2.75   5 2.76  11 2.84  14 2.86  11 2.89   3 2.90  13 2.96
  13  0.517  0.980  0.507-  33 1.90  34 1.91  29 1.93  27 1.97  32 1.98  28 2.17   6 2.61   5 2.68
                            11 2.74  12 2.75  14 2.85  14 2.87  11 2.87  12 2.96   4 3.20
  14  0.514  0.480  0.508-  30 1.83  33 1.84  34 1.92  31 1.92  28 1.92  27 1.94   5 2.53  12 2.75
                            11 2.80   6 2.85  13 2.85  12 2.86  13 2.87  11 2.91   3 3.11
  15  0.314  0.150  0.828-  39 1.84  41 1.86  36 1.92  37 1.93  35 1.96  42 1.99   3 2.72  17 2.78
                            18 2.82  17 2.83  16 2.85  16 2.87  18 2.89   4 2.90   5 3.00   1 3.12
  16  0.310  0.647  0.831-  38 1.80  35 1.82  42 1.87  36 1.93  40 1.94  41 1.99   4 2.64  18 2.74
                            17 2.85  15 2.85  17 2.86  18 2.87  15 2.87   3 2.90   1 2.92   6 3.07
  17  0.809  0.149  0.831-  40 1.90  35 1.91  41 1.93  39 1.95  37 1.95  38 1.97   6 2.76  15 2.78
                            18 2.82   3 2.83  15 2.83  16 2.85  16 2.86  18 2.90   1 3.06   5 3.20
  18  0.802  0.653  0.837-  37 1.82  38 1.89  36 1.94  42 1.98  40 2.00  39 2.00  16 2.74  15 2.82
                            17 2.82  16 2.87   4 2.87  15 2.89  17 2.90   5 3.01   6 3.17
  19  0.052  0.075  0.226-   7 1.79   8 1.85  10 1.92   2 2.14
  20  0.041  0.555  0.229-   7 1.81   8 1.93   9 2.01   2 2.37
  21  0.532  0.068  0.218-  10 1.84   8 1.91   9 1.93
  22  0.550  0.537  0.225-   9 1.71  10 1.92   7 1.94   2 2.38
  23  0.348  0.209  0.080-   9 1.95   7 1.99   1 2.04   8 2.12
  24  0.326  0.664  0.096-   7 1.81   8 1.94  10 2.04   1 2.11
  25  0.837  0.189  0.095-   9 1.88  10 1.96   7 1.97   1 2.16
  26  0.842  0.714  0.094-  10 1.84   8 1.86   9 1.87
  27  0.326  0.151  0.571-  11 1.84   5 1.86  14 1.94  13 1.97   3 2.08
  28  0.332  0.625  0.585-  12 1.90  14 1.92   6 1.94   4 2.02  13 2.17   3 2.30
  29  0.850  0.143  0.584-   3 1.85   6 1.87  13 1.93  11 1.94  12 1.95   5 2.23
  30  0.841  0.667  0.573-  14 1.83  11 1.89  12 1.91   4 2.10   5 2.15   6 2.23
  31  0.167  0.302  0.442-  12 1.92  14 1.92  11 1.93
  32  0.155  0.792  0.442-  11 1.81  13 1.98  12 2.01   2 2.10
  33  0.665  0.300  0.444-  14 1.84  12 1.89  13 1.90
  34  0.689  0.803  0.444-  11 1.71  13 1.91  14 1.92   2 2.03
  35  0.158  0.346  0.895-  16 1.82  17 1.91  15 1.96
  36  0.159  0.841  0.899-  15 1.92  16 1.93  18 1.94   1 2.15
  37  0.654  0.347  0.899-  18 1.82  15 1.93  17 1.95   1 2.50
  38  0.624  0.821  0.899-  16 1.80  18 1.89  17 1.97   1 2.11
  39  0.984  0.975  0.763-  15 1.84  17 1.95   3 2.00  18 2.00   6 2.17   4 2.23
  40  0.961  0.459  0.763-  17 1.90   4 1.92  16 1.94  18 2.00   3 2.19   5 2.26
  41  0.468  0.973  0.760-  15 1.86  17 1.93  16 1.99   6 2.02   4 2.04   5 2.43
  42  0.464  0.478  0.758-  16 1.87  18 1.98  15 1.99   3 2.03   5 2.09   6 2.46
 

IMPORTANT INFORMATION: All symmetrisations will be switched off!
NOSYMM: (Re-)initialisation of all symmetry stuff for point group C_1.

 
 

Automatic generation of k-mesh.
 generate k-points for:    6    6    2
Space group operators:
 irot       det(A)        alpha          n_x          n_y          n_z        tau_x        tau_y        tau_z
    1     1.000000     0.000000     1.000000     0.000000     0.000000     0.000000     0.000000     0.000000
 
 Subroutine IBZKPT returns following result:
 ===========================================
 
 Found     36 irreducible k-points:
 
 Following reciprocal coordinates:
            Coordinates               Weight
  0.083333  0.083333  0.250000      2.000000
  0.250000  0.083333  0.250000      2.000000
  0.416667  0.083333  0.250000      2.000000
 -0.416667  0.083333  0.250000      2.000000
 -0.250000  0.083333  0.250000      2.000000
 -0.083333  0.083333  0.250000      2.000000
  0.083333  0.250000  0.250000      2.000000
  0.250000  0.250000  0.250000      2.000000
  0.416667  0.250000  0.250000      2.000000
 -0.416667  0.250000  0.250000      2.000000
 -0.250000  0.250000  0.250000      2.000000
 -0.083333  0.250000  0.250000      2.000000
  0.083333  0.416667  0.250000      2.000000
  0.250000  0.416667  0.250000      2.000000
  0.416667  0.416667  0.250000      2.000000
 -0.416667  0.416667  0.250000      2.000000
 -0.250000  0.416667  0.250000      2.000000
 -0.083333  0.416667  0.250000      2.000000
  0.083333 -0.416667  0.250000      2.000000
  0.250000 -0.416667  0.250000      2.000000
  0.416667 -0.416667  0.250000      2.000000
 -0.416667 -0.416667  0.250000      2.000000
 -0.250000 -0.416667  0.250000      2.000000
 -0.083333 -0.416667  0.250000      2.000000
  0.083333 -0.250000  0.250000      2.000000
  0.250000 -0.250000  0.250000      2.000000
  0.416667 -0.250000  0.250000      2.000000
 -0.416667 -0.250000  0.250000      2.000000
 -0.250000 -0.250000  0.250000      2.000000
 -0.083333 -0.250000  0.250000      2.000000
  0.083333 -0.083333  0.250000      2.000000
  0.250000 -0.083333  0.250000      2.000000
  0.416667 -0.083333  0.250000      2.000000
 -0.416667 -0.083333  0.250000      2.000000
 -0.250000 -0.083333  0.250000      2.000000
 -0.083333 -0.083333  0.250000      2.000000
 
 Following cartesian coordinates:
            Coordinates               Weight
  0.014863  0.025163  0.019054      2.000000
  0.044589  0.042002  0.020227      2.000000
  0.074315  0.058840  0.021401      2.000000
 -0.074315 -0.025354  0.015532      2.000000
 -0.044589 -0.008515  0.016706      2.000000
 -0.014863  0.008324  0.017880      2.000000
  0.014863  0.058649  0.021537      2.000000
  0.044589  0.075488  0.022711      2.000000
  0.074315  0.092327  0.023885      2.000000
 -0.074315  0.008132  0.018016      2.000000
 -0.044589  0.024971  0.019190      2.000000
 -0.014863  0.041810  0.020364      2.000000
  0.014863  0.092135  0.024021      2.000000
  0.044589  0.108974  0.025195      2.000000
  0.074315  0.125813  0.026369      2.000000
 -0.074315  0.041619  0.020500      2.000000
 -0.044589  0.058458  0.021674      2.000000
 -0.014863  0.075297  0.022848      2.000000
  0.014863 -0.075297  0.011602      2.000000
  0.044589 -0.058458  0.012776      2.000000
  0.074315 -0.041619  0.013949      2.000000
 -0.074315 -0.125813  0.008081      2.000000
 -0.044589 -0.108974  0.009254      2.000000
 -0.014863 -0.092135  0.010428      2.000000
  0.014863 -0.041810  0.014086      2.000000
  0.044589 -0.024971  0.015260      2.000000
  0.074315 -0.008132  0.016433      2.000000
 -0.074315 -0.092327  0.010565      2.000000
 -0.044589 -0.075488  0.011738      2.000000
 -0.014863 -0.058649  0.012912      2.000000
  0.014863 -0.008324  0.016570      2.000000
  0.044589  0.008515  0.017743      2.000000
  0.074315  0.025354  0.018917      2.000000
 -0.074315 -0.058840  0.013048      2.000000
 -0.044589 -0.042002  0.014222      2.000000
 -0.014863 -0.025163  0.015396      2.000000
 


--------------------------------------------------------------------------------------------------------




 Dimension of arrays:
   k-points           NKPTS =     36   k-points in BZ     NKDIM =     36   number of bands    NBANDS=    160
   number of dos      NEDOS =    301   number of ions     NIONS =     42
   non local maximal  LDIM  =      6   non local SUM 2l+1 LMDIM =     18
   total plane-waves  NPLWV = 116640
   max r-space proj   IRMAX =   2741   max aug-charges    IRDMAX=  11556
   dimension x,y,z NGX =    36 NGY =   36 NGZ =   90
   dimension x,y,z NGXF=    72 NGYF=   72 NGZF=  180
   support grid    NGXF=    72 NGYF=   72 NGZF=  180
   ions per type =               6  12  24
   NGX,Y,Z   is equivalent  to a cutoff of  10.67, 10.46, 10.28 a.u.
   NGXF,Y,Z  is equivalent  to a cutoff of  21.35, 20.93, 20.56 a.u.

 SYSTEM =  LiCoO2                                  
 POSCAR =  Li6 Co12 O24                            

 Startparameter for this run:
   NWRITE =      2    write-flag & timer
   PREC   = normal    normal or accurate (medium, high low for compatibility)
   ISTART =      0    job   : 0-new  1-cont  2-samecut
   ICHARG =      2    charge: 1-file 2-atom 10-const
   ISPIN  =      2    spin polarized calculation?
   LNONCOLLINEAR =      F non collinear calculations
   LSORBIT =      F    spin-orbit coupling
   INIWAV =      1    electr: 0-lowe 1-rand  2-diag
   LASPH  =      F    aspherical Exc in radial PAW
   METAGGA=      F    non-selfconsistent MetaGGA calc.

 Electronic Relaxation 1
   ENCUT  =  600.0 eV  44.10 Ry    6.64 a.u.  11.20 11.42 29.07*2*pi/ulx,y,z
   ENINI  =  600.0     initial cutoff
   ENAUG  =  605.4 eV  augmentation charge cutoff
   NELM   =    600;   NELMIN=  2; NELMDL= -5     # of ELM steps 
   EDIFF  = 0.1E-05   stopping-criterion for ELM
   LREAL  =      T    real-space projection
   NLSPLINE    = F    spline interpolate recip. space projectors
   LCOMPAT=      F    compatible to vasp.4.4
   GGA_COMPAT  = T    GGA compatible to vasp.4.4-vasp.4.6
   LMAXPAW     = -100 max onsite density
   LMAXMIX     =    2 max onsite mixed and CHGCAR
   VOSKOWN=      0    Vosko Wilk Nusair interpolation
   ROPT   =   -0.00050  -0.00050  -0.00050
 Ionic relaxation
   EDIFFG = 0.1E-04   stopping-criterion for IOM
   NSW    =      0    number of steps for IOM
   NBLOCK =      1;   KBLOCK =      1    inner block; outer block 
   IBRION =     -1    ionic relax: 0-MD 1-quasi-New 2-CG
   NFREE  =      0    steps in history (QN), initial steepest desc. (CG)
   ISIF   =      2    stress and relaxation
   IWAVPR =     10    prediction:  0-non 1-charg 2-wave 3-comb
   ISYM   =      0    0-nonsym 1-usesym 2-fastsym
   LCORR  =      T    Harris-Foulkes like correction to forces

   POTIM  = 0.5000    time-step for ionic-motion
   TEIN   =    0.0    initial temperature
   TEBEG  =    0.0;   TEEND  =   0.0 temperature during run
   SMASS  =  -3.00    Nose mass-parameter (am)
   estimated Nose-frequenzy (Omega)   =  0.10E-29 period in steps =****** mass=  -0.718E-27a.u.
   SCALEE = 1.0000    scale energy and forces
   NPACO  =    256;   APACO  = 16.0  distance and # of slots for P.C.
   PSTRESS=    0.0 pullay stress

  Mass of Ions in am
   POMASS =   7.01 58.93 16.00
  Ionic Valenz
   ZVAL   =   1.00  9.00  6.00
  Atomic Wigner-Seitz radii
   RWIGS  =  -1.00 -1.00 -1.00
  virtual crystal weights 
   VCA    =   1.00  1.00  1.00
   NELECT =     258.0000    total number of electrons
   NUPDOWN=       6.0000    fix difference up-down

 DOS related values:
   EMIN   =  10.00;   EMAX   =-10.00  energy-range for DOS
   EFERMI =   0.00
   ISMEAR =     0;   SIGMA  =   0.05  broadening in eV -4-tet -1-fermi 0-gaus

 Electronic relaxation 2 (details)
   IALGO  =     58    algorithm
   LDIAG  =      T    sub-space diagonalisation (order eigenvalues)
   LSUBROT=      F    optimize rotation matrix (better conditioning)
   TURBO    =      0    0=normal 1=particle mesh
   IRESTART =      0    0=no restart 2=restart with 2 vectors
   NREBOOT  =      0    no. of reboots
   NMIN     =      0    reboot dimension
   EREF     =   0.00    reference energy to select bands
   IMIX   =      4    mixing-type and parameters
     AMIX     =   0.40;   BMIX     =  1.00
     AMIX_MAG =   1.60;   BMIX_MAG =  1.00
     AMIN     =   0.10
     WC   =   100.;   INIMIX=   1;  MIXPRE=   1;  MAXMIX= -45

 Intra band minimization:
   WEIMIN = 0.0000     energy-eigenvalue tresh-hold
   EBREAK =  0.16E-08  absolut break condition
   DEPER  =   0.30     relativ break condition  

   TIME   =   0.40     timestep for ELM

  volume/ion in A,a.u.               =       9.64        65.08
  Fermi-wavevector in a.u.,A,eV,Ry     =   1.408604  2.661876 26.996218  1.984166
  Thomas-Fermi vector in A             =   2.530745
 
 Write flags
   LWAVE        =      F    write WAVECAR
   LDOWNSAMPLE  =      F    k-point downsampling of WAVECAR
   LCHARG       =      F    write CHGCAR
   LVTOT        =      F    write LOCPOT, total local potential
   LVHAR        =      F    write LOCPOT, Hartree potential only
   LELF         =      F    write electronic localiz. function (ELF)
   LORBIT       =     11    0 simple, 1 ext, 2 COOP (PROOUT), +10 PAW based schemes


 Dipole corrections
   LMONO  =      F    monopole corrections only (constant potential shift)
   LDIPOL =      F    correct potential (dipole corrections)
   IDIPOL =      0    1-x, 2-y, 3-z, 4-all directions 
   EPSILON=  1.0000000 bulk dielectric constant

 LDA+U is selected, type is set to LDAUTYPE =  2
   angular momentum for each species LDAUL =    -1    2   -1
   U (eV)           for each species LDAUU =   0.0  5.1  0.0
   J (eV)           for each species LDAUJ =   0.0  0.0  0.0
 Exchange correlation treatment:
   GGA     =    --    GGA type
   LEXCH   =     8    internal setting for exchange type
   VOSKOWN=      0    Vosko Wilk Nusair interpolation
   LHFCALC =     F    Hartree Fock is set to
   LHFONE  =     F    Hartree Fock one center treatment
   AEXX    =    0.0000 exact exchange contribution

 Linear response parameters
   LEPSILON=     F    determine dielectric tensor
   LRPA    =     F    only Hartree local field effects (RPA)
   LNABLA  =     F    use nabla operator in PAW spheres
   LVEL    =     F    velocity operator in full k-point grid
   LINTERFAST=   F  fast interpolation
   KINTER  =     0    interpolate to denser k-point grid
   CSHIFT  =0.1000    complex shift for real part using Kramers Kronig
   OMEGAMAX=  -1.0    maximum frequency
   DEG_THRESHOLD= 0.2000000E-02 threshold for treating states as degnerate
   RTIME   =   -0.100 relaxation time in fs
  (WPLASMAI=    0.000 imaginary part of plasma frequency in eV, 0.658/RTIME)
   DFIELD  = 0.0000000 0.0000000 0.0000000 field for delta impulse in time
 
 Orbital magnetization related:
   ORBITALMAG=     F  switch on orbital magnetization
   LCHIMAG   =     F  perturbation theory with respect to B field
   DQ        =  0.001000  dq finite difference perturbation B field
   LLRAUG    =     F  two centre corrections for induced B field



--------------------------------------------------------------------------------------------------------


 Static calculation
 charge density and potential will be updated during run
 spin polarized calculation
 Conjugate gradient for all bands (Freysoldt, et al. PRB 79, 241103 (2009))
 preconditioned conjugated gradient                                        
 perform sub-space diagonalisation
    before iterative eigenvector-optimisation
 modified Broyden-mixing scheme, WC =      100.0
 initial mixing is a Kerker type mixing with AMIX =  0.4000 and BMIX =      1.0000
 Hartree-type preconditioning will be used
 using additional bands           31
 real space projection scheme for non local part
 use partial core corrections
 no Harris-corrections to forces 
 use gradient corrections 
 use of overlap-Matrix (Vanderbilt PP)
 Gauss-broadening in eV      SIGMA  =   0.05


--------------------------------------------------------------------------------------------------------


  energy-cutoff  :      600.00
  volume of cell :      405.02
      direct lattice vectors                 reciprocal lattice vectors
     5.606739521  0.000000000  0.000000000     0.178356779  0.101033305  0.007042448
    -2.819389820  4.977143764  0.000000000     0.000000000  0.200918448  0.014903190
     0.036760032 -1.076579332 14.513982773     0.000000000  0.000000000  0.068899076

  length of vectors
     5.606739521  5.720220189 14.553902236     0.205105986  0.201470414  0.068899076


 
 k-points in units of 2pi/SCALE and weight: read from INCAR                         
   0.01486306  0.02516265  0.01905357       0.028
   0.04458919  0.04200153  0.02022731       0.028
   0.07431532  0.05884041  0.02140105       0.028
  -0.07431532 -0.02535401  0.01553235       0.028
  -0.04458919 -0.00851512  0.01670609       0.028
  -0.01486306  0.00832376  0.01787983       0.028
   0.01486306  0.05864905  0.02153744       0.028
   0.04458919  0.07548794  0.02271118       0.028
   0.07431532  0.09232682  0.02388492       0.028
  -0.07431532  0.00813240  0.01801621       0.028
  -0.04458919  0.02497129  0.01918995       0.028
  -0.01486306  0.04181017  0.02036370       0.028
   0.01486306  0.09213546  0.02402130       0.028
   0.04458919  0.10897435  0.02519504       0.028
   0.07431532  0.12581323  0.02636878       0.028
  -0.07431532  0.04161881  0.02050008       0.028
  -0.04458919  0.05845769  0.02167382       0.028
  -0.01486306  0.07529658  0.02284756       0.028
   0.01486306 -0.07529658  0.01160198       0.028
   0.04458919 -0.05845769  0.01277572       0.028
   0.07431532 -0.04161881  0.01394946       0.028
  -0.07431532 -0.12581323  0.00808075       0.028
  -0.04458919 -0.10897435  0.00925449       0.028
  -0.01486306 -0.09213546  0.01042824       0.028
   0.01486306 -0.04181017  0.01408584       0.028
   0.04458919 -0.02497129  0.01525958       0.028
   0.07431532 -0.00813240  0.01643332       0.028
  -0.07431532 -0.09232682  0.01056462       0.028
  -0.04458919 -0.07548794  0.01173836       0.028
  -0.01486306 -0.05864905  0.01291210       0.028
   0.01486306 -0.00832376  0.01656971       0.028
   0.04458919  0.00851512  0.01774345       0.028
   0.07431532  0.02535401  0.01891719       0.028
  -0.07431532 -0.05884041  0.01304848       0.028
  -0.04458919 -0.04200153  0.01422222       0.028
  -0.01486306 -0.02516265  0.01539597       0.028
 
 k-points in reciprocal lattice and weights: read from INCAR                         
   0.08333333  0.08333333  0.25000000       0.028
   0.25000000  0.08333333  0.25000000       0.028
   0.41666667  0.08333333  0.25000000       0.028
  -0.41666667  0.08333333  0.25000000       0.028
  -0.25000000  0.08333333  0.25000000       0.028
  -0.08333333  0.08333333  0.25000000       0.028
   0.08333333  0.25000000  0.25000000       0.028
   0.25000000  0.25000000  0.25000000       0.028
   0.41666667  0.25000000  0.25000000       0.028
  -0.41666667  0.25000000  0.25000000       0.028
  -0.25000000  0.25000000  0.25000000       0.028
  -0.08333333  0.25000000  0.25000000       0.028
   0.08333333  0.41666667  0.25000000       0.028
   0.25000000  0.41666667  0.25000000       0.028
   0.41666667  0.41666667  0.25000000       0.028
  -0.41666667  0.41666667  0.25000000       0.028
  -0.25000000  0.41666667  0.25000000       0.028
  -0.08333333  0.41666667  0.25000000       0.028
   0.08333333 -0.41666667  0.25000000       0.028
   0.25000000 -0.41666667  0.25000000       0.028
   0.41666667 -0.41666667  0.25000000       0.028
  -0.41666667 -0.41666667  0.25000000       0.028
  -0.25000000 -0.41666667  0.25000000       0.028
  -0.08333333 -0.41666667  0.25000000       0.028
   0.08333333 -0.25000000  0.25000000       0.028
   0.25000000 -0.25000000  0.25000000       0.028
   0.41666667 -0.25000000  0.25000000       0.028
  -0.41666667 -0.25000000  0.25000000       0.028
  -0.25000000 -0.25000000  0.25000000       0.028
  -0.08333333 -0.25000000  0.25000000       0.028
   0.08333333 -0.08333333  0.25000000       0.028
   0.25000000 -0.08333333  0.25000000       0.028
   0.41666667 -0.08333333  0.25000000       0.028
  -0.41666667 -0.08333333  0.25000000       0.028
  -0.25000000 -0.08333333  0.25000000       0.028
  -0.08333333 -0.08333333  0.25000000       0.028
 
 position of ions in fractional coordinates (direct lattice) 
   0.47462196  0.97699920  0.00543889
   0.91519365  0.80623752  0.33420667
   0.12878772  0.25859189  0.67252734
   0.12901242  0.73450137  0.67727377
   0.62302979  0.32852170  0.65410854
   0.65634067  0.86490748  0.66159444
   0.18930602  0.37695422  0.16570573
   0.17560681  0.86912427  0.15937182
   0.68996920  0.39196147  0.15301106
   0.69140103  0.87478801  0.16901287
   0.00140881  0.97029005  0.50182367
   0.99650519  0.46560482  0.51540297
   0.51744477  0.98025188  0.50718470
   0.51409058  0.47983130  0.50787646
   0.31439427  0.14968055  0.82755782
   0.30970411  0.64694921  0.83111304
   0.80897377  0.14904675  0.83149197
   0.80155010  0.65273326  0.83669382
   0.05229024  0.07472118  0.22552734
   0.04119734  0.55506103  0.22852790
   0.53235910  0.06758568  0.21821302
   0.55043021  0.53745122  0.22458342
   0.34841151  0.20923623  0.07959359
   0.32644356  0.66411679  0.09603084
   0.83682409  0.18887461  0.09511242
   0.84212615  0.71357942  0.09430561
   0.32552045  0.15109638  0.57075997
   0.33227932  0.62466803  0.58539344
   0.84972161  0.14250827  0.58375089
   0.84055758  0.66691127  0.57278008
   0.16671679  0.30233769  0.44151701
   0.15509266  0.79195841  0.44192833
   0.66503640  0.30027851  0.44358948
   0.68933503  0.80281957  0.44394154
   0.15809249  0.34605412  0.89548541
   0.15867871  0.84136840  0.89921975
   0.65434907  0.34745753  0.89862030
   0.62446413  0.82127157  0.89899241
   0.98426741  0.97478458  0.76269626
   0.96078218  0.45949487  0.76277892
   0.46777609  0.97297749  0.75990580
   0.46387322  0.47840675  0.75758390
 
 position of ions in cartesian coordinates  (Angst):
  -0.09326000  4.85681009  0.07894000
   2.87044001  3.65296006  4.85066986
   0.01773000  0.56301999  9.76105022
  -1.32261002  2.92657995  9.82993984
   2.59098005  0.93089998  9.49372005
   1.26574004  3.59250998  9.60237026
   0.00470000  1.69775999  2.40505004
  -1.45995998  4.15418005  2.31311989
   2.76901007  1.78612006  2.22079992
   1.41635001  4.17198992  2.45304990
  -2.70928001  4.28902006  7.28346014
   4.29336977  1.76250994  7.48054981
   0.15611000  4.33282995  7.36126995
   1.54821002  1.84142005  7.37131023
   1.37114000 -0.14595000 12.01115990
  -0.05702000  2.32520008 12.06276035
   4.14604998 -0.15334000 12.06826019
   2.68453002  2.34798002 12.14375973
   0.09080000  0.12909999  3.27329993
  -1.32554996  2.51659012  3.31684995
   2.80226994  0.10146000  3.16714001
   1.57909000  2.43319011  3.25959992
   1.36645997  0.95570999  1.15522003
  -0.03859000  3.20201993  1.39379001
   4.16283989  0.83766001  1.38046002
   2.71319008  3.45005989  1.36874998
   1.42008996  0.13756000  8.28400040
   0.12334000  2.47884011  8.49639034
   4.38384008  0.08083000  8.47255039
   2.85355997  2.70267010  8.31332016
   0.09856000  1.02945006  6.40817022
  -1.34703004  3.46591997  6.41414022
   2.89839005  1.01697004  6.43825006
   1.61777997  3.51781011  6.44335985
  -0.05636000  0.75830001 12.99705982
  -1.44941998  3.21953011 13.05125999
   2.72217989  0.76191002 13.04255962
   1.21877003  3.11975002 13.04796028
   2.79826999  4.03053999 11.06976032
   4.11940002  1.46578002 11.07096004
  -0.09257000  4.02454996 11.02925968
   1.27985001  1.56550002 10.99555969
 


--------------------------------------------------------------------------------------------------------


 k-point  1 :   0.0833 0.0833 0.2500  plane waves:   13530
 k-point  2 :   0.2500 0.0833 0.2500  plane waves:   13506
 k-point  3 :   0.4167 0.0833 0.2500  plane waves:   13526
 k-point  4 :  -0.4167 0.0833 0.2500  plane waves:   13518
 k-point  5 :  -0.2500 0.0833 0.2500  plane waves:   13517
 k-point  6 :  -0.0833 0.0833 0.2500  plane waves:   13537
 k-point  7 :   0.0833 0.2500 0.2500  plane waves:   13499
 k-point  8 :   0.2500 0.2500 0.2500  plane waves:   13491
 k-point  9 :   0.4167 0.2500 0.2500  plane waves:   13521
 k-point 10 :  -0.4167 0.2500 0.2500  plane waves:   13526
 k-point 11 :  -0.2500 0.2500 0.2500  plane waves:   13537
 k-point 12 :  -0.0833 0.2500 0.2500  plane waves:   13533
 k-point 13 :   0.0833 0.4167 0.2500  plane waves:   13488
 k-point 14 :   0.2500 0.4167 0.2500  plane waves:   13497
 k-point 15 :   0.4167 0.4167 0.2500  plane waves:   13512
 k-point 16 :  -0.4167 0.4167 0.2500  plane waves:   13525
 k-point 17 :  -0.2500 0.4167 0.2500  plane waves:   13499
 k-point 18 :  -0.0833 0.4167 0.2500  plane waves:   13484
 k-point 19 :   0.0833-0.4167 0.2500  plane waves:   13498
 k-point 20 :   0.2500-0.4167 0.2500  plane waves:   13522
 k-point 21 :   0.4167-0.4167 0.2500  plane waves:   13518
 k-point 22 :  -0.4167-0.4167 0.2500  plane waves:   13515
 k-point 23 :  -0.2500-0.4167 0.2500  plane waves:   13506
 k-point 24 :  -0.0833-0.4167 0.2500  plane waves:   13481
 k-point 25 :   0.0833-0.2500 0.2500  plane waves:   13534
 k-point 26 :   0.2500-0.2500 0.2500  plane waves:   13520
 k-point 27 :   0.4167-0.2500 0.2500  plane waves:   13515
 k-point 28 :  -0.4167-0.2500 0.2500  plane waves:   13519
 k-point 29 :  -0.2500-0.2500 0.2500  plane waves:   13510
 k-point 30 :  -0.0833-0.2500 0.2500  plane waves:   13516
 k-point 31 :   0.0833-0.0833 0.2500  plane waves:   13540
 k-point 32 :   0.2500-0.0833 0.2500  plane waves:   13524
 k-point 33 :   0.4167-0.0833 0.2500  plane waves:   13526
 k-point 34 :  -0.4167-0.0833 0.2500  plane waves:   13534
 k-point 35 :  -0.2500-0.0833 0.2500  plane waves:   13521
 k-point 36 :  -0.0833-0.0833 0.2500  plane waves:   13542

 maximum and minimum number of plane-waves per node :      3422     3340

 maximum number of plane-waves:     13542
 maximum index in each direction: 
   IXMAX=   11   IYMAX=   11   IZMAX=   28
   IXMIN=  -11   IYMIN=  -11   IZMIN=  -29


 real space projection operators:
  total allocation   :       7320.73 KBytes
  max/ min on nodes  :       1833.78       1827.48


 parallel 3D FFT for wavefunctions:
    minimum data exchange during FFTs selected (reduces bandwidth)
 parallel 3D FFT for charge:
    minimum data exchange during FFTs selected (reduces bandwidth)


 total amount of memory used by VASP MPI-rank0   162516. kBytes
=======================================================================

   base      :      30000. kBytes
   nonlr-proj:       4190. kBytes
   fftplans  :       1690. kBytes
   grid      :       4644. kBytes
   one-center:        342. kBytes
   wavefun   :     121650. kBytes
 
     INWAV:  cpu time    0.0000: real time    0.0002
 Broyden mixing: mesh for mixing (old mesh)
   NGX = 23   NGY = 23   NGZ = 59
  (NGX  = 72   NGY  = 72   NGZ  =180)
  gives a total of  31211 points

 initial charge density was supplied:
 charge density of overlapping atoms calculated
 number of electron     258.0000000 magnetization       6.0000000
 keeping initial charge density in first step


--------------------------------------------------------------------------------------------------------


 Maximum index for non-local projection operator          670
 Maximum index for augmentation-charges          934 (set IRDMAX)


--------------------------------------------------------------------------------------------------------


 First call to EWALD:  gamma=   0.240
 Maximum number of real-space cells 4x 4x 2
 Maximum number of reciprocal cells 2x 2x 5

    FEWALD:  cpu time    0.0053: real time    0.0056


--------------------------------------- Iteration      1(   1)  ---------------------------------------


    POTLOK:  cpu time    0.1416: real time    0.1738
    SETDIJ:  cpu time    0.0190: real time    0.0202
    TRIAL :  cpu time   25.7124: real time   25.7946
    CORREC:  cpu time    0.0040: real time    0.0040
    --------------------------------------------
      LOOP:  cpu time   26.1093: real time   26.2269

 eigenvalue-minimisations  : 23040
 total energy-change (2. order) : 0.3472567E+04  (-0.1394129E+05)
 number of electron     258.0000000 magnetization       6.0000000
 augmentation part      258.0000000 magnetization       6.0000000

 Free energy of the ion-electron system (eV)
  ---------------------------------------------------
  alpha Z        PSCENC =       723.83160016
  Ewald energy   TEWEN  =    -13300.52873480
  -Hartree energ DENC   =     -7608.56390200
  -exchange      EXHF   =         0.00000000
  -V(xc)+E(xc)   XCENC  =       841.77486816
  PAW double counting   =     17015.18481625   -17491.61297812
  entropy T*S    EENTRO =        -0.00644603
  eigenvalues    EBANDS =      3123.61701422
  atomic energy  EATOM  =     20168.87094289
  ---------------------------------------------------
  free energy    TOTEN  =      3472.56718071 eV

  energy without entropy =     3472.57362675  energy(sigma->0) =     3472.57040373


--------------------------------------------------------------------------------------------------------




--------------------------------------- Iteration      1(   2)  ---------------------------------------


    TRIAL :  cpu time   26.8246: real time   26.8600
    CORREC:  cpu time    0.0043: real time    0.0043
    --------------------------------------------
      LOOP:  cpu time   26.8325: real time   26.8679

 eigenvalue-minimisations  : 24720
 total energy-change (2. order) :-0.3053881E+04  (-0.2820695E+04)
 number of electron     258.0000000 magnetization       6.0000000
 augmentation part      258.0000000 magnetization       6.0000000

 Free energy of the ion-electron system (eV)
  ---------------------------------------------------
  alpha Z        PSCENC =       723.83160016
  Ewald energy   TEWEN  =    -13300.52873480
  -Hartree energ DENC   =     -7608.56390200
  -exchange      EXHF   =         0.00000000
  -V(xc)+E(xc)   XCENC  =       841.77486816
  PAW double counting   =     17015.18481625   -17491.61297812
  entropy T*S    EENTRO =        -0.02247602
  eigenvalues    EBANDS =        69.75155770
  atomic energy  EATOM  =     20168.87094289
  ---------------------------------------------------
  free energy    TOTEN  =       418.68569420 eV

  energy without entropy =      418.70817023  energy(sigma->0) =      418.69693221


--------------------------------------------------------------------------------------------------------




--------------------------------------- Iteration      1(   3)  ---------------------------------------


    TRIAL :  cpu time   27.8168: real time   27.8594
    CORREC:  cpu time    0.0044: real time    0.0044
    --------------------------------------------
      LOOP:  cpu time   27.8253: real time   27.8680

 eigenvalue-minimisations  : 26432
 total energy-change (2. order) :-0.6352010E+03  (-0.5802594E+03)
 number of electron     258.0000000 magnetization       6.0000000
 augmentation part      258.0000000 magnetization       6.0000000

 Free energy of the ion-electron system (eV)
  ---------------------------------------------------
  alpha Z        PSCENC =       723.83160016
  Ewald energy   TEWEN  =    -13300.52873480
  -Hartree energ DENC   =     -7608.56390200
  -exchange      EXHF   =         0.00000000
  -V(xc)+E(xc)   XCENC  =       841.77486816
  PAW double counting   =     17015.18481625   -17491.61297812
  entropy T*S    EENTRO =        -0.02365239
  eigenvalues    EBANDS =      -565.44825607
  atomic energy  EATOM  =     20168.87094289
  ---------------------------------------------------
  free energy    TOTEN  =      -216.51529593 eV

  energy without entropy =     -216.49164354  energy(sigma->0) =     -216.50346974


--------------------------------------------------------------------------------------------------------




--------------------------------------- Iteration      1(   4)  ---------------------------------------


    TRIAL :  cpu time   27.0476: real time   27.0935
    CORREC:  cpu time    0.0042: real time    0.0042
    --------------------------------------------
      LOOP:  cpu time   27.0559: real time   27.1018

 eigenvalue-minimisations  : 25232
 total energy-change (2. order) :-0.5237124E+02  (-0.5117701E+02)
 number of electron     258.0000000 magnetization       6.0000000
 augmentation part      258.0000000 magnetization       6.0000000

 Free energy of the ion-electron system (eV)
  ---------------------------------------------------
  alpha Z        PSCENC =       723.83160016
  Ewald energy   TEWEN  =    -13300.52873480
  -Hartree energ DENC   =     -7608.56390200
  -exchange      EXHF   =         0.00000000
  -V(xc)+E(xc)   XCENC  =       841.77486816
  PAW double counting   =     17015.18481625   -17491.61297812
  entropy T*S    EENTRO =        -0.01769124
  eigenvalues    EBANDS =      -617.82545922
  atomic energy  EATOM  =     20168.87094289
  ---------------------------------------------------
  free energy    TOTEN  =      -268.88653793 eV

  energy without entropy =     -268.86884669  energy(sigma->0) =     -268.87769231


--------------------------------------------------------------------------------------------------------




--------------------------------------- Iteration      1(   5)  ---------------------------------------


    TRIAL :  cpu time   30.4927: real time   30.5493
    CORREC:  cpu time    0.0053: real time    0.0053
    CHARGE:  cpu time    0.4614: real time    0.4618
    --------------------------------------------
      LOOP:  cpu time   30.9636: real time   31.0206

 eigenvalue-minimisations  : 29232
 total energy-change (2. order) :-0.1889065E+01  (-0.1885588E+01)
 number of electron     257.9999981 magnetization       6.0000000
 augmentation part       67.9197046 magnetization       4.2697015

 Free energy of the ion-electron system (eV)
  ---------------------------------------------------
  alpha Z        PSCENC =       723.83160016
  Ewald energy   TEWEN  =    -13300.52873480
  -Hartree energ DENC   =     -7608.56390200
  -exchange      EXHF   =         0.00000000
  -V(xc)+E(xc)   XCENC  =       841.77486816
  PAW double counting   =     17015.18481625   -17491.61297812
  entropy T*S    EENTRO =        -0.01761582
  eigenvalues    EBANDS =      -619.71459954
  atomic energy  EATOM  =     20168.87094289
  ---------------------------------------------------
  free energy    TOTEN  =      -270.77560283 eV

  energy without entropy =     -270.75798701  energy(sigma->0) =     -270.76679492


--------------------------------------------------------------------------------------------------------




--------------------------------------- Iteration      1(   6)  ---------------------------------------


    POTLOK:  cpu time    0.0483: real time    0.0483
    SETDIJ:  cpu time    0.0127: real time    0.0127
    TRIAL :  cpu time   14.4834: real time   14.5073
    CORREC:  cpu time    4.4730: real time    4.4806
    CHARGE:  cpu time    0.4613: real time    0.4619
    --------------------------------------------
      LOOP:  cpu time   19.4828: real time   19.5149

 eigenvalue-minimisations  :     0
 total energy-change (2. order) : 0.4214711E+03  (-0.1404933E+03)
 number of electron     257.9999981 magnetization       6.0000000
 augmentation part       69.7196520 magnetization       4.3770401

 Free energy of the ion-electron system (eV)
  ---------------------------------------------------
  alpha Z        PSCENC =       723.83160016
  Ewald energy   TEWEN  =    -13300.52873480
  -Hartree energ DENC   =     -7464.51810179
  -exchange      EXHF   =         0.00000000
  -V(xc)+E(xc)   XCENC  =       876.66841531
  PAW double counting   =     23564.94257852   -23772.69321145
  entropy T*S    EENTRO =        -0.04433609
  eigenvalues    EBANDS =      -645.86040132
  atomic energy  EATOM  =     20168.87094289
  ---------------------------------------------------
  free energy    TOTEN  =       150.69547169 eV

  energy without entropy =      150.73980779  energy(sigma->0) =      150.71763974


--------------------------------------------------------------------------------------------------------




--------------------------------------- Iteration      1(   7)  ---------------------------------------


    POTLOK:  cpu time    0.0479: real time    0.0481
    SETDIJ:  cpu time    0.0126: real time    0.0126
    TRIAL :  cpu time   14.4576: real time   14.4795
    CORREC:  cpu time    4.7257: real time    4.7350
    CHARGE:  cpu time    0.5448: real time    0.5454
    --------------------------------------------
      LOOP:  cpu time   19.7928: real time   19.8248

 eigenvalue-minimisations  :     0
 total energy-change (2. order) :-0.8332089E+02  (-0.3588853E+03)
 number of electron     257.9999982 magnetization       5.9999997
 augmentation part       69.9874722 magnetization       3.7589146

 Free energy of the ion-electron system (eV)
  ---------------------------------------------------
  alpha Z        PSCENC =       723.83160016
  Ewald energy   TEWEN  =    -13300.52873480
  -Hartree energ DENC   =     -7197.02422741
  -exchange      EXHF   =         0.00000000
  -V(xc)+E(xc)   XCENC  =       868.62175904
  PAW double counting   =     23464.97704742   -23743.70325964
  entropy T*S    EENTRO =        -0.04909596
  eigenvalues    EBANDS =      -917.62620597
  atomic energy  EATOM  =     20168.87094289
  ---------------------------------------------------
  free energy    TOTEN  =        67.37458558 eV

  energy without entropy =       67.42368153  energy(sigma->0) =       67.39913356


--------------------------------------------------------------------------------------------------------




--------------------------------------- Iteration      1(   8)  ---------------------------------------


    POTLOK:  cpu time    0.0481: real time    0.0482
    SETDIJ:  cpu time    0.0126: real time    0.0126
    TRIAL :  cpu time   14.4511: real time   14.4742
    CORREC:  cpu time    5.4864: real time    5.4947
    CHARGE:  cpu time    0.4795: real time    0.4800
    --------------------------------------------
      LOOP:  cpu time   20.4821: real time   20.5140

 eigenvalue-minimisations  :     0
 total energy-change (2. order) : 0.9101975E+03  (-0.1043070E+05)
 number of electron     257.9999981 magnetization       6.0000000
 augmentation part       76.6889519 magnetization       3.0479083

 Free energy of the ion-electron system (eV)
  ---------------------------------------------------
  alpha Z        PSCENC =       723.83160016
  Ewald energy   TEWEN  =    -13300.52873480
  -Hartree energ DENC   =     -7817.94157779
  -exchange      EXHF   =         0.00000000
  -V(xc)+E(xc)   XCENC  =       853.37183977
  PAW double counting   =     24200.63933512   -24550.65292256
  entropy T*S    EENTRO =        -0.01712385
  eigenvalues    EBANDS =       700.03073455
  atomic energy  EATOM  =     20168.87094289
  ---------------------------------------------------
  free energy    TOTEN  =       977.57212139 eV

  energy without entropy =      977.58924524  energy(sigma->0) =      977.58068331


--------------------------------------------------------------------------------------------------------




--------------------------------------- Iteration      1(   9)  ---------------------------------------


    POTLOK:  cpu time    0.0490: real time    0.0490
    SETDIJ:  cpu time    0.0127: real time    0.0127
    TRIAL :  cpu time   14.4966: real time   14.5541
    CORREC:  cpu time    4.4875: real time    4.5036
    CHARGE:  cpu time    0.4645: real time    0.4651
    --------------------------------------------
      LOOP:  cpu time   19.5147: real time   19.5887

 eigenvalue-minimisations  :     0
 total energy-change (2. order) : 0.3790261E+04  (-0.1714726E+04)
 number of electron     257.9999987 magnetization       5.9999998
 augmentation part       70.8563839 magnetization       3.9310561

 Free energy of the ion-electron system (eV)
  ---------------------------------------------------
  alpha Z        PSCENC =       723.83160016
  Ewald energy   TEWEN  =    -13300.52873480
  -Hartree energ DENC   =    -12962.19295368
  -exchange      EXHF   =         0.00000000
  -V(xc)+E(xc)   XCENC  =       889.10114631
  PAW double counting   =     28715.76784234   -29485.86631261
  entropy T*S    EENTRO =        -0.04102406
  eigenvalues    EBANDS =     10018.86695872
  atomic energy  EATOM  =     20168.87094289
  ---------------------------------------------------
  free energy    TOTEN  =      4767.83336548 eV

  energy without entropy =     4767.87438954  energy(sigma->0) =     4767.85387751


--------------------------------------------------------------------------------------------------------




--------------------------------------- Iteration      1(  10)  ---------------------------------------


    POTLOK:  cpu time    0.0561: real time    0.0562
    SETDIJ:  cpu time    0.0130: real time    0.0130
    TRIAL :  cpu time   13.9906: real time   14.0137
    CORREC:  cpu time    4.5772: real time    4.5832
    CHARGE:  cpu time    0.4422: real time    0.4428
    --------------------------------------------
      LOOP:  cpu time   19.0835: real time   19.1137

 eigenvalue-minimisations  :     0
 total energy-change (2. order) :-0.2038027E+04  (-0.1269824E+04)
 number of electron     257.9999989 magnetization       6.0000001
 augmentation part       74.0839045 magnetization       3.1721540

 Free energy of the ion-electron system (eV)
  ---------------------------------------------------
  alpha Z        PSCENC =       723.83160016
  Ewald energy   TEWEN  =    -13300.52873480
  -Hartree energ DENC   =     -8599.09814768
  -exchange      EXHF   =         0.00000000
  -V(xc)+E(xc)   XCENC  =       848.86239585
  PAW double counting   =     30721.81090805   -31212.10094343
  entropy T*S    EENTRO =        -0.01816578
  eigenvalues    EBANDS =      3378.19966312
  atomic energy  EATOM  =     20168.87094289
  ---------------------------------------------------
  free energy    TOTEN  =      2729.80666008 eV

  energy without entropy =     2729.82482586  energy(sigma->0) =     2729.81574297


--------------------------------------------------------------------------------------------------------




--------------------------------------- Iteration      1(  11)  ---------------------------------------


    POTLOK:  cpu time    0.0479: real time    0.0479
    SETDIJ:  cpu time    0.0126: real time    0.0126
    TRIAL :  cpu time   14.0711: real time   14.0934
    CORREC:  cpu time    4.5326: real time    4.5394
    CHARGE:  cpu time    0.4469: real time    0.4474
    --------------------------------------------
      LOOP:  cpu time   19.1151: real time   19.1446

 eigenvalue-minimisations  :     0
 total energy-change (2. order) : 0.4506872E+04  (-0.1348046E+05)
 number of electron     257.9999982 magnetization       5.9999998
 augmentation part       73.3805048 magnetization       2.6161982

 Free energy of the ion-electron system (eV)
  ---------------------------------------------------
  alpha Z        PSCENC =       723.83160016
  Ewald energy   TEWEN  =    -13300.52873480
  -Hartree energ DENC   =    -13240.48099741
  -exchange      EXHF   =         0.00000000
  -V(xc)+E(xc)   XCENC  =       871.77515176
  PAW double counting   =     42023.56501999   -42775.66512918
  entropy T*S    EENTRO =        -0.02092763
  eigenvalues    EBANDS =     12765.32936476
  atomic energy  EATOM  =     20168.87094289
  ---------------------------------------------------
  free energy    TOTEN  =      7236.67905238 eV

  energy without entropy =     7236.69998001  energy(sigma->0) =     7236.68951620


--------------------------------------------------------------------------------------------------------




--------------------------------------- Iteration      1(  12)  ---------------------------------------


    POTLOK:  cpu time    0.0480: real time    0.0480
    SETDIJ:  cpu time    0.0270: real time    0.0276
    TRIAL :  cpu time   14.2996: real time   14.3214
    CORREC:  cpu time    4.4812: real time    4.4883
    CHARGE:  cpu time    0.4456: real time    0.4460
    --------------------------------------------
      LOOP:  cpu time   19.3056: real time   19.3355

 eigenvalue-minimisations  :     0
 total energy-change (2. order) :-0.3957113E+04  (-0.5170152E+04)
 number of electron     257.9999975 magnetization       6.0000000
 augmentation part       71.9988363 magnetization       3.4264376

 Free energy of the ion-electron system (eV)
  ---------------------------------------------------
  alpha Z        PSCENC =       723.83160016
  Ewald energy   TEWEN  =    -13300.52873480
  -Hartree energ DENC   =     -9798.58143594
  -exchange      EXHF   =         0.00000000
  -V(xc)+E(xc)   XCENC  =       824.55245516
  PAW double counting   =     35787.47721898   -36465.10409720
  entropy T*S    EENTRO =        -0.02219569
  eigenvalues    EBANDS =      5339.06905300
  atomic energy  EATOM  =     20168.87094289
  ---------------------------------------------------
  free energy    TOTEN  =      3279.56607460 eV

  energy without entropy =     3279.58827029  energy(sigma->0) =     3279.57717244


--------------------------------------------------------------------------------------------------------




--------------------------------------- Iteration      1(  13)  ---------------------------------------


    POTLOK:  cpu time    0.0478: real time    0.0479
    SETDIJ:  cpu time    0.0126: real time    0.0127
    TRIAL :  cpu time   14.3178: real time   14.3396
    CORREC:  cpu time    4.5199: real time    4.5264
    CHARGE:  cpu time    0.5729: real time    0.5736
    --------------------------------------------
      LOOP:  cpu time   19.4754: real time   19.5051

 eigenvalue-minimisations  :     0
 total energy-change (2. order) :-0.3316044E+03  (-0.5588112E+04)
 number of electron     257.9999975 magnetization       6.0000000
 augmentation part       80.2743430 magnetization       3.0369387

 Free energy of the ion-electron system (eV)
  ---------------------------------------------------
  alpha Z        PSCENC =       723.83160016
  Ewald energy   TEWEN  =    -13300.52873480
  -Hartree energ DENC   =     -8074.89390565
  -exchange      EXHF   =         0.00000000
  -V(xc)+E(xc)   XCENC  =       827.39844095
  PAW double counting   =     40501.08040428   -41196.73145848
  entropy T*S    EENTRO =        -0.01587798
  eigenvalues    EBANDS =      3298.95656169
  atomic energy  EATOM  =     20168.87094289
  ---------------------------------------------------
  free energy    TOTEN  =      2947.96165534 eV

  energy without entropy =     2947.97753333  energy(sigma->0) =     2947.96959433


--------------------------------------------------------------------------------------------------------




--------------------------------------- Iteration      1(  14)  ---------------------------------------


    POTLOK:  cpu time    0.0477: real time    0.0489
    SETDIJ:  cpu time    0.0127: real time    0.0128
    TRIAL :  cpu time   13.8527: real time   14.0050
    CORREC:  cpu time    4.6828: real time    4.6889
    CHARGE:  cpu time    0.4651: real time    0.4655
    --------------------------------------------
      LOOP:  cpu time   19.0617: real time   19.2268

 eigenvalue-minimisations  :     0
 total energy-change (2. order) :-0.1624746E+04  (-0.1328396E+04)
 number of electron     257.9999976 magnetization       6.0000000
 augmentation part       78.7049302 magnetization       2.9026067

 Free energy of the ion-electron system (eV)
  ---------------------------------------------------
  alpha Z        PSCENC =       723.83160016
  Ewald energy   TEWEN  =    -13300.52873480
  -Hartree energ DENC   =     -8102.46448141
  -exchange      EXHF   =         0.00000000
  -V(xc)+E(xc)   XCENC  =       821.27394695
  PAW double counting   =     37070.99377029   -37861.42866988
  entropy T*S    EENTRO =        -0.01535372
  eigenvalues    EBANDS =      1802.68312878
  atomic energy  EATOM  =     20168.87094289
  ---------------------------------------------------
  free energy    TOTEN  =      1323.21562499 eV

  energy without entropy =     1323.23097871  energy(sigma->0) =     1323.22330185


--------------------------------------------------------------------------------------------------------




--------------------------------------- Iteration      1(  15)  ---------------------------------------


    POTLOK:  cpu time    0.0478: real time    0.0497
    SETDIJ:  cpu time    0.0126: real time    0.0132
    TRIAL :  cpu time   14.0515: real time   14.2056
    CORREC:  cpu time    4.5710: real time    4.5781
    CHARGE:  cpu time    0.4457: real time    0.4462
    --------------------------------------------
      LOOP:  cpu time   19.1293: real time   19.2983

 eigenvalue-minimisations  :     0
 total energy-change (2. order) :-0.4045149E+03  (-0.6504091E+03)
 number of electron     257.9999979 magnetization       6.0000000
 augmentation part       78.8084555 magnetization       3.3362471

 Free energy of the ion-electron system (eV)
  ---------------------------------------------------
  alpha Z        PSCENC =       723.83160016
  Ewald energy   TEWEN  =    -13300.52873480
  -Hartree energ DENC   =     -6917.70318748
  -exchange      EXHF   =         0.00000000
  -V(xc)+E(xc)   XCENC  =       819.09576759
  PAW double counting   =     36010.76666075   -36717.80499213
  entropy T*S    EENTRO =        -0.01736108
  eigenvalues    EBANDS =       132.18802899
  atomic energy  EATOM  =     20168.87094289
  ---------------------------------------------------
  free energy    TOTEN  =       918.70073224 eV

  energy without entropy =      918.71809333  energy(sigma->0) =      918.70941278


--------------------------------------------------------------------------------------------------------




--------------------------------------- Iteration      1(  16)  ---------------------------------------


    POTLOK:  cpu time    0.0475: real time    0.0476
    SETDIJ:  cpu time    0.0126: real time    0.0126
    TRIAL :  cpu time   14.0937: real time   14.1240
    CORREC:  cpu time    4.4964: real time    4.5045
    CHARGE:  cpu time    0.4485: real time    0.4493
    --------------------------------------------
      LOOP:  cpu time   19.1029: real time   19.1423

 eigenvalue-minimisations  :     0
 total energy-change (2. order) :-0.5508454E+03  (-0.7642271E+02)
 number of electron     257.9999979 magnetization       6.0000000
 augmentation part       77.7961824 magnetization       3.3389342

 Free energy of the ion-electron system (eV)
  ---------------------------------------------------
  alpha Z        PSCENC =       723.83160016
  Ewald energy   TEWEN  =    -13300.52873480
  -Hartree energ DENC   =     -7273.01086736
  -exchange      EXHF   =         0.00000000
  -V(xc)+E(xc)   XCENC  =       830.69032375
  PAW double counting   =     31865.86330176   -32534.68199397
  entropy T*S    EENTRO =        -0.01529353
  eigenvalues    EBANDS =      -113.16185290
  atomic energy  EATOM  =     20168.87094289
  ---------------------------------------------------
  free energy    TOTEN  =       367.85535843 eV

  energy without entropy =      367.87065196  energy(sigma->0) =      367.86300519


--------------------------------------------------------------------------------------------------------




--------------------------------------- Iteration      1(  17)  ---------------------------------------


    POTLOK:  cpu time    0.0475: real time    0.0476
    SETDIJ:  cpu time    0.0126: real time    0.0126
    TRIAL :  cpu time   14.1987: real time   14.2361
    CORREC:  cpu time    4.4980: real time    4.5185
    CHARGE:  cpu time    0.5252: real time    0.5258
    --------------------------------------------
      LOOP:  cpu time   19.2863: real time   19.3449

 eigenvalue-minimisations  :     0
 total energy-change (2. order) :-0.6713808E+02  (-0.2367844E+03)
 number of electron     257.9999979 magnetization       6.0000000
 augmentation part       74.5533243 magnetization       3.9637601

 Free energy of the ion-electron system (eV)
  ---------------------------------------------------
  alpha Z        PSCENC =       723.83160016
  Ewald energy   TEWEN  =    -13300.52873480
  -Hartree energ DENC   =     -7141.23014891
  -exchange      EXHF   =         0.00000000
  -V(xc)+E(xc)   XCENC  =       833.76688820
  PAW double counting   =     30618.50253522   -31243.58280129
  entropy T*S    EENTRO =        -0.01640690
  eigenvalues    EBANDS =      -358.89771060
  atomic energy  EATOM  =     20168.87094289
  ---------------------------------------------------
  free energy    TOTEN  =       300.71727733 eV

  energy without entropy =      300.73368423  energy(sigma->0) =      300.72548078


--------------------------------------------------------------------------------------------------------




--------------------------------------- Iteration      1(  18)  ---------------------------------------


    POTLOK:  cpu time    0.0483: real time    0.0483
    SETDIJ:  cpu time    0.0127: real time    0.0127
    TRIAL :  cpu time   14.1990: real time   14.2624
    CORREC:  cpu time    4.4889: real time    4.4986
    CHARGE:  cpu time    0.4417: real time    0.4451
    --------------------------------------------
      LOOP:  cpu time   19.1949: real time   19.2714

 eigenvalue-minimisations  :     0
 total energy-change (2. order) :-0.2368711E+03  (-0.7374438E+02)
 number of electron     257.9999979 magnetization       6.0000000
 augmentation part       75.0800859 magnetization       4.0280220

 Free energy of the ion-electron system (eV)
  ---------------------------------------------------
  alpha Z        PSCENC =       723.83160016
  Ewald energy   TEWEN  =    -13300.52873480
  -Hartree energ DENC   =     -7400.85110860
  -exchange      EXHF   =         0.00000000
  -V(xc)+E(xc)   XCENC  =       846.95937607
  PAW double counting   =     26189.94501308   -26655.49996429
  entropy T*S    EENTRO =        -0.01802220
  eigenvalues    EBANDS =      -508.86453523
  atomic energy  EATOM  =     20168.87094289
  ---------------------------------------------------
  free energy    TOTEN  =        63.84618237 eV

  energy without entropy =       63.86420457  energy(sigma->0) =       63.85519347


--------------------------------------------------------------------------------------------------------




--------------------------------------- Iteration      1(  19)  ---------------------------------------


    POTLOK:  cpu time    0.0480: real time    0.0480
    SETDIJ:  cpu time    0.0126: real time    0.0126
    TRIAL :  cpu time   14.4550: real time   14.5087
    CORREC:  cpu time    4.5592: real time    4.5732
    CHARGE:  cpu time    0.4432: real time    0.4442
    --------------------------------------------
      LOOP:  cpu time   19.5223: real time   19.5916

 eigenvalue-minimisations  :     0
 total energy-change (2. order) :-0.6799894E+02  (-0.4670697E+02)
 number of electron     257.9999980 magnetization       6.0000000
 augmentation part       76.1265038 magnetization       4.2229247

 Free energy of the ion-electron system (eV)
  ---------------------------------------------------
  alpha Z        PSCENC =       723.83160016
  Ewald energy   TEWEN  =    -13300.52873480
  -Hartree energ DENC   =     -7406.72658587
  -exchange      EXHF   =         0.00000000
  -V(xc)+E(xc)   XCENC  =       849.37622853
  PAW double counting   =     25839.12327426   -26310.18183999
  entropy T*S    EENTRO =        -0.01961263
  eigenvalues    EBANDS =      -567.89962159
  atomic energy  EATOM  =     20168.87094289
  ---------------------------------------------------
  free energy    TOTEN  =        -4.15275861 eV

  energy without entropy =       -4.13314598  energy(sigma->0) =       -4.14295230


--------------------------------------------------------------------------------------------------------




--------------------------------------- Iteration      1(  20)  ---------------------------------------


    POTLOK:  cpu time    0.0478: real time    0.0478
    SETDIJ:  cpu time    0.0126: real time    0.0126
    TRIAL :  cpu time   14.2053: real time   14.2486
    CORREC:  cpu time    4.6281: real time    4.6399
    CHARGE:  cpu time    0.4442: real time    0.4446
    --------------------------------------------
      LOOP:  cpu time   19.3424: real time   19.3979

 eigenvalue-minimisations  :     0
 total energy-change (2. order) :-0.5293472E+02  (-0.3628498E+02)
 number of electron     257.9999980 magnetization       6.0000000
 augmentation part       77.1281638 magnetization       4.3307370

 Free energy of the ion-electron system (eV)
  ---------------------------------------------------
  alpha Z        PSCENC =       723.83160016
  Ewald energy   TEWEN  =    -13300.52873480
  -Hartree energ DENC   =     -7573.06885119
  -exchange      EXHF   =         0.00000000
  -V(xc)+E(xc)   XCENC  =       850.58261784
  PAW double counting   =     25651.27585662   -26149.49981034
  entropy T*S    EENTRO =        -0.01898178
  eigenvalues    EBANDS =      -428.53148467
  atomic energy  EATOM  =     20168.87094289
  ---------------------------------------------------
  free energy    TOTEN  =       -57.08747612 eV

  energy without entropy =      -57.06849435  energy(sigma->0) =      -57.07798523


--------------------------------------------------------------------------------------------------------




--------------------------------------- Iteration      1(  21)  ---------------------------------------


    POTLOK:  cpu time    0.0480: real time    0.0480
    SETDIJ:  cpu time    0.0126: real time    0.0126
    TRIAL :  cpu time   13.9382: real time   13.9943
    CORREC:  cpu time    4.5763: real time    4.5905
    CHARGE:  cpu time    0.6042: real time    0.6047
    --------------------------------------------
      LOOP:  cpu time   19.1838: real time   19.2553

 eigenvalue-minimisations  :     0
 total energy-change (2. order) :-0.3584325E+02  (-0.3861821E+02)
 number of electron     257.9999981 magnetization       6.0000000
 augmentation part       77.7914040 magnetization       4.4169141

 Free energy of the ion-electron system (eV)
  ---------------------------------------------------
  alpha Z        PSCENC =       723.83160016
  Ewald energy   TEWEN  =    -13300.52873480
  -Hartree energ DENC   =     -7575.21879896
  -exchange      EXHF   =         0.00000000
  -V(xc)+E(xc)   XCENC  =       850.79639978
  PAW double counting   =     25472.52340120   -26004.38832667
  entropy T*S    EENTRO =        -0.01929324
  eigenvalues    EBANDS =      -428.79822944
  atomic energy  EATOM  =     20168.87094289
  ---------------------------------------------------
  free energy    TOTEN  =       -92.93072763 eV

  energy without entropy =      -92.91143438  energy(sigma->0) =      -92.92108100


--------------------------------------------------------------------------------------------------------




--------------------------------------- Iteration      1(  22)  ---------------------------------------


    POTLOK:  cpu time    0.0478: real time    0.0481
    SETDIJ:  cpu time    0.0128: real time    0.0128
    TRIAL :  cpu time   13.8738: real time   14.0990
    CORREC:  cpu time    4.6420: real time    4.6597
    CHARGE:  cpu time    0.4462: real time    0.4473
    --------------------------------------------
      LOOP:  cpu time   19.0269: real time   19.2717

 eigenvalue-minimisations  :     0
 total energy-change (2. order) :-0.3675201E+02  (-0.2383588E+02)
 number of electron     257.9999982 magnetization       5.9999999
 augmentation part       76.7726814 magnetization       4.5213707

 Free energy of the ion-electron system (eV)
  ---------------------------------------------------
  alpha Z        PSCENC =       723.83160016
  Ewald energy   TEWEN  =    -13300.52873480
  -Hartree energ DENC   =     -7637.34411352
  -exchange      EXHF   =         0.00000000
  -V(xc)+E(xc)   XCENC  =       848.73288875
  PAW double counting   =     25158.58291017   -25716.32290302
  entropy T*S    EENTRO =        -0.01852760
  eigenvalues    EBANDS =      -375.48603384
  atomic energy  EATOM  =     20168.87094289
  ---------------------------------------------------
  free energy    TOTEN  =      -129.68273645 eV

  energy without entropy =     -129.66420885  energy(sigma->0) =     -129.67347265


--------------------------------------------------------------------------------------------------------




--------------------------------------- Iteration      1(  23)  ---------------------------------------


    POTLOK:  cpu time    0.0476: real time    0.0476
    SETDIJ:  cpu time    0.0126: real time    0.0126
    TRIAL :  cpu time   13.9903: real time   14.0318
    CORREC:  cpu time    4.4584: real time    4.4685
    CHARGE:  cpu time    0.4474: real time    0.4486
    --------------------------------------------
      LOOP:  cpu time   18.9604: real time   19.0133

 eigenvalue-minimisations  :     0
 total energy-change (2. order) :-0.2388409E+02  (-0.1323566E+02)
 number of electron     257.9999982 magnetization       5.9999999
 augmentation part       76.0881550 magnetization       4.5988515

 Free energy of the ion-electron system (eV)
  ---------------------------------------------------
  alpha Z        PSCENC =       723.83160016
  Ewald energy   TEWEN  =    -13300.52873480
  -Hartree energ DENC   =     -7543.63579341
  -exchange      EXHF   =         0.00000000
  -V(xc)+E(xc)   XCENC  =       846.39400188
  PAW double counting   =     24585.58809576   -25103.65756633
  entropy T*S    EENTRO =        -0.01740146
  eigenvalues    EBANDS =      -530.41084405
  atomic energy  EATOM  =     20168.87094289
  ---------------------------------------------------
  free energy    TOTEN  =      -153.56682552 eV

  energy without entropy =     -153.54942406  energy(sigma->0) =     -153.55812479


--------------------------------------------------------------------------------------------------------




--------------------------------------- Iteration      1(  24)  ---------------------------------------


    POTLOK:  cpu time    0.0477: real time    0.0478
    SETDIJ:  cpu time    0.0127: real time    0.0127
    TRIAL :  cpu time   14.2254: real time   14.2891
    CORREC:  cpu time    4.7083: real time    4.7194
    CHARGE:  cpu time    0.4424: real time    0.4451
    --------------------------------------------
      LOOP:  cpu time   19.4410: real time   19.5185

 eigenvalue-minimisations  :     0
 total energy-change (2. order) :-0.1358268E+02  (-0.1346451E+02)
 number of electron     257.9999981 magnetization       5.9999999
 augmentation part       75.5219475 magnetization       4.7165493

 Free energy of the ion-electron system (eV)
  ---------------------------------------------------
  alpha Z        PSCENC =       723.83160016
  Ewald energy   TEWEN  =    -13300.52873480
  -Hartree energ DENC   =     -7491.11642424
  -exchange      EXHF   =         0.00000000
  -V(xc)+E(xc)   XCENC  =       845.76991568
  PAW double counting   =     24314.71405629   -24805.01385502
  entropy T*S    EENTRO =        -0.01916113
  eigenvalues    EBANDS =      -623.65960252
  atomic energy  EATOM  =     20168.87094289
  ---------------------------------------------------
  free energy    TOTEN  =      -167.14950303 eV

  energy without entropy =     -167.13034190  energy(sigma->0) =     -167.13992246


--------------------------------------------------------------------------------------------------------




--------------------------------------- Iteration      1(  25)  ---------------------------------------


    POTLOK:  cpu time    0.0477: real time    0.0478
    SETDIJ:  cpu time    0.0126: real time    0.0126
    TRIAL :  cpu time   14.0898: real time   14.1597
    CORREC:  cpu time    4.5286: real time    4.5432
    CHARGE:  cpu time    0.6871: real time    0.6881
    --------------------------------------------
      LOOP:  cpu time   19.3700: real time   19.4555

 eigenvalue-minimisations  :     0
 total energy-change (2. order) :-0.1326813E+02  (-0.7843838E+01)
 number of electron     257.9999981 magnetization       6.0000000
[...]
   20        1.577   3.370   0.000   4.947
   21        1.579   3.366   0.000   4.945
   22        1.579   3.416   0.000   4.995
   23        1.580   3.315   0.000   4.895
   24        1.577   3.373   0.000   4.950
   25        1.579   3.350   0.000   4.929
   26        1.584   3.384   0.000   4.968
   27        1.557   3.485   0.000   5.042
   28        1.555   3.456   0.000   5.011
   29        1.554   3.500   0.000   5.054
   30        1.557   3.496   0.000   5.053
   31        1.578   3.345   0.000   4.923
   32        1.570   3.382   0.000   4.952
   33        1.577   3.371   0.000   4.948
   34        1.568   3.464   0.000   5.032
   35        1.583   3.343   0.000   4.926
   36        1.572   3.378   0.000   4.949
   37        1.580   3.356   0.000   4.936
   38        1.575   3.401   0.000   4.975
   39        1.558   3.465   0.000   5.024
   40        1.560   3.456   0.000   5.016
   41        1.557   3.474   0.000   5.030
   42        1.560   3.450   0.000   5.010
--------------------------------------------------
tot         43.550  91.265  87.511 222.327
 


 magnetization (x)
 
# of ion       s       p       d       tot
------------------------------------------
    1        0.001  -0.003   0.000  -0.002
    2       -0.000  -0.001   0.000  -0.001
    3        0.001  -0.001   0.000  -0.000
    4        0.000  -0.001   0.000  -0.001
    5       -0.000  -0.001   0.000  -0.001
    6        0.000   0.000   0.000   0.000
    7        0.012   0.016   1.303   1.330
    8        0.007   0.010   0.002   0.018
    9        0.014   0.019   1.336   1.370
   10        0.016   0.022   1.492   1.530
   11        0.010   0.007   1.183   1.200
   12        0.001   0.001  -0.037  -0.034
   13        0.002  -0.000   0.003   0.005
   14        0.002   0.001  -0.106  -0.104
   15        0.004   0.006  -0.029  -0.019
   16        0.004   0.006  -0.069  -0.059
   17        0.014   0.015   1.672   1.701
   18        0.014   0.013   1.748   1.775
   19        0.001  -0.095   0.000  -0.094
   20        0.001  -0.114   0.000  -0.113
   21        0.001  -0.131   0.000  -0.131
   22        0.002  -0.117   0.000  -0.115
   23        0.000  -0.161   0.000  -0.161
   24        0.000  -0.154   0.000  -0.153
   25       -0.000  -0.226   0.000  -0.226
   26        0.002  -0.099   0.000  -0.097
   27        0.000  -0.015   0.000  -0.015
   28       -0.001  -0.042   0.000  -0.043
   29        0.001  -0.014   0.000  -0.013
   30        0.001  -0.025   0.000  -0.024
   31       -0.000  -0.094   0.000  -0.094
   32        0.000  -0.057   0.000  -0.056
   33       -0.002  -0.074   0.000  -0.076
   34        0.000  -0.003   0.000  -0.003
   35        0.000  -0.191   0.000  -0.191
   36        0.001  -0.102   0.000  -0.101
   37        0.000  -0.232   0.000  -0.231
   38        0.001  -0.174   0.000  -0.173
   39        0.001  -0.082   0.000  -0.081
   40        0.002  -0.098   0.000  -0.096
   41        0.001  -0.025   0.000  -0.023
   42        0.001  -0.051   0.000  -0.050
--------------------------------------------------
tot          0.116  -2.269   8.497   6.344
 
    FORLOC:  cpu time    0.0082: real time    0.0082
    FORNL :  cpu time    4.7003: real time    4.7258
    STRESS:  cpu time   14.0167: real time   14.0649
    FORCOR:  cpu time    0.0514: real time    0.0516
    OFIELD:  cpu time    0.0005: real time    0.0005

  DFT-D2 method for vdW energy calculation
  -------------------------------------------------------------------

  Parameters of vdW forcefield:
         C6(Jnm^6/mol)     R0(A)
   -----------------------------
   Li       1.610          0.825
   Co      10.800          1.562
   O        0.700          1.342

  IVDW =   1
  VDW_RADIUS =    50.000 A
  VDW_S6 =     0.750
  VDW_SR =     1.000
  VDW_D =    20.000
  LVDW_EWALD = F

  Number of pair interactions contributing to vdW energy: 1167556
  Edisp (eV):   -9.48334
    FORVDW:  cpu time    0.1746: real time    0.1756

  FORCE on cell =-STRESS in cart. coord.  units (eV):
  Direction    XX          YY          ZZ          XY          YZ          ZX
  --------------------------------------------------------------------------------------
  Alpha Z   723.83160   723.83160   723.83160
  Ewald    -984.95653 -1099.12499-11216.51513   -58.15232   153.59351   -30.89458
  Hartree  5111.58190  5074.26845 -2615.68384   -23.13267    66.14060   -14.72398
  E(xc)   -1284.19605 -1284.12014 -1285.89539    -0.34146     0.11599    -0.12502
  Local   -9048.28251 -8901.27902  8859.31563    70.74735  -215.64660    42.58185
  n-local  -589.05387  -597.14165  -602.58144    -1.91634     4.01141    -0.91807
  augment  2018.59704  2022.01603  2006.20273     6.80514    -1.22389     2.04630
  Kinetic  4062.34515  4057.34768  4141.34860     7.17914    -1.43689    -0.68165
  Fock        0.00000     0.00000     0.00000     0.00000     0.00000     0.00000
  vdW        -5.83132    -6.52865   -12.17008    -0.12777     0.25335     0.13161
  -------------------------------------------------------------------------------------
  Total       4.03542   -10.73070    -2.14731     1.06108     5.80748    -2.58354
  in kB      15.96326   -42.44843    -8.49431     4.19741    22.97319   -10.21995
  external pressure =      -11.66 kB  Pullay stress =        0.00 kB


 VOLUME and BASIS-vectors are now :
 -----------------------------------------------------------------------------
  energy-cutoff  :      600.00
  volume of cell :      405.02
      direct lattice vectors                 reciprocal lattice vectors
     5.606739521  0.000000000  0.000000000     0.178356779  0.101033305  0.007042448
    -2.819389820  4.977143764  0.000000000     0.000000000  0.200918448  0.014903190
     0.036760032 -1.076579332 14.513982773     0.000000000  0.000000000  0.068899076

  length of vectors
     5.606739521  5.720220189 14.553902236     0.205105986  0.201470414  0.068899076


 FORCES acting on ions:
    Electron-Ion                     Ewald-Force                    Non-Local-Force
 -----------------------------------------------------------------------------------------------
   -.246E+01 -.490E-01 -.303E+01   0.220E+01 -.120E+00 0.295E+01   0.219E+00 0.646E-01 -.264E+00
   -.517E+00 0.121E+01 0.105E+02   0.663E+00 -.128E+01 -.995E+01   0.117E+00 -.177E+00 -.746E+00
   -.230E+01 -.124E+01 0.451E+01   0.230E+01 0.129E+01 -.491E+01   0.473E+00 0.592E+00 0.398E+00
   0.370E+01 -.500E+01 0.122E+02   -.332E+01 0.485E+01 -.123E+02   -.400E+00 0.798E+00 -.318E+00
   -.489E+01 0.564E-01 -.913E+01   0.426E+01 -.223E+00 0.908E+01   0.966E+00 0.248E+00 0.876E+00
   -.224E+01 0.304E+01 -.488E+01   0.180E+01 -.314E+01 0.440E+01   0.628E+00 -.807E+00 0.924E+00
   -.624E+01 0.106E+02 -.132E+03   0.649E+01 -.110E+02 0.130E+03   0.528E+00 -.178E+00 -.214E+00
   -.427E+02 -.243E+02 -.785E+02   0.447E+02 0.250E+02 0.781E+02   0.157E+00 0.601E+00 -.712E+00
   -.465E+02 0.391E+02 -.304E+02   0.482E+02 -.419E+02 0.292E+02   0.569E+00 -.785E-01 -.734E-01
   0.483E+02 -.100E+02 -.178E+03   -.495E+02 0.114E+02 0.176E+03   0.141E+00 -.393E+00 0.172E+00
   -.271E+02 -.414E+02 0.226E+03   0.293E+02 0.436E+02 -.225E+03   -.600E+00 -.171E-02 0.941E+00
   -.160E+02 -.208E+02 0.158E+03   0.178E+02 0.216E+02 -.162E+03   -.843E+00 0.311E-01 0.142E+01
   0.319E+02 0.487E+02 0.195E+03   -.340E+02 -.487E+02 -.198E+03   0.163E+00 -.116E+01 0.261E+01
   0.414E+02 0.621E+01 0.214E+03   -.440E+02 -.750E+01 -.216E+03   0.161E-01 0.135E+00 0.139E+01
   -.731E+00 -.112E+02 -.878E+02   0.250E+00 0.114E+02 0.904E+02   -.342E-02 0.121E+01 -.582E+00
   0.396E+02 -.181E+02 -.691E+02   -.407E+02 0.178E+02 0.707E+02   -.732E+00 0.755E+00 -.207E+01
   -.510E+01 0.208E+02 -.120E+03   0.497E+01 -.200E+02 0.121E+03   0.910E-01 -.311E+00 -.198E+00
   -.208E+02 -.279E+02 -.106E+03   0.216E+02 0.282E+02 0.108E+03   0.254E+00 0.348E+00 -.189E+01
   -.671E+00 0.413E+01 -.397E+03   0.249E+01 -.275E+01 0.418E+03   -.272E+01 -.280E+01 -.204E+02
   0.121E+02 -.478E+01 -.402E+03   -.149E+02 0.400E+01 0.425E+03   0.127E+01 0.130E+01 -.231E+02
   0.901E+01 -.131E+01 -.375E+03   -.122E+02 0.480E+01 0.397E+03   0.285E+01 -.387E+01 -.216E+02
   0.333E+02 -.102E+02 -.420E+03   -.374E+02 0.879E+01 0.445E+03   0.168E+01 0.300E+01 -.230E+02
   0.103E+02 0.291E+02 0.247E+03   -.155E+02 -.285E+02 -.266E+03   0.546E+01 -.110E+01 0.214E+02
   -.481E+01 -.325E+02 0.253E+03   0.698E+01 0.324E+02 -.274E+03   -.184E+01 0.173E+01 0.217E+02
   -.108E+02 0.146E+02 0.254E+03   0.156E+02 -.157E+02 -.275E+03   -.434E+01 0.127E+01 0.204E+02
   -.309E+01 -.134E+02 0.286E+03   0.222E+01 0.155E+02 -.313E+03   0.134E+01 -.273E+01 0.266E+02
   -.309E+02 0.140E+02 -.197E+03   0.301E+02 -.149E+02 0.209E+03   0.222E+01 0.925E+00 -.113E+02
   0.881E+01 -.428E+02 -.183E+03   -.729E+01 0.432E+02 0.195E+03   -.168E+01 0.118E+01 -.118E+02
   0.193E+02 -.151E+00 -.209E+03   -.175E+02 0.835E+00 0.221E+03   -.284E+01 -.224E+00 -.124E+02
   -.220E+02 -.215E+01 -.228E+03   0.222E+02 0.591E+01 0.242E+03   0.841E+00 -.419E+01 -.121E+02
   0.560E+01 -.252E+02 0.458E+03   -.621E+01 0.283E+02 -.481E+03   0.446E+00 -.383E+01 0.232E+02
   -.620E+02 0.237E+02 0.441E+03   0.689E+02 -.287E+02 -.460E+03   -.615E+01 0.473E+01 0.189E+02
   -.105E+02 0.207E+02 0.469E+03   0.115E+02 -.211E+02 -.494E+03   -.267E+00 0.556E-01 0.253E+02
   0.695E+02 0.202E+02 0.473E+03   -.776E+02 -.249E+02 -.494E+03   0.615E+01 0.388E+01 0.195E+02
   0.541E+01 0.294E+02 -.392E+03   -.415E+01 -.314E+02 0.417E+03   -.135E+01 0.773E+00 -.252E+02
   0.154E+02 -.846E+00 -.378E+03   -.169E+02 0.727E+00 0.398E+03   0.181E+01 0.326E-01 -.205E+02
   -.124E+02 0.142E+02 -.383E+03   0.119E+02 -.157E+02 0.407E+03   0.622E+00 0.220E+00 -.239E+02
   -.238E+02 -.352E+02 -.393E+03   0.260E+02 0.360E+02 0.415E+03   -.138E+01 0.617E+00 -.218E+02
   0.153E+02 0.301E+02 0.259E+03   -.157E+02 -.336E+02 -.272E+03   -.871E+00 0.263E+01 0.134E+02
   0.232E+02 -.127E+02 0.260E+03   -.248E+02 0.127E+02 -.272E+03   0.150E+01 0.331E+00 0.117E+02
   -.948E+01 0.519E+01 0.274E+03   0.990E+01 -.640E+01 -.288E+03   0.226E+00 0.848E+00 0.134E+02
   -.285E+02 0.224E+01 0.276E+03   0.294E+02 -.103E+01 -.290E+03   0.105E+00 -.184E+01 0.145E+02
 -----------------------------------------------------------------------------------------------
   -.479E+01 -.462E+01 -.443E+01   0.128E-12 0.329E-13 0.568E-12   0.483E+01 0.463E+01 0.447E+01
 
 
 POSITION                                       TOTAL-FORCE (eV/Angst)
 -----------------------------------------------------------------------------------
     -0.09326      4.85681      0.07894        -0.075510     -0.029406     -0.280941
      2.87044      3.65296      4.85067         0.229425     -0.298502     -0.407720
      0.01773      0.56302      9.76105         0.307298      0.565126     -0.100709
     -1.32261      2.92658      9.82994         0.009613      0.522775     -0.313338
      2.59098      0.93090      9.49372         0.319069     -0.079704      0.710852
      1.26574      3.59251      9.60237         0.152132     -0.788171      0.289539
      0.00470      1.69776      2.40505         0.641452     -0.384308     -2.039594
     -1.45996      4.15418      2.31312         1.919719      1.123578     -0.989438
      2.76901      1.78612      2.22080         1.859347     -2.647202     -1.084979
      1.41635      4.17199      2.45305        -0.915175      0.948257     -1.667154
     -2.70928      4.28902      7.28346         1.543866      1.862297      1.829932
      4.29337      1.76251      7.48055         0.804561      0.725724     -2.094651
      0.15611      4.33283      7.36127        -1.717330     -0.884272     -0.369899
      1.54821      1.84142      7.37131        -2.232675     -1.074826     -1.122264
      1.37114     -0.14595     12.01116        -0.461218      1.271559      1.650449
     -0.05702      2.32520     12.06276        -1.529005      0.401859     -0.532892
      4.14605     -0.15334     12.06826        -0.029274      0.608996      0.883897
      2.68453      2.34798     12.14376         0.969110      0.497784     -0.402531
      0.09080      0.12910      3.27330        -0.907538     -1.382170      1.070753
     -1.32555      2.51659      3.31685        -1.562313      0.557337      0.187851
      2.80227      0.10146      3.16714        -0.338187     -0.399349      0.474525
      1.57909      2.43319      3.25960        -2.426228      1.598188      1.842058
      1.36646      0.95571      1.15522         0.228089     -0.426020      1.921577
     -0.03859      3.20202      1.39379         0.316793      1.632920      0.341618
      4.16284      0.83766      1.38046         0.510650      0.205991      0.291861
      2.71319      3.45006      1.36875         0.476278     -0.674867      0.004254
      1.42009      0.13756      8.28400         1.498658     -0.094070      0.881657
      0.12334      2.47884      8.49639        -0.142921      1.457539     -0.260527
      4.38384      0.08083      8.47255        -1.149101      0.496460     -0.518194
      2.85356      2.70267      8.31332         1.018700     -0.391378      2.185901
      0.09856      1.02945      6.40817        -0.159445     -0.762865      0.473908
     -1.34703      3.46592      6.41414         0.793907     -0.284029      0.028176
      2.89839      1.01697      6.43825         0.789990     -0.412329      0.488030
      1.61778      3.51781      6.44336        -2.034663     -0.792828     -1.452145
     -0.05636      0.75830     12.99706        -0.105705     -1.289953     -0.206421
     -1.44942      3.21953     13.05126         0.156408     -0.101198     -0.420383
      2.72218      0.76191     13.04256         0.142435     -1.374824     -0.264750
      1.21877      3.11975     13.04796         0.856039      1.402306      0.230625
      2.79827      4.03054     11.06976        -1.209729     -0.919672     -0.429048
      4.11940      1.46578     11.07096        -0.152949      0.315460     -0.371547
     -0.09257      4.02455     11.02926         0.640757     -0.228513     -0.438160
      1.27985      1.56550     10.99556         0.964672     -0.473699     -0.020179
 -----------------------------------------------------------------------------------
    total drift:                                0.036783      0.010012      0.036189


--------------------------------------------------------------------------------------------------------



  FREE ENERGIE OF THE ION-ELECTRON SYSTEM (eV)
  ---------------------------------------------------
  free  energy   TOTEN  =      -232.00281898 eV

  energy  without entropy=     -231.99543578  energy(sigma->0) =     -231.99912738
 


--------------------------------------------------------------------------------------------------------


    POTLOK:  cpu time    0.1821: real time    0.1821


--------------------------------------------------------------------------------------------------------


     LOOP+:  cpu time 2665.9131: real time 2680.6830
    4ORBIT:  cpu time    0.0000: real time    0.0000
 


 total charge     
 
# of ion       s       p       d       tot
------------------------------------------
    1        0.072   0.142   0.000   0.215
    2        0.064   0.126   0.000   0.190
    3        0.109   0.230   0.000   0.338
    4        0.097   0.204   0.000   0.302
    5        0.092   0.195   0.000   0.287
    6        0.106   0.229   0.000   0.336
    7        0.466   0.758   7.212   8.435
    8        0.425   0.650   7.359   8.434
    9        0.477   0.770   7.257   8.504
   10        0.443   0.687   7.207   8.338
   11        0.505   0.834   7.326   8.666
   12        0.419   0.645   7.337   8.400
   13        0.396   0.566   7.292   8.255
   14        0.448   0.711   7.390   8.548
   15        0.433   0.676   7.370   8.479
   16        0.456   0.725   7.420   8.601
   17        0.427   0.647   7.167   8.242
   18        0.429   0.644   7.174   8.246
   19        1.571   3.431   0.000   5.001
   20        1.577   3.370   0.000   4.947
   21        1.579   3.366   0.000   4.945
   22        1.579   3.416   0.000   4.995
   23        1.580   3.315   0.000   4.895
   24        1.577   3.373   0.000   4.950
   25        1.579   3.350   0.000   4.929
   26        1.584   3.384   0.000   4.968
   27        1.557   3.485   0.000   5.042
   28        1.555   3.456   0.000   5.011
   29        1.554   3.500   0.000   5.054
   30        1.557   3.496   0.000   5.053
   31        1.578   3.345   0.000   4.923
   32        1.570   3.382   0.000   4.952
   33        1.577   3.371   0.000   4.948
   34        1.568   3.464   0.000   5.032
   35        1.583   3.343   0.000   4.926
   36        1.572   3.378   0.000   4.949
   37        1.580   3.356   0.000   4.936
   38        1.575   3.401   0.000   4.975
   39        1.558   3.465   0.000   5.024
   40        1.560   3.456   0.000   5.016
   41        1.557   3.474   0.000   5.030
   42        1.560   3.450   0.000   5.010
--------------------------------------------------
tot         43.550  91.265  87.511 222.327
 


 magnetization (x)
 
# of ion       s       p       d       tot
------------------------------------------
    1        0.001  -0.003   0.000  -0.002
    2       -0.000  -0.001   0.000  -0.001
    3        0.001  -0.001   0.000  -0.000
    4        0.000  -0.001   0.000  -0.001
    5       -0.000  -0.001   0.000  -0.001
    6        0.000   0.000   0.000   0.000
    7        0.012   0.016   1.303   1.330
    8        0.007   0.010   0.002   0.018
    9        0.014   0.019   1.336   1.370
   10        0.016   0.022   1.492   1.530
   11        0.010   0.007   1.183   1.200
   12        0.001   0.001  -0.037  -0.034
   13        0.002  -0.000   0.003   0.005
   14        0.002   0.001  -0.106  -0.104
   15        0.004   0.006  -0.029  -0.019
   16        0.004   0.006  -0.069  -0.059
   17        0.014   0.015   1.672   1.701
   18        0.014   0.013   1.748   1.775
   19        0.001  -0.095   0.000  -0.094
   20        0.001  -0.114   0.000  -0.113
   21        0.001  -0.131   0.000  -0.131
   22        0.002  -0.117   0.000  -0.115
   23        0.000  -0.161   0.000  -0.161
   24        0.000  -0.154   0.000  -0.153
   25       -0.000  -0.226   0.000  -0.226
   26        0.002  -0.099   0.000  -0.097
   27        0.000  -0.015   0.000  -0.015
   28       -0.001  -0.042   0.000  -0.043
   29        0.001  -0.014   0.000  -0.013
   30        0.001  -0.025   0.000  -0.024
   31       -0.000  -0.094   0.000  -0.094
   32        0.000  -0.057   0.000  -0.056
   33       -0.002  -0.074   0.000  -0.076
   34        0.000  -0.003   0.000  -0.003
   35        0.000  -0.191   0.000  -0.191
   36        0.001  -0.102   0.000  -0.101
   37        0.000  -0.232   0.000  -0.231
   38        0.001  -0.174   0.000  -0.173
   39        0.001  -0.082   0.000  -0.081
   40        0.002  -0.098   0.000  -0.096
   41        0.001  -0.025   0.000  -0.023
   42        0.001  -0.051   0.000  -0.050
--------------------------------------------------
tot          0.116  -2.269   8.497   6.344
 

 total amount of memory used by VASP MPI-rank0   162516. kBytes
=======================================================================

   base      :      30000. kBytes
   nonlr-proj:       4190. kBytes
   fftplans  :       1690. kBytes
   grid      :       4644. kBytes
   one-center:        342. kBytes
   wavefun   :     121650. kBytes
 
  
  
 General timing and accounting informations for this job:
 ========================================================
  
                  Total CPU time used (sec):     2692.442
                            User time (sec):     2493.670
                          System time (sec):      198.771
                         Elapsed time (sec):     2707.706
  
                   Maximum memory used (kb):      718632.
                   Average memory used (kb):           0.
  
                          Minor page faults:        71684
                          Major page faults:           68
                 Voluntary context switches:          579
