 running on   64 total cores
 distrk:  each k-point on   64 cores,    1 groups
 distr:  one band on    4 cores,   16 groups
 using from now: INCAR     
 vasp.5.4.4.18Apr17-6-g9f103f2a35 (build Nov 22 2021 14:44:17) complex          
  
 POSCAR found type information on POSCAR  Li Co O 
 POSCAR found :  3 types and      42 ions
 scaLAPACK will be used
 LDA part: xc-table for Pade appr. of Perdew
 generate k-points for:    6    6    2
 POSCAR, INCAR and KPOINTS ok, starting setup
 FFT: planning ...
 WAVECAR not read
 entering main loop
       N       E                     dE             d eps       ncg     rms          ort
DAV:   1     0.347168135051E+04    0.34717E+04   -0.13917E+05  5760   0.217E+03
DAV:   2     0.412080261575E+03   -0.30596E+04   -0.28237E+04  5760   0.530E+02
DAV:   3    -0.218337771560E+03   -0.63042E+03   -0.57672E+03  5760   0.253E+02
DAV:   4    -0.269497893500E+03   -0.51160E+02   -0.49936E+02  5760   0.741E+01
DAV:   5    -0.271301851351E+03   -0.18040E+01   -0.17995E+01  5760   0.139E+01
 gam= 0.000 g(H,U,f)=  0.179E+04 0.103E+04 0.640E+03 ort(H,U,f) = 0.000E+00 0.000E+00 0.000E+00
SDA:   6     0.103073950374E+03    0.37438E+03   -0.17995E+01  5760   0.347E+04 0.000E+00
 gam= 0.000 trial= 0.400  step= 0.077 mean= 0.400
 gam= 0.000 g(H,U,f)=  0.101E+04 0.259E+04 0.742E+04 ort(H,U,f) = 0.100E+04-0.293E+03-0.271E+04
CGA:   7     0.335704838816E+02   -0.69503E+02   -0.13372E+03  5760   0.110E+05-0.200E+04
 gam= 0.000 trial= 0.384  step= 0.101 mean= 0.384
 gam= 0.000 g(H,U,f)=  0.282E+04 0.883E+05 0.921E+05 ort(H,U,f) =-0.662E+03-0.227E+05-0.229E+05
CGA:   8     0.889362718077E+03    0.85579E+03   -0.55595E+03  5760   0.183E+06-0.462E+05
 gam= 0.000 trial= 0.370  step= 0.160 mean= 0.370
 gam= 0.151 g(H,U,f)=  0.107E+05 0.952E+04 0.735E+04 ort(H,U,f) =-0.524E+04-0.259E+04-0.274E+04
CGA:   9     0.515770953868E+04    0.42683E+04   -0.14661E+05  5760   0.276E+05-0.106E+05
 gam= 0.151 trial= 0.359  step= 0.094 mean= 0.359
 gam= 0.000 g(H,U,f)=  0.846E+04 0.156E+05 0.144E+05 ort(H,U,f) =-0.587E+04 0.797E+04 0.266E+05
CGA:  10     0.261551474564E+04   -0.25422E+04   -0.12218E+04  5760   0.385E+05 0.288E+05
 gam= 0.000 trial= 0.346  step= 0.094 mean= 0.346
 gam= 0.000 g(H,U,f)=  0.148E+05 0.327E+05 0.490E+02 ort(H,U,f) =-0.766E+04-0.272E+05-0.379E+02
CGA:  11     0.389878870147E+04    0.12833E+04   -0.18180E+04  5760   0.475E+05-0.349E+05
 gam= 0.000 trial= 0.333  step= 0.101 mean= 0.333
 gam= 0.000 g(H,U,f)=  0.189E+05 0.641E+05 0.125E+05 ort(H,U,f) =-0.962E+04-0.405E+05-0.812E+04
CGA:  12     0.409813384700E+04    0.19935E+03   -0.24071E+04  5760   0.955E+05-0.582E+05
 gam= 0.000 trial= 0.322  step= 0.126 mean= 0.322
 gam= 0.000 g(H,U,f)=  0.195E+05 0.228E+05 0.301E+04 ort(H,U,f) =-0.105E+05-0.350E+05-0.568E+04
CGA:  13     0.309356349362E+04   -0.10046E+04   -0.60172E+04  5760   0.453E+05-0.512E+05
 gam= 0.000 trial= 0.312  step= 0.087 mean= 0.312
 gam= 1.401 g(H,U,f)=  0.407E+04 0.489E+05 0.105E+05 ort(H,U,f) = 0.164E+03-0.313E+04 0.973E+03
CGA:  14     0.796802886500E+03   -0.22968E+04   -0.19632E+04  5760   0.635E+05-0.199E+04
 gam= 1.401 trial= 0.301  step= 0.087 mean= 0.301
 gam= 0.000 g(H,U,f)=  0.589E+05 0.325E+05 0.131E+04 ort(H,U,f) =-0.145E+05-0.198E+05-0.128E+04
CGA:  15     0.903947477147E+04    0.82427E+04   -0.26550E+04  5760   0.926E+05-0.356E+05
 gam= 0.000 trial= 0.290  step= 0.156 mean= 0.290
 gam= 0.854 g(H,U,f)=  0.451E+05 0.278E+05 0.617E+04 ort(H,U,f) =-0.193E+05-0.147E+05-0.903E+03
CGA:  16     0.487537801403E+04   -0.41641E+04   -0.72164E+04  5760   0.791E+05-0.349E+05
 gam= 0.854 trial= 0.283  step= 0.115 mean= 0.283
 gam= 1.320 g(H,U,f)=  0.463E+05 0.546E+05 0.359E+04 ort(H,U,f) = 0.377E+04-0.165E+05-0.135E+04
CGA:  17     0.544368998605E+04    0.56831E+03   -0.28235E+04  5760   0.104E+06-0.140E+05
 gam= 1.320 trial= 0.275  step= 0.118 mean= 0.275
 gam= 0.386 g(H,U,f)=  0.110E+05 0.279E+05 0.153E+04 ort(H,U,f) = 0.725E+03-0.761E+04-0.851E+03
CGA:  18     0.164882495382E+04   -0.37949E+04   -0.50710E+04  5760   0.404E+05-0.774E+04
 gam= 0.386 trial= 0.267  step= 0.068 mean= 0.267
 gam= 0.126 g(H,U,f)=  0.197E+04 0.299E+04 0.135E+03 ort(H,U,f) =-0.152E+04-0.525E+04-0.215E+03
CGA:  19     0.757270387833E+03   -0.89155E+03   -0.12800E+04  5760   0.510E+04-0.698E+04
 gam= 0.126 trial= 0.257  step= 0.099 mean= 0.257
 gam= 0.585 g(H,U,f)=  0.127E+04 0.167E+04 0.371E+02 ort(H,U,f) = 0.779E+03-0.901E+03-0.338E+02
CGA:  20     0.570010926686E+03   -0.18726E+03   -0.20874E+03  5760   0.298E+04-0.156E+03
 gam= 0.585 trial= 0.249  step= 0.147 mean= 0.249
 gam= 0.625 g(H,U,f)=  0.642E+03 0.119E+04 0.355E+02 ort(H,U,f) = 0.281E+03-0.321E+03-0.152E+02
CGA:  21     0.381002843045E+03   -0.18901E+03   -0.21203E+03  5760   0.186E+04-0.546E+02
 gam= 0.625 trial= 0.244  step= 0.083 mean= 0.244
 gam= 0.295 g(H,U,f)=  0.368E+03 0.181E+03 0.125E+01 ort(H,U,f) = 0.574E+03 0.129E+03 0.266E+00
CGA:  22     0.276430418623E+03   -0.10457E+03   -0.76012E+02  5760   0.550E+03 0.703E+03
 gam= 0.295 trial= 0.236  step= 0.461 mean= 0.236
 gam= 0.000 g(H,U,f)=  0.949E+03 0.352E+04 0.124E+03 ort(H,U,f) = 0.242E+03-0.544E+03-0.242E+02
CGA:  23     0.133193334244E+03   -0.14324E+03   -0.17484E+03  5760   0.459E+04-0.326E+03
 gam= 0.000 trial= 0.247  step= 0.067 mean= 0.247
 gam= 0.388 g(H,U,f)=  0.324E+03 0.141E+04 0.476E+02 ort(H,U,f) =-0.206E+03-0.144E+04-0.527E+02
CGA:  24     0.659353205748E+02   -0.67258E+02   -0.15361E+03  5760   0.178E+04-0.170E+04
 gam= 0.388 trial= 0.238  step= 0.090 mean= 0.238
 gam= 0.148 g(H,U,f)=  0.132E+03 0.128E+03 0.270E+01 ort(H,U,f) = 0.126E+03 0.572E+01-0.453E+01
CGA:  25     0.735495853179E+01   -0.58580E+02   -0.50468E+02  5760   0.263E+03 0.127E+03
 gam= 0.148 trial= 0.231  step= 0.149 mean= 0.231
 gam= 2.344 g(H,U,f)=  0.144E+03 0.460E+03 0.129E+02 ort(H,U,f) = 0.838E+02-0.786E+02-0.430E+01
CGA:  26    -0.138274369826E+02   -0.21182E+02   -0.20937E+02  5760   0.617E+03 0.870E+00
 gam= 2.344 trial= 0.227  step= 0.280 mean= 0.227
 gam= 0.880 g(H,U,f)=  0.151E+03 0.381E+03 0.115E+02 ort(H,U,f) =-0.464E+01 0.193E+02-0.144E+00
CGA:  27    -0.100954412785E+03   -0.87127E+02   -0.86510E+02  5760   0.543E+03 0.145E+02
 gam= 0.880 trial= 0.229  step= 0.153 mean= 0.229
 gam= 0.782 g(H,U,f)=  0.102E+03 0.315E+03 0.771E+01 ort(H,U,f) =-0.104E+02 0.199E+02-0.313E+01
CGA:  28    -0.138657793733E+03   -0.37703E+02   -0.42417E+02  5760   0.425E+03 0.636E+01
 gam= 0.782 trial= 0.226  step= 0.095 mean= 0.226
 gam= 0.197 g(H,U,f)=  0.526E+02 0.296E+02 0.133E+01 ort(H,U,f) =-0.311E+02 0.381E+02 0.638E-01
CGA:  29    -0.161349407777E+03   -0.22692E+02   -0.20446E+02  5760   0.836E+02 0.699E+01
 gam= 0.197 trial= 0.219  step= 0.334 mean= 0.219
 gam= 1.237 g(H,U,f)=  0.440E+02 0.574E+02 0.192E+01 ort(H,U,f) = 0.634E+01-0.720E+01-0.317E-01
CGA:  30    -0.175553983944E+03   -0.14205E+02   -0.14170E+02  5760   0.103E+03-0.896E+00
 gam= 1.237 trial= 0.225  step= 0.149 mean= 0.225
 gam= 0.975 g(H,U,f)=  0.426E+02 0.550E+02 0.315E+01 ort(H,U,f) = 0.178E+02-0.180E+02-0.846E+00
CGA:  31    -0.182750458739E+03   -0.71965E+01   -0.76413E+01  5760   0.101E+03-0.103E+01
 gam= 0.975 trial= 0.221  step= 0.256 mean= 0.221
 gam= 0.551 g(H,U,f)=  0.192E+02 0.348E+02 0.151E+01 ort(H,U,f) =-0.610E+01-0.485E+00-0.712E+00
CGA:  32    -0.195370984744E+03   -0.12621E+02   -0.12763E+02  5760   0.555E+02-0.729E+01
 gam= 0.551 trial= 0.223  step= 0.138 mean= 0.223
 gam= 0.505 g(H,U,f)=  0.135E+02 0.138E+02 0.756E+00 ort(H,U,f) =-0.114E+01 0.104E+01-0.686E+00
CGA:  33    -0.199134570929E+03   -0.37636E+01   -0.35490E+01  5760   0.280E+02-0.787E+00
 gam= 0.505 trial= 0.219  step= 0.310 mean= 0.219
 gam= 1.191 g(H,U,f)=  0.136E+02 0.193E+02 0.528E+00 ort(H,U,f) =-0.313E+01-0.408E+00 0.206E+00
CGA:  34    -0.203235352341E+03   -0.41008E+01   -0.42764E+01  5760   0.334E+02-0.333E+01
 gam= 1.191 trial= 0.223  step= 0.223 mean= 0.223
 gam= 1.258 g(H,U,f)=  0.140E+02 0.267E+02 0.129E+01 ort(H,U,f) =-0.318E+01 0.155E+00 0.149E+00
CGA:  35    -0.206510227789E+03   -0.32749E+01   -0.32742E+01  5760   0.420E+02-0.288E+01
 gam= 1.258 trial= 0.223  step= 0.163 mean= 0.223
 gam= 0.519 g(H,U,f)=  0.111E+02 0.103E+02 0.388E+00 ort(H,U,f) =-0.851E+01 0.779E+01 0.530E+00
CGA:  36    -0.209693675032E+03   -0.31834E+01   -0.31177E+01  5760   0.218E+02-0.188E+00
 gam= 0.519 trial= 0.220  step= 0.183 mean= 0.220
 gam= 0.657 g(H,U,f)=  0.899E+01 0.511E+01 0.212E+00 ort(H,U,f) =-0.242E+01 0.234E+01 0.254E+00
CGA:  37    -0.211672096205E+03   -0.19784E+01   -0.19794E+01  5760   0.143E+02 0.174E+00
 gam= 0.657 trial= 0.218  step= 0.216 mean= 0.218
 gam= 1.326 g(H,U,f)=  0.790E+01 0.989E+01 0.119E+01 ort(H,U,f) = 0.126E+01-0.941E+00-0.488E+00
CGA:  38    -0.213230095464E+03   -0.15580E+01   -0.15580E+01  5760   0.190E+02-0.169E+00
 gam= 1.326 trial= 0.218  step= 0.126 mean= 0.218
 gam= 0.752 g(H,U,f)=  0.566E+01 0.790E+01 0.716E+00 ort(H,U,f) = 0.141E+01-0.102E+01-0.125E+00
CGA:  39    -0.214468796955E+03   -0.12387E+01   -0.11854E+01  5760   0.143E+02 0.257E+00
 gam= 0.752 trial= 0.213  step= 0.128 mean= 0.213
 gam= 0.702 g(H,U,f)=  0.403E+01 0.498E+01 0.999E+00 ort(H,U,f) = 0.631E+00 0.252E+00-0.459E+00
CGA:  40    -0.215409633564E+03   -0.94084E+00   -0.92805E+00  5760   0.100E+02 0.424E+00
 gam= 0.702 trial= 0.209  step= 0.149 mean= 0.209
 gam= 0.828 g(H,U,f)=  0.351E+01 0.448E+01 0.308E+00 ort(H,U,f) =-0.152E-01 0.690E+00 0.115E+00
CGA:  41    -0.216149336363E+03   -0.73970E+00   -0.76938E+00  5760   0.829E+01 0.790E+00
 gam= 0.828 trial= 0.206  step= 0.150 mean= 0.206
 gam= 0.795 g(H,U,f)=  0.296E+01 0.338E+01 0.262E+00 ort(H,U,f) =-0.174E+00 0.831E+00 0.302E+00
CGA:  42    -0.216801751774E+03   -0.65242E+00   -0.67209E+00  5760   0.659E+01 0.958E+00
 gam= 0.795 trial= 0.203  step= 0.150 mean= 0.203
 gam= 0.960 g(H,U,f)=  0.238E+01 0.325E+01 0.702E+00 ort(H,U,f) =-0.881E-02 0.771E+00 0.469E+00
CGA:  43    -0.217324936562E+03   -0.52318E+00   -0.55288E+00  5760   0.633E+01 0.123E+01
 gam= 0.960 trial= 0.201  step= 0.121 mean= 0.201
 gam= 1.055 g(H,U,f)=  0.213E+01 0.399E+01 0.560E+00 ort(H,U,f) = 0.695E-01 0.579E+00-0.454E+00
CGA:  44    -0.217721652845E+03   -0.39672E+00   -0.45416E+00  5760   0.668E+01 0.195E+00
 gam= 1.055 trial= 0.197  step= 0.140 mean= 0.197
 gam= 0.739 g(H,U,f)=  0.203E+01 0.270E+01 0.211E+00 ort(H,U,f) =-0.104E+01 0.131E+01-0.126E+00
CGA:  45    -0.218206860319E+03   -0.48521E+00   -0.48186E+00  5760   0.494E+01 0.146E+00
 gam= 0.739 trial= 0.194  step= 0.166 mean= 0.194
 gam= 0.626 g(H,U,f)=  0.160E+01 0.144E+01 0.522E-01 ort(H,U,f) =-0.108E+01 0.130E+01 0.283E-01
CGA:  46    -0.218624243724E+03   -0.41738E+00   -0.41981E+00  5760   0.309E+01 0.245E+00
 gam= 0.626 trial= 0.193  step= 0.173 mean= 0.193
 gam= 0.935 g(H,U,f)=  0.134E+01 0.138E+01 0.168E+00 ort(H,U,f) =-0.348E+00 0.537E+00 0.607E-01
CGA:  47    -0.218902239700E+03   -0.27800E+00   -0.27975E+00  5760   0.289E+01 0.250E+00
 gam= 0.935 trial= 0.192  step= 0.172 mean= 0.192
 gam= 1.103 g(H,U,f)=  0.128E+01 0.182E+01 0.899E-01 ort(H,U,f) =-0.132E+00 0.437E+00-0.165E-01
CGA:  48    -0.219165466642E+03   -0.26323E+00   -0.26791E+00  5760   0.319E+01 0.288E+00
 gam= 1.103 trial= 0.191  step= 0.208 mean= 0.191
 gam= 0.908 g(H,U,f)=  0.109E+01 0.174E+01 0.603E-01 ort(H,U,f) =-0.468E+00 0.538E+00 0.573E-01
CGA:  49    -0.219531716391E+03   -0.36625E+00   -0.36506E+00  5760   0.289E+01 0.128E+00
 gam= 0.908 trial= 0.191  step= 0.155 mean= 0.191
 gam= 0.651 g(H,U,f)=  0.789E+00 0.109E+01 0.846E-02 ort(H,U,f) =-0.402E+00 0.491E+00 0.174E-01
CGA:  50    -0.219760326599E+03   -0.22861E+00   -0.23247E+00  5760   0.188E+01 0.107E+00
 gam= 0.651 trial= 0.190  step= 0.175 mean= 0.190
 gam= 0.859 g(H,U,f)=  0.668E+00 0.922E+00 0.275E-01 ort(H,U,f) =-0.147E+00 0.206E+00-0.179E-02
CGA:  51    -0.219930053434E+03   -0.16973E+00   -0.17049E+00  5760   0.162E+01 0.574E-01
 gam= 0.859 trial= 0.189  step= 0.240 mean= 0.189
 gam= 1.155 g(H,U,f)=  0.726E+00 0.113E+01 0.795E-02 ort(H,U,f) =-0.121E+00 0.181E+00-0.662E-02
CGA:  52    -0.220132025267E+03   -0.20197E+00   -0.19978E+00  5760   0.187E+01 0.537E-01
 gam= 1.155 trial= 0.191  step= 0.233 mean= 0.191
 gam= 0.860 g(H,U,f)=  0.608E+00 0.981E+00 0.172E-01 ort(H,U,f) =-0.275E+00 0.228E+00-0.102E-01
CGA:  53    -0.220355888993E+03   -0.22386E+00   -0.22504E+00  5760   0.161E+01-0.572E-01
 gam= 0.860 trial= 0.193  step= 0.187 mean= 0.193
 gam= 0.000 g(H,U,f)=  0.482E+00 0.860E+00 0.175E-01 ort(H,U,f) =-0.239E+00 0.193E+00-0.126E-01
SDA:  54    -0.220501837441E+03   -0.14595E+00   -0.14567E+00  5760   0.136E+01-0.577E-01
 gam= 0.000 trial= 0.193  step= 0.476 mean= 0.193
 gam= 1.297 g(H,U,f)=  0.357E+00 0.119E+01 0.220E+00 ort(H,U,f) = 0.271E-01 0.332E-01-0.422E-01
CGA:  55    -0.220828039245E+03   -0.32620E+00   -0.32366E+00  5760   0.176E+01 0.181E-01
 gam= 1.297 trial= 0.207  step= 0.218 mean= 0.207
 gam= 0.970 g(H,U,f)=  0.323E+00 0.103E+01 0.359E+00 ort(H,U,f) = 0.106E-01 0.327E+00-0.236E+00
CGA:  56    -0.221024078302E+03   -0.19604E+00   -0.19503E+00  5760   0.171E+01 0.101E+00
 gam= 0.970 trial= 0.208  step= 0.288 mean= 0.208
 gam= 0.449 g(H,U,f)=  0.234E+00 0.432E+00 0.102E+00 ort(H,U,f) =-0.262E+00 0.247E+00-0.364E-01
CGA:  57    -0.221282117704E+03   -0.25804E+00   -0.26079E+00  5760   0.768E+00-0.515E-01
 gam= 0.449 trial= 0.212  step= 0.232 mean= 0.212
 gam= 0.579 g(H,U,f)=  0.148E+00 0.213E+00 0.838E-01 ort(H,U,f) =-0.315E-01 0.123E+00-0.666E-01
CGA:  58    -0.221368870407E+03   -0.86753E-01   -0.86342E-01  5760   0.445E+00 0.246E-01
 gam= 0.579 trial= 0.213  step= 0.228 mean= 0.213
 gam= 0.553 g(H,U,f)=  0.938E-01 0.125E+00 0.267E-01 ort(H,U,f) =-0.238E-02 0.135E-01-0.297E-01
CGA:  59    -0.221420896193E+03   -0.52026E-01   -0.52267E-01  5760   0.246E+00-0.186E-01
 gam= 0.553 trial= 0.214  step= 0.353 mean= 0.214
 gam= 0.735 g(H,U,f)=  0.578E-01 0.102E+00 0.205E-01 ort(H,U,f) =-0.967E-03 0.777E-02-0.869E-02
CGA:  60    -0.221462353292E+03   -0.41457E-01   -0.41609E-01  5760   0.181E+00-0.188E-02
 gam= 0.735 trial= 0.221  step= 0.316 mean= 0.221
 gam= 0.497 g(H,U,f)=  0.291E-01 0.491E-01 0.117E-01 ort(H,U,f) =-0.908E-02 0.227E-01-0.957E-02
CGA:  61    -0.221490900344E+03   -0.28547E-01   -0.28310E-01  5760   0.899E-01 0.402E-02
 gam= 0.497 trial= 0.225  step= 0.273 mean= 0.225
 gam= 1.113 g(H,U,f)=  0.233E-01 0.539E-01 0.228E-01 ort(H,U,f) =-0.315E-02 0.115E-01-0.877E-02
CGA:  62    -0.221503418937E+03   -0.12519E-01   -0.12533E-01  5760   0.100E+00-0.405E-03
 gam= 1.113 trial= 0.228  step= 0.304 mean= 0.228
 gam= 0.945 g(H,U,f)=  0.277E-01 0.525E-01 0.144E-01 ort(H,U,f) =-0.158E-01 0.209E-01-0.845E-02
CGA:  63    -0.221518390329E+03   -0.14971E-01   -0.15140E-01  5760   0.946E-01-0.328E-02
 gam= 0.945 trial= 0.232  step= 0.277 mean= 0.232
 gam= 1.381 g(H,U,f)=  0.321E-01 0.648E-01 0.337E-01 ort(H,U,f) =-0.150E-01 0.289E-01-0.120E-01
CGA:  64    -0.221531120611E+03   -0.12730E-01   -0.12671E-01  5760   0.131E+00 0.189E-02
 gam= 1.381 trial= 0.234  step= 0.302 mean= 0.234
 gam= 0.758 g(H,U,f)=  0.362E-01 0.449E-01 0.179E-01 ort(H,U,f) =-0.305E-01 0.414E-01-0.146E-01
CGA:  65    -0.221551092781E+03   -0.19972E-01   -0.20108E-01  5760   0.990E-01-0.377E-02
 gam= 0.758 trial= 0.237  step= 0.257 mean= 0.237
 gam= 1.423 g(H,U,f)=  0.374E-01 0.617E-01 0.417E-01 ort(H,U,f) =-0.112E-01 0.207E-01-0.755E-02
CGA:  66    -0.221563434046E+03   -0.12341E-01   -0.12346E-01  5760   0.141E+00 0.192E-02
 gam= 1.423 trial= 0.238  step= 0.235 mean= 0.238
 gam= 0.565 g(H,U,f)=  0.311E-01 0.339E-01 0.146E-01 ort(H,U,f) =-0.162E-01 0.310E-01-0.255E-01
CGA:  67    -0.221580336530E+03   -0.16902E-01   -0.16906E-01  5760   0.796E-01-0.107E-01
 gam= 0.565 trial= 0.238  step= 0.353 mean= 0.238
 gam= 2.081 g(H,U,f)=  0.310E-01 0.707E-01 0.638E-01 ort(H,U,f) =-0.320E-02 0.499E-02-0.282E-02
CGA:  68    -0.221592796770E+03   -0.12460E-01   -0.12996E-01  5760   0.166E+00-0.103E-02
 gam= 2.081 trial= 0.244  step= 0.166 mean= 0.244
 gam= 0.450 g(H,U,f)=  0.229E-01 0.323E-01 0.193E-01 ort(H,U,f) =-0.156E-01 0.352E-01-0.497E-01
CGA:  69    -0.221605797147E+03   -0.13000E-01   -0.13594E-01  5760   0.745E-01-0.301E-01
 gam= 0.450 trial= 0.240  step= 0.364 mean= 0.240
 gam= 1.021 g(H,U,f)=  0.289E-01 0.420E-01 0.513E-02 ort(H,U,f) =-0.961E-02 0.562E-02 0.164E-02
CGA:  70    -0.221616606990E+03   -0.10810E-01   -0.11101E-01  5760   0.761E-01-0.234E-02
 gam= 1.021 trial= 0.246  step= 0.383 mean= 0.246
 gam= 2.030 g(H,U,f)=  0.336E-01 0.701E-01 0.507E-01 ort(H,U,f) =-0.131E-01 0.327E-01-0.251E-01
CGA:  71    -0.221630911474E+03   -0.14304E-01   -0.14119E-01  5760   0.154E+00-0.542E-02
 gam= 2.030 trial= 0.253  step= 0.231 mean= 0.253
 gam= 1.736 g(H,U,f)=  0.565E-01 0.121E+00 0.906E-01 ort(H,U,f) =-0.701E-01 0.677E-01 0.544E-02
CGA:  72    -0.221647551957E+03   -0.16640E-01   -0.16550E-01  5760   0.268E+00 0.299E-02
 gam= 1.736 trial= 0.252  step= 0.331 mean= 0.252
 gam= 0.000 g(H,U,f)=  0.167E+00 0.227E+00 0.389E-01 ort(H,U,f) =-0.190E+00 0.142E+00-0.226E+00
CGA:  73    -0.221691984659E+03   -0.44433E-01   -0.45187E-01  5760   0.433E+00-0.273E+00
 gam= 0.000 trial= 0.256  step= 0.273 mean= 0.256
 gam= 0.494 g(H,U,f)=  0.709E-01 0.126E+00 0.167E-01 ort(H,U,f) = 0.321E-01 0.258E-01 0.139E-02
CGA:  74    -0.221751798132E+03   -0.59813E-01   -0.58991E-01  5760   0.214E+00 0.594E-01
 gam= 0.494 trial= 0.257  step= 0.339 mean= 0.257
 gam= 2.628 g(H,U,f)=  0.666E-01 0.196E+00 0.299E+00 ort(H,U,f) =-0.766E-02 0.586E-01-0.628E-01
CGA:  75    -0.221793922539E+03   -0.42124E-01   -0.41149E-01  5760   0.562E+00-0.118E-01
 gam= 2.628 trial= 0.261  step= 0.144 mean= 0.261
 gam= 0.600 g(H,U,f)=  0.123E+00 0.194E+00 0.205E-01 ort(H,U,f) =-0.185E+00 0.203E+00 0.781E-03
CGA:  76    -0.221834618324E+03   -0.40696E-01   -0.38162E-01  5760   0.337E+00 0.195E-01
 gam= 0.600 trial= 0.255  step= 0.353 mean= 0.255
 gam= 1.268 g(H,U,f)=  0.159E+00 0.162E+00 0.107E+00 ort(H,U,f) =-0.883E-01 0.174E+00 0.224E-01
CGA:  77    -0.221901283930E+03   -0.66666E-01   -0.61586E-01  5760   0.427E+00 0.108E+00
 gam= 1.268 trial= 0.260  step= 0.147 mean= 0.260
 gam= 1.023 g(H,U,f)=  0.138E+00 0.158E+00 0.141E+00 ort(H,U,f) =-0.527E-01 0.139E+00-0.743E-01
CGA:  78    -0.221937383390E+03   -0.36099E-01   -0.41401E-01  5760   0.437E+00 0.121E-01
 gam= 1.023 trial= 0.254  step= 0.296 mean= 0.254
 gam= 0.473 g(H,U,f)=  0.128E+00 0.691E-01 0.937E-02 ort(H,U,f) =-0.103E+00 0.132E+00 0.111E-01
CGA:  79    -0.222005323638E+03   -0.67940E-01   -0.66582E-01  5760   0.207E+00 0.402E-01
 gam= 0.473 trial= 0.256  step= 0.415 mean= 0.256
 gam= 1.655 g(H,U,f)=  0.981E-01 0.128E+00 0.116E+00 ort(H,U,f) =-0.215E-02 0.587E-01-0.459E-01
CGA:  80    -0.222053124330E+03   -0.47801E-01   -0.46797E-01  5760   0.342E+00 0.107E-01
 gam= 1.655 trial= 0.264  step= 0.110 mean= 0.264
 gam= 0.531 g(H,U,f)=  0.769E-01 0.774E-01 0.274E-01 ort(H,U,f) = 0.132E-02 0.524E-01-0.234E-01
CGA:  81    -0.222075227902E+03   -0.22104E-01   -0.19806E-01  5760   0.182E+00 0.304E-01
 gam= 0.531 trial= 0.257  step= 0.393 mean= 0.257
 gam= 2.597 g(H,U,f)=  0.726E-01 0.144E+00 0.255E+00 ort(H,U,f) =-0.306E-01-0.234E-01 0.288E-01
CGA:  82    -0.222112322455E+03   -0.37095E-01   -0.38907E-01  5760   0.472E+00-0.252E-01
 gam= 2.597 trial= 0.263  step= 0.101 mean= 0.263
 gam= 0.574 g(H,U,f)=  0.103E+00 0.118E+00 0.504E-01 ort(H,U,f) =-0.151E+00 0.657E-01 0.139E+00
CGA:  83    -0.222131868999E+03   -0.19547E-01   -0.20573E-01  5760   0.271E+00 0.536E-01
 gam= 0.574 trial= 0.255  step= 0.267 mean= 0.255
 gam= 0.787 g(H,U,f)=  0.108E+00 0.670E-01 0.387E-01 ort(H,U,f) =-0.791E-01 0.350E-01 0.805E-01
CGA:  84    -0.222172155228E+03   -0.40286E-01   -0.40258E-01  5760   0.213E+00 0.364E-01
 gam= 0.787 trial= 0.256  step= 0.068 mean= 0.256
 gam= 0.988 g(H,U,f)=  0.975E-01 0.825E-01 0.308E-01 ort(H,U,f) = 0.272E-01 0.278E-01 0.401E-01
CGA:  85    -0.222181121466E+03   -0.89662E-02   -0.82584E-02  5760   0.211E+00 0.951E-01
 gam= 0.988 trial= 0.246  step= 0.103 mean= 0.246
 gam= 1.121 g(H,U,f)=  0.831E-01 0.145E+00 0.837E-02 ort(H,U,f) = 0.647E-01 0.401E-02-0.114E-01
CGA:  86    -0.222194257589E+03   -0.13136E-01   -0.15634E-01  5760   0.236E+00 0.573E-01
 gam= 1.121 trial= 0.239  step= 0.133 mean= 0.239
 gam= 0.912 g(H,U,f)=  0.837E-01 0.116E+00 0.157E-01 ort(H,U,f) =-0.479E-02 0.165E-01-0.209E-01
CGA:  87    -0.222212734452E+03   -0.18477E-01   -0.19945E-01  5760   0.216E+00-0.920E-02
 gam= 0.912 trial= 0.234  step= 0.102 mean= 0.234
 gam= 0.899 g(H,U,f)=  0.969E-01 0.961E-01 0.747E-03 ort(H,U,f) =-0.383E-01 0.364E-01-0.829E-03
CGA:  88    -0.222223439591E+03   -0.10705E-01   -0.10529E-01  5760   0.194E+00-0.272E-02
 gam= 0.899 trial= 0.227  step= 0.133 mean= 0.227
 gam= 0.887 g(H,U,f)=  0.975E-01 0.724E-01 0.209E-02 ort(H,U,f) =-0.600E-01 0.530E-01 0.480E-03
CGA:  89    -0.222236142426E+03   -0.12703E-01   -0.12750E-01  5760   0.172E+00-0.652E-02
 gam= 0.887 trial= 0.223  step= 0.108 mean= 0.223
 gam= 0.725 g(H,U,f)=  0.806E-01 0.437E-01 0.323E-03 ort(H,U,f) =-0.366E-01 0.402E-01-0.132E-03
CGA:  90    -0.222246955221E+03   -0.10813E-01   -0.89864E-02  5760   0.125E+00 0.348E-02
 gam= 0.725 trial= 0.217  step= 0.135 mean= 0.217
 gam= 1.331 g(H,U,f)=  0.686E-01 0.924E-01 0.481E-02 ort(H,U,f) =-0.479E-02 0.327E-01-0.398E-02
CGA:  91    -0.222255724699E+03   -0.87695E-02   -0.85653E-02  5760   0.166E+00 0.239E-01
 gam= 1.331 trial= 0.213  step= 0.139 mean= 0.213
 gam= 0.777 g(H,U,f)=  0.585E-01 0.563E-01 0.141E-01 ort(H,U,f) =-0.430E-01 0.509E-01-0.465E-02
CGA:  92    -0.222269071906E+03   -0.13347E-01   -0.13761E-01  5760   0.129E+00 0.322E-02
 gam= 0.777 trial= 0.209  step= 0.096 mean= 0.209
 gam= 0.727 g(H,U,f)=  0.494E-01 0.424E-01 0.193E-02 ort(H,U,f) =-0.172E-01 0.193E-01-0.379E-02
CGA:  93    -0.222275213715E+03   -0.61418E-02   -0.62868E-02  5760   0.937E-01-0.174E-02
 gam= 0.727 trial= 0.203  step= 0.151 mean= 0.203
 gam= 1.234 g(H,U,f)=  0.421E-01 0.568E-01 0.167E-01 ort(H,U,f) =-0.833E-02 0.107E-01-0.244E-02
CGA:  94    -0.222282181668E+03   -0.69680E-02   -0.69752E-02  5760   0.116E+00-0.521E-04
 gam= 1.234 trial= 0.201  step= 0.113 mean= 0.201
 gam= 0.732 g(H,U,f)=  0.453E-01 0.384E-01 0.881E-03 ort(H,U,f) =-0.244E-01 0.214E-01 0.307E-02
CGA:  95    -0.222288768549E+03   -0.65869E-02   -0.65444E-02  5760   0.846E-01 0.225E-04
 gam= 0.732 trial= 0.196  step= 0.135 mean= 0.196
 gam= 1.278 g(H,U,f)=  0.446E-01 0.520E-01 0.116E-01 ort(H,U,f) =-0.662E-02 0.169E-01-0.103E-01
CGA:  96    -0.222294496280E+03   -0.57277E-02   -0.56952E-02  5760   0.108E+00 0.427E-04
 gam= 1.278 trial= 0.193  step= 0.130 mean= 0.193
 gam= 0.802 g(H,U,f)=  0.370E-01 0.415E-01 0.824E-02 ort(H,U,f) =-0.217E-01 0.236E-01-0.183E-02
CGA:  97    -0.222301527315E+03   -0.70310E-02   -0.70305E-02  5760   0.868E-01 0.178E-04
 gam= 0.802 trial= 0.190  step= 0.093 mean= 0.190
 gam= 0.618 g(H,U,f)=  0.308E-01 0.221E-01 0.644E-03 ort(H,U,f) =-0.126E-01 0.129E-01-0.117E-02
CGA:  98    -0.222305491194E+03   -0.39639E-02   -0.40284E-02  5760   0.536E-01-0.855E-03
 gam= 0.618 trial= 0.185  step= 0.154 mean= 0.185
 gam= 1.399 g(H,U,f)=  0.268E-01 0.382E-01 0.998E-02 ort(H,U,f) =-0.104E-02 0.231E-02-0.128E-02
CGA:  99    -0.222309564924E+03   -0.40737E-02   -0.40760E-02  5760   0.750E-01-0.110E-04
 gam= 1.399 trial= 0.184  step= 0.132 mean= 0.184
 gam= 0.819 g(H,U,f)=  0.284E-01 0.320E-01 0.103E-02 ort(H,U,f) =-0.965E-02 0.777E-02 0.208E-02
CGA: 100    -0.222314511750E+03   -0.49468E-02   -0.49555E-02  5760   0.614E-01 0.200E-03
 gam= 0.819 trial= 0.181  step= 0.126 mean= 0.181
 gam= 1.038 g(H,U,f)=  0.276E-01 0.312E-01 0.494E-02 ort(H,U,f) = 0.852E-03 0.456E-02-0.551E-02
CGA: 101    -0.222318383012E+03   -0.38713E-02   -0.38878E-02  5760   0.637E-01-0.903E-04
 gam= 1.038 trial= 0.178  step= 0.146 mean= 0.178
 gam= 0.845 g(H,U,f)=  0.207E-01 0.261E-01 0.704E-02 ort(H,U,f) =-0.765E-02 0.906E-02-0.139E-02
CGA: 102    -0.222323024952E+03   -0.46419E-02   -0.46379E-02  5760   0.538E-01 0.240E-04
 gam= 0.845 trial= 0.177  step= 0.099 mean= 0.177
 gam= 0.579 g(H,U,f)=  0.188E-01 0.123E-01 0.306E-04 ort(H,U,f) =-0.105E-01 0.101E-01 0.272E-03
CGA: 103    -0.222325672238E+03   -0.26473E-02   -0.26772E-02  5760   0.311E-01-0.168E-03
 gam= 0.579 trial= 0.173  step= 0.158 mean= 0.173
 gam= 0.000 g(H,U,f)=  0.180E-01 0.192E-01 0.315E-02 ort(H,U,f) =-0.201E-02 0.380E-02-0.158E-02
SDA: 104    -0.222328119695E+03   -0.24475E-02   -0.24512E-02  5760   0.404E-01 0.212E-03
 gam= 0.000 trial= 0.172  step= 0.177 mean= 0.172
 gam= 0.713 g(H,U,f)=  0.762E-02 0.154E-01 0.581E-02 ort(H,U,f) = 0.740E-02-0.294E-02-0.473E-02
CGA: 105    -0.222331691467E+03   -0.35718E-02   -0.35726E-02  5760   0.288E-01-0.281E-03
 gam= 0.713 trial= 0.172  step= 0.316 mean= 0.172
 gam= 0.561 g(H,U,f)=  0.576E-02 0.104E-01 0.633E-04 ort(H,U,f) =-0.236E-03 0.587E-03-0.626E-04
CGA: 106    -0.222336233150E+03   -0.45417E-02   -0.45190E-02  5760   0.162E-01 0.288E-03
 gam= 0.561 trial= 0.180  step= 0.532 mean= 0.180
 gam= 0.572 g(H,U,f)=  0.428E-02 0.488E-02 0.869E-04 ort(H,U,f) =-0.401E-02 0.414E-02-0.584E-04
CGA: 107    -0.222340587014E+03   -0.43539E-02   -0.43414E-02  5760   0.925E-02 0.745E-04
 gam= 0.572 trial= 0.197  step= 0.703 mean= 0.197
 gam= 1.901 g(H,U,f)=  0.555E-02 0.897E-02 0.306E-02 ort(H,U,f) =-0.229E-02 0.234E-02-0.175E-03
CGA: 108    -0.222343826558E+03   -0.32395E-02   -0.32630E-02  5760   0.176E-01-0.122E-03
 gam= 1.901 trial= 0.222  step= 0.197 mean= 0.222
 gam= 0.663 g(H,U,f)=  0.430E-02 0.657E-02 0.781E-03 ort(H,U,f) =-0.288E-02 0.402E-02-0.970E-03
CGA: 109    -0.222345527073E+03   -0.17005E-02   -0.17065E-02  5760   0.117E-01 0.161E-03
 gam= 0.663 trial= 0.221  step= 0.471 mean= 0.221
 gam= 0.884 g(H,U,f)=  0.486E-02 0.536E-02 0.750E-04 ort(H,U,f) =-0.172E-02 0.177E-02-0.511E-04
CGA: 110    -0.222348294530E+03   -0.27675E-02   -0.27669E-02  5760   0.103E-01-0.643E-05
 gam= 0.884 trial= 0.234  step= 0.651 mean= 0.234
 gam= 0.604 g(H,U,f)=  0.323E-02 0.296E-02 0.326E-04 ort(H,U,f) =-0.199E-02 0.201E-02-0.122E-04
CGA: 111    -0.222351647084E+03   -0.33526E-02   -0.33514E-02  5760   0.622E-02 0.439E-05
 gam= 0.604 trial= 0.254  step= 0.803 mean= 0.254
 gam= 2.506 g(H,U,f)=  0.300E-02 0.952E-02 0.307E-02 ort(H,U,f) =-0.103E-02 0.112E-02-0.280E-03
CGA: 112    -0.222354110579E+03   -0.24635E-02   -0.24979E-02  5760   0.156E-01-0.193E-03
 gam= 2.506 trial= 0.282  step= 0.233 mean= 0.282
 gam= 0.815 g(H,U,f)=  0.437E-02 0.746E-02 0.881E-03 ort(H,U,f) =-0.348E-02 0.470E-02-0.105E-02
CGA: 113    -0.222355860252E+03   -0.17497E-02   -0.17572E-02  5760   0.127E-01 0.166E-03
 gam= 0.815 trial= 0.279  step= 0.410 mean= 0.279
 gam= 0.771 g(H,U,f)=  0.457E-02 0.517E-02 0.649E-04 ort(H,U,f) =-0.392E-02 0.391E-02-0.943E-04
CGA: 114    -0.222358490421E+03   -0.26302E-02   -0.26331E-02  5760   0.981E-02-0.988E-04
 gam= 0.771 trial= 0.286  step= 0.976 mean= 0.286
 gam= 1.955 g(H,U,f)=  0.704E-02 0.109E-01 0.119E-02 ort(H,U,f) =-0.272E-02 0.255E-02-0.138E-03
CGA: 115    -0.222363083930E+03   -0.45935E-02   -0.47498E-02  5760   0.192E-01-0.304E-03
 gam= 1.955 trial= 0.320  step= 0.350 mean= 0.320
 gam= 1.285 g(H,U,f)=  0.825E-02 0.125E-01 0.391E-02 ort(H,U,f) =-0.302E-02 0.496E-02-0.212E-02
CGA: 116    -0.222366329453E+03   -0.32455E-02   -0.32492E-02  5760   0.246E-01-0.182E-03
 gam= 1.285 trial= 0.322  step= 0.228 mean= 0.322
 gam= 0.552 g(H,U,f)=  0.557E-02 0.695E-02 0.108E-02 ort(H,U,f) =-0.203E-02 0.255E-02-0.621E-03
CGA: 117    -0.222369193649E+03   -0.28642E-02   -0.27862E-02  5760   0.136E-01-0.942E-04
 gam= 0.552 trial= 0.317  step= 0.569 mean= 0.317
 gam= 0.823 g(H,U,f)=  0.438E-02 0.583E-02 0.993E-03 ort(H,U,f) =-0.137E-02 0.261E-02-0.799E-03
CGA: 118    -0.222373164022E+03   -0.39704E-02   -0.38571E-02  5760   0.112E-01 0.439E-03
 gam= 0.823 trial= 0.330  step= 0.336 mean= 0.330
 gam= 1.706 g(H,U,f)=  0.391E-02 0.101E-01 0.513E-02 ort(H,U,f) =-0.109E-02 0.227E-02-0.888E-03
CGA: 119    -0.222375104455E+03   -0.19404E-02   -0.19421E-02  5760   0.191E-01 0.290E-03
 gam= 1.706 trial= 0.330  step= 0.294 mean= 0.330
 gam= 0.655 g(H,U,f)=  0.501E-02 0.690E-02 0.593E-03 ort(H,U,f) =-0.434E-02 0.593E-02-0.136E-02
CGA: 120    -0.222377979926E+03   -0.28755E-02   -0.28838E-02  5760   0.125E-01 0.224E-03
 gam= 0.655 trial= 0.328  step= 0.696 mean= 0.328
 gam= 1.366 g(H,U,f)=  0.667E-02 0.869E-02 0.171E-02 ort(H,U,f) =-0.416E-02 0.340E-02 0.520E-03
CGA: 121    -0.222382285700E+03   -0.43058E-02   -0.44030E-02  5760   0.171E-01-0.243E-03
 gam= 1.366 trial= 0.347  step= 0.321 mean= 0.347
 gam= 1.470 g(H,U,f)=  0.605E-02 0.107E-01 0.838E-02 ort(H,U,f) =-0.241E-02 0.754E-02-0.527E-02
CGA: 122    -0.222384974255E+03   -0.26886E-02   -0.26847E-02  5760   0.251E-01-0.133E-03
 gam= 1.470 trial= 0.345  step= 0.254 mean= 0.345
 gam= 0.675 g(H,U,f)=  0.694E-02 0.868E-02 0.134E-02 ort(H,U,f) =-0.478E-02 0.490E-02-0.249E-03
CGA: 123    -0.222388174072E+03   -0.31998E-02   -0.31597E-02  5760   0.170E-01-0.124E-03
 gam= 0.675 trial= 0.341  step= 0.506 mean= 0.341
 gam= 0.829 g(H,U,f)=  0.635E-02 0.524E-02 0.246E-02 ort(H,U,f) =-0.220E-02 0.378E-02-0.162E-02
CGA: 124    -0.222392452944E+03   -0.42789E-02   -0.42717E-02  5760   0.140E-01-0.439E-04
 gam= 0.829 trial= 0.349  step= 0.266 mean= 0.349
 gam= 1.290 g(H,U,f)=  0.495E-02 0.673E-02 0.644E-02 ort(H,U,f) = 0.130E-02 0.746E-03-0.201E-02
CGA: 125    -0.222394315986E+03   -0.18630E-02   -0.18633E-02  5760   0.181E-01 0.378E-04
 gam= 1.290 trial= 0.345  step= 0.262 mean= 0.345
 gam= 0.381 g(H,U,f)=  0.335E-02 0.311E-02 0.455E-03 ort(H,U,f) =-0.575E-03 0.157E-02-0.103E-02
CGA: 126    -0.222396702486E+03   -0.23865E-02   -0.23802E-02  5760   0.691E-02-0.360E-04
 gam= 0.381 trial= 0.341  step= 0.400 mean= 0.341
 gam= 0.996 g(H,U,f)=  0.205E-02 0.316E-02 0.167E-02 ort(H,U,f) = 0.756E-04 0.540E-04-0.113E-03
CGA: 127    -0.222398081713E+03   -0.13792E-02   -0.13796E-02  5760   0.688E-02 0.165E-04
 gam= 0.996 trial= 0.344  step= 0.207 mean= 0.344
 gam= 0.804 g(H,U,f)=  0.172E-02 0.245E-02 0.136E-02 ort(H,U,f) = 0.420E-03 0.991E-03-0.136E-02
CGA: 128    -0.222398797420E+03   -0.71571E-03   -0.71361E-03  5760   0.553E-02 0.521E-04
 gam= 0.804 trial= 0.337  step= 0.333 mean= 0.337
 gam= 0.581 g(H,U,f)=  0.111E-02 0.182E-02 0.282E-03 ort(H,U,f) =-0.525E-03 0.638E-03-0.106E-03
CGA: 129    -0.222399725336E+03   -0.92792E-03   -0.92785E-03  5760   0.321E-02 0.760E-05
 gam= 0.581 trial= 0.337  step= 0.374 mean= 0.337
 gam= 1.140 g(H,U,f)=  0.102E-02 0.173E-02 0.918E-03 ort(H,U,f) =-0.360E-03 0.730E-03-0.380E-03
CGA: 130    -0.222400325966E+03   -0.60063E-03   -0.60133E-03  5760   0.366E-02-0.101E-04
 gam= 1.140 trial= 0.339  step= 0.203 mean= 0.339
 gam= 0.776 g(H,U,f)=  0.105E-02 0.126E-02 0.530E-03 ort(H,U,f) =-0.418E-03 0.799E-03-0.356E-03
CGA: 131    -0.222400700659E+03   -0.37469E-03   -0.37139E-03  5760   0.284E-02 0.244E-04
 gam= 0.776 trial= 0.332  step= 0.547 mean= 0.332
 gam= 0.954 g(H,U,f)=  0.102E-02 0.126E-02 0.437E-03 ort(H,U,f) =-0.563E-03 0.763E-03-0.220E-03
CGA: 132    -0.222401477180E+03   -0.77652E-03   -0.78241E-03  5760   0.271E-02-0.200E-04
 gam= 0.954 trial= 0.343  step= 0.293 mean= 0.343
 gam= 1.184 g(H,U,f)=  0.977E-03 0.167E-02 0.567E-03 ort(H,U,f) =-0.308E-03 0.666E-03-0.221E-03
CGA: 133    -0.222401872234E+03   -0.39505E-03   -0.39429E-03  5760   0.321E-02 0.137E-03
 gam= 1.184 trial= 0.340  step= 0.256 mean= 0.340
 gam= 0.717 g(H,U,f)=  0.857E-03 0.118E-02 0.264E-03 ort(H,U,f) =-0.474E-03 0.715E-03-0.200E-03
CGA: 134    -0.222402324024E+03   -0.45179E-03   -0.43155E-03  5760   0.230E-02 0.408E-04
 gam= 0.717 trial= 0.336  step= 0.411 mean= 0.336
 gam= 0.000 g(H,U,f)=  0.988E-03 0.162E-02 0.592E-03 ort(H,U,f) =-0.350E-03 0.521E-03-0.153E-03
SDA: 135    -0.222402797068E+03   -0.47304E-03   -0.47932E-03  5760   0.320E-02 0.183E-04
 gam= 0.000 trial= 0.340  step= 0.122 mean= 0.340
 gam= 0.466 g(H,U,f)=  0.535E-03 0.802E-03 0.157E-03 ort(H,U,f) = 0.513E-03 0.160E-03-0.303E-03
CGA: 136    -0.222403030193E+03   -0.23313E-03   -0.19537E-03  5760   0.149E-02 0.369E-03
 gam= 0.466 trial= 0.329  step= 0.374 mean= 0.329
 gam= 0.744 g(H,U,f)=  0.365E-03 0.730E-03 0.169E-04 ort(H,U,f) =-0.811E-04 0.573E-04 0.608E-05
CGA: 137    -0.222403341164E+03   -0.31097E-03   -0.31159E-03  5760   0.111E-02-0.178E-04
 gam= 0.744 trial= 0.331  step= 0.558 mean= 0.331
 gam= 2.735 g(H,U,f)=  0.585E-03 0.151E-02 0.949E-03 ort(H,U,f) =-0.204E-03 0.363E-03-0.154E-03
CGA: 138    -0.222403645869E+03   -0.30471E-03   -0.30637E-03  5760   0.304E-02 0.556E-05
 gam= 2.735 trial= 0.342  step= 0.170 mean= 0.342
 gam= 0.482 g(H,U,f)=  0.636E-03 0.762E-03 0.681E-04 ort(H,U,f) =-0.935E-03 0.108E-02-0.136E-03
CGA: 139    -0.222403911991E+03   -0.26612E-03   -0.26044E-03  5760   0.147E-02 0.139E-04
 gam= 0.482 trial= 0.334  step= 0.481 mean= 0.334
 gam= 0.869 g(H,U,f)=  0.593E-03 0.604E-03 0.764E-04 ort(H,U,f) =-0.427E-03 0.420E-03 0.375E-05
CGA: 140    -0.222404265789E+03   -0.35380E-03   -0.35400E-03  5760   0.127E-02-0.288E-05
 gam= 0.869 trial= 0.341  step= 0.338 mean= 0.341
 gam= 1.884 g(H,U,f)=  0.627E-03 0.131E-02 0.462E-03 ort(H,U,f) =-0.134E-03 0.402E-03-0.115E-03
CGA: 141    -0.222404480368E+03   -0.21458E-03   -0.21457E-03  5760   0.240E-02 0.153E-03
 gam= 1.884 trial= 0.341  step= 0.280 mean= 0.341
 gam= 0.832 g(H,U,f)=  0.741E-03 0.943E-03 0.312E-03 ort(H,U,f) =-0.540E-03 0.653E-03-0.227E-03
CGA: 142    -0.222404866927E+03   -0.38656E-03   -0.37674E-03  5760   0.200E-02-0.113E-03
 gam= 0.832 trial= 0.338  step= 0.512 mean= 0.338
 gam= 1.181 g(H,U,f)=  0.925E-03 0.103E-02 0.402E-03 ort(H,U,f) =-0.586E-03 0.717E-03-0.126E-03
CGA: 143    -0.222405353675E+03   -0.48675E-03   -0.48692E-03  5760   0.236E-02 0.538E-05
 gam= 1.181 trial= 0.347  step= 0.270 mean= 0.347
 gam= 1.264 g(H,U,f)=  0.100E-02 0.128E-02 0.701E-03 ort(H,U,f) =-0.295E-03 0.616E-03-0.328E-03
CGA: 144    -0.222405674121E+03   -0.32045E-03   -0.31883E-03  5760   0.298E-02-0.678E-05
 gam= 1.264 trial= 0.343  step= 0.358 mean= 0.343
 gam= 0.862 g(H,U,f)=  0.109E-02 0.126E-02 0.223E-03 ort(H,U,f) =-0.686E-03 0.873E-03-0.147E-03
CGA: 145    -0.222406206240E+03   -0.53212E-03   -0.53156E-03  5760   0.257E-02 0.397E-04
 gam= 0.862 trial= 0.344  step= 0.451 mean= 0.344
 gam= 1.322 g(H,U,f)=  0.112E-02 0.147E-02 0.807E-03 ort(H,U,f) =-0.451E-03 0.615E-03-0.194E-03
CGA: 146    -0.222406790991E+03   -0.58475E-03   -0.58683E-03  5760   0.339E-02-0.301E-04
 gam= 1.322 trial= 0.349  step= 0.244 mean= 0.349
 gam= 0.899 g(H,U,f)=  0.111E-02 0.135E-02 0.590E-03 ort(H,U,f) =-0.536E-03 0.974E-03-0.441E-03
CGA: 147    -0.222407193217E+03   -0.40223E-03   -0.40863E-03  5760   0.305E-02-0.379E-05
 gam= 0.899 trial= 0.344  step= 0.328 mean= 0.344
 gam= 0.683 g(H,U,f)=  0.949E-03 0.887E-03 0.250E-03 ort(H,U,f) =-0.356E-03 0.450E-03-0.129E-03
CGA: 148    -0.222407693606E+03   -0.50039E-03   -0.49975E-03  5760   0.209E-02-0.341E-04
 gam= 0.683 trial= 0.343  step= 0.398 mean= 0.343
 gam= 1.328 g(H,U,f)=  0.822E-03 0.121E-02 0.733E-03 ort(H,U,f) =-0.166E-03 0.431E-03-0.230E-03
CGA: 149    -0.222408105965E+03   -0.41236E-03   -0.40999E-03  5760   0.277E-02 0.354E-04
 gam= 1.328 trial= 0.346  step= 0.227 mean= 0.346
 gam= 0.641 g(H,U,f)=  0.666E-03 0.755E-03 0.355E-03 ort(H,U,f) =-0.201E-03 0.481E-03-0.279E-03
CGA: 150    -0.222408426760E+03   -0.32080E-03   -0.31907E-03  5760   0.178E-02 0.973E-06
 gam= 0.641 trial= 0.340  step= 0.376 mean= 0.340
 gam= 0.854 g(H,U,f)=  0.553E-03 0.722E-03 0.241E-03 ort(H,U,f) =-0.204E-03 0.347E-03-0.113E-03
CGA: 151    -0.222408762409E+03   -0.33565E-03   -0.33429E-03  5760   0.152E-02 0.303E-04
 gam= 0.854 trial= 0.342  step= 0.324 mean= 0.342
 gam= 1.201 g(H,U,f)=  0.538E-03 0.822E-03 0.461E-03 ort(H,U,f) =-0.128E-03 0.311E-03-0.188E-03
CGA: 152    -0.222409012747E+03   -0.25034E-03   -0.25011E-03  5760   0.182E-02-0.441E-05
 gam= 1.201 trial= 0.341  step= 0.278 mean= 0.341
 gam= 0.788 g(H,U,f)=  0.515E-03 0.707E-03 0.213E-03 ort(H,U,f) =-0.317E-03 0.455E-03-0.125E-03
CGA: 153    -0.222409261539E+03   -0.24879E-03   -0.25227E-03  5760   0.144E-02 0.138E-04
 gam= 0.788 trial= 0.338  step= 0.564 mean= 0.338
 gam= 1.401 g(H,U,f)=  0.758E-03 0.826E-03 0.429E-03 ort(H,U,f) =-0.445E-03 0.536E-03-0.118E-03
CGA: 154    -0.222409663111E+03   -0.40157E-03   -0.40814E-03  5760   0.201E-02-0.270E-04
 gam= 1.401 trial= 0.349  step= 0.292 mean= 0.349
 gam= 1.257 g(H,U,f)=  0.868E-03 0.107E-02 0.588E-03 ort(H,U,f) =-0.564E-03 0.725E-03-0.165E-03
CGA: 155    -0.222409945346E+03   -0.28224E-03   -0.28801E-03  5760   0.253E-02-0.453E-05
 gam= 1.257 trial= 0.346  step= 0.547 mean= 0.346
 gam= 2.277 g(H,U,f)=  0.189E-02 0.286E-02 0.101E-02 ort(H,U,f) =-0.357E-03 0.465E-03-0.354E-03
CGA: 156    -0.222410589458E+03   -0.64411E-03   -0.69003E-03  5760   0.576E-02-0.246E-03
 gam= 2.277 trial= 0.356  step= 0.495 mean= 0.356
 gam= 2.095 g(H,U,f)=  0.519E-02 0.674E-02 0.138E-03 ort(H,U,f) =-0.214E-02 0.314E-02 0.390E-03
CGA: 157    -0.222412001806E+03   -0.14123E-02   -0.12874E-02  5760   0.121E-01 0.139E-02
 gam= 2.095 trial= 0.363  step=-1.347 mean= 0.363
 BOPT < 0, no correction made
 gam= 0.000 g(H,U,f)=  0.122E-01 0.151E-01 0.261E-03 ort(H,U,f) =-0.274E-02 0.219E-01 0.841E-03
CGA: 158    -0.222418172095E+03   -0.61703E-02    0.10087E-01  5760   0.276E-01 0.200E-01
 gam= 0.000 trial= 0.363  step= 0.362 mean= 0.363
 gam= 0.913 g(H,U,f)=  0.655E-02 0.179E-01 0.759E-03 ort(H,U,f) = 0.206E-02-0.193E-02-0.105E-03
CGA: 159    -0.222423173721E+03   -0.50016E-02   -0.50016E-02  5760   0.252E-01 0.244E-04
 gam= 0.913 trial= 0.363  step= 0.683 mean= 0.363
 gam= 1.081 g(H,U,f)=  0.127E-01 0.143E-01 0.230E-03 ort(H,U,f) =-0.867E-02 0.990E-02 0.357E-03
CGA: 160    -0.222432072096E+03   -0.88984E-02   -0.86184E-02  5760   0.273E-01 0.159E-02
 gam= 1.081 trial= 0.379  step= 1.136 mean= 0.379
 gam= 3.398 g(H,U,f)=  0.399E-01 0.337E-01 0.190E-01 ort(H,U,f) =-0.150E-01 0.160E-01 0.229E-03
CGA: 161    -0.222449167273E+03   -0.17095E-01   -0.16456E-01  5760   0.926E-01 0.125E-02
 gam= 3.398 trial= 0.417  step= 0.513 mean= 0.417
 gam= 3.823 g(H,U,f)=  0.107E+00 0.142E+00 0.105E+00 ort(H,U,f) =-0.564E-01 0.712E-01-0.132E-01
CGA: 162    -0.222472105941E+03   -0.22939E-01   -0.24839E-01  5760   0.354E+00 0.163E-02
 gam= 3.823 trial= 0.422  step= 0.045 mean= 0.422
 gam= 0.000 g(H,U,f)=  0.123E+00 0.157E+00 0.800E-01 ort(H,U,f) =-0.156E+00 0.360E+00 0.181E-01
CGA: 163    -0.222482476206E+03   -0.10370E-01   -0.80896E-02  5760   0.360E+00 0.223E+00
 gam= 0.000 trial= 0.403  step= 0.122 mean= 0.403
 gam= 0.313 g(H,U,f)=  0.551E-01 0.426E-01 0.152E-01 ort(H,U,f) = 0.637E-01 0.394E-01-0.245E-01
CGA: 164    -0.222510941659E+03   -0.28465E-01   -0.21928E-01  5760   0.113E+00 0.786E-01
 gam= 0.313 trial= 0.389  step= 0.376 mean= 0.389
 gam= 1.324 g(H,U,f)=  0.575E-01 0.822E-01 0.976E-02 ort(H,U,f) = 0.103E-01-0.129E-01 0.203E-02
CGA: 165    -0.222536804163E+03   -0.25863E-01   -0.25846E-01  5760   0.149E+00-0.629E-03
 gam= 1.324 trial= 0.388  step= 0.275 mean= 0.388
 gam= 1.193 g(H,U,f)=  0.621E-01 0.978E-01 0.183E-01 ort(H,U,f) =-0.176E-01 0.418E-01-0.891E-02
CGA: 166    -0.222557715958E+03   -0.20912E-01   -0.20392E-01  5760   0.178E+00 0.153E-01
 gam= 1.193 trial= 0.382  step= 0.213 mean= 0.382
 gam= 0.586 g(H,U,f)=  0.551E-01 0.487E-01 0.746E-03 ort(H,U,f) =-0.823E-01 0.733E-01 0.141E-02
CGA: 167    -0.222580232500E+03   -0.22517E-01   -0.20903E-01  5760   0.104E+00-0.757E-02
 gam= 0.586 trial= 0.374  step= 0.324 mean= 0.374
 gam= 1.333 g(H,U,f)=  0.665E-01 0.645E-01 0.820E-02 ort(H,U,f) =-0.421E-01 0.283E-01-0.273E-02
CGA: 168    -0.222597253828E+03   -0.17021E-01   -0.16208E-01  5760   0.139E+00-0.165E-01
 gam= 1.333 trial= 0.371  step= 0.267 mean= 0.371
 gam= 0.993 g(H,U,f)=  0.816E-01 0.554E-01 0.121E-02 ort(H,U,f) =-0.424E-01 0.267E-01-0.686E-03
CGA: 169    -0.222614780660E+03   -0.17527E-01   -0.15629E-01  5760   0.138E+00-0.164E-01
 gam= 0.993 trial= 0.366  step= 0.397 mean= 0.366
 gam= 0.677 g(H,U,f)=  0.586E-01 0.329E-01 0.212E-02 ort(H,U,f) =-0.212E-01 0.245E-01-0.114E-02
CGA: 170    -0.222638918512E+03   -0.24138E-01   -0.24200E-01  5760   0.936E-01 0.220E-02
 gam= 0.677 trial= 0.368  step= 0.342 mean= 0.368
 gam= 0.486 g(H,U,f)=  0.309E-01 0.146E-01 0.479E-04 ort(H,U,f) =-0.539E-02 0.381E-02 0.164E-03
CGA: 171    -0.222655230538E+03   -0.16312E-01   -0.16268E-01  5760   0.456E-01-0.141E-02
 gam= 0.486 trial= 0.366  step= 0.465 mean= 0.366
 gam= 0.842 g(H,U,f)=  0.217E-01 0.165E-01 0.156E-03 ort(H,U,f) =-0.709E-03 0.785E-03 0.114E-03
CGA: 172    -0.222665671408E+03   -0.10441E-01   -0.10433E-01  5760   0.384E-01 0.190E-03
 gam= 0.842 trial= 0.371  step= 0.505 mean= 0.371
 gam= 0.804 g(H,U,f)=  0.166E-01 0.139E-01 0.313E-03 ort(H,U,f) =-0.462E-02 0.487E-02 0.185E-03
CGA: 173    -0.222675375381E+03   -0.97040E-02   -0.97310E-02  5760   0.308E-01 0.431E-03
 gam= 0.804 trial= 0.378  step= 0.393 mean= 0.378
 gam= 0.632 g(H,U,f)=  0.103E-01 0.897E-02 0.229E-03 ort(H,U,f) =-0.500E-02 0.539E-02-0.263E-03
CGA: 174    -0.222681505432E+03   -0.61301E-02   -0.61253E-02  5760   0.195E-01 0.134E-03
 gam= 0.632 trial= 0.379  step= 0.411 mean= 0.379
 gam= 0.868 g(H,U,f)=  0.912E-02 0.692E-02 0.886E-03 ort(H,U,f) =-0.392E-02 0.413E-02-0.286E-03
CGA: 175    -0.222685519465E+03   -0.40140E-02   -0.40253E-02  5760   0.169E-01-0.819E-04
 gam= 0.868 trial= 0.380  step= 0.538 mean= 0.380
 gam= 1.042 g(H,U,f)=  0.927E-02 0.778E-02 0.589E-03 ort(H,U,f) =-0.347E-02 0.391E-02-0.633E-03
CGA: 176    -0.222690064589E+03   -0.45451E-02   -0.45366E-02  5760   0.176E-01-0.190E-03
 gam= 1.042 trial= 0.388  step= 0.487 mean= 0.388
 gam= 0.653 g(H,U,f)=  0.668E-02 0.461E-02 0.232E-03 ort(H,U,f) =-0.452E-02 0.428E-02-0.672E-04
CGA: 177    -0.222694297172E+03   -0.42326E-02   -0.42500E-02  5760   0.115E-01-0.310E-03
 gam= 0.653 trial= 0.393  step= 0.483 mean= 0.393
 gam= 0.900 g(H,U,f)=  0.592E-02 0.429E-02 0.162E-03 ort(H,U,f) =-0.227E-02 0.244E-02-0.174E-03
CGA: 178    -0.222697028133E+03   -0.27310E-02   -0.27322E-02  5760   0.104E-01-0.192E-05
 gam= 0.900 trial= 0.398  step= 0.605 mean= 0.398
 gam= 1.305 g(H,U,f)=  0.685E-02 0.658E-02 0.111E-03 ort(H,U,f) =-0.216E-02 0.216E-02-0.338E-04
CGA: 179    -0.222700170717E+03   -0.31426E-02   -0.31398E-02  5760   0.135E-01-0.380E-04
 gam= 1.305 trial= 0.408  step= 0.478 mean= 0.408
 gam= 0.785 g(H,U,f)=  0.584E-02 0.418E-02 0.607E-03 ort(H,U,f) =-0.338E-02 0.363E-02-0.192E-03
CGA: 180    -0.222703393144E+03   -0.32224E-02   -0.32263E-02  5760   0.106E-01 0.590E-04
 gam= 0.785 trial= 0.412  step= 0.468 mean= 0.412
 gam= 0.832 g(H,U,f)=  0.524E-02 0.349E-02 0.117E-03 ort(H,U,f) =-0.245E-02 0.256E-02-0.192E-03
CGA: 181    -0.222705887968E+03   -0.24948E-02   -0.24985E-02  5760   0.884E-02-0.854E-04
 gam= 0.832 trial= 0.414  step= 0.627 mean= 0.414
 gam= 1.184 g(H,U,f)=  0.554E-02 0.482E-02 0.112E-03 ort(H,U,f) =-0.220E-02 0.232E-02-0.372E-04
CGA: 182    -0.222708639693E+03   -0.27517E-02   -0.27481E-02  5760   0.105E-01 0.779E-04
 gam= 1.184 trial= 0.425  step= 0.598 mean= 0.425
 gam= 0.927 g(H,U,f)=  0.549E-02 0.413E-02 0.922E-04 ort(H,U,f) =-0.398E-02 0.399E-02-0.565E-04
CGA: 183    -0.222711786965E+03   -0.31473E-02   -0.31579E-02  5760   0.971E-02-0.458E-04
 gam= 0.927 trial= 0.434  step= 0.493 mean= 0.434
 gam= 1.101 g(H,U,f)=  0.603E-02 0.458E-02 0.717E-04 ort(H,U,f) =-0.293E-02 0.295E-02-0.179E-04
CGA: 184    -0.222714168618E+03   -0.23817E-02   -0.23816E-02  5760   0.107E-01 0.531E-05
 gam= 1.101 trial= 0.437  step= 0.605 mean= 0.437
 gam= 1.353 g(H,U,f)=  0.734E-02 0.665E-02 0.457E-03 ort(H,U,f) =-0.289E-02 0.305E-02-0.143E-03
CGA: 185    -0.222717372411E+03   -0.32038E-02   -0.32348E-02  5760   0.145E-01 0.102E-04
 gam= 1.353 trial= 0.445  step= 0.506 mean= 0.445
 gam= 0.730 g(H,U,f)=  0.671E-02 0.363E-02 0.220E-03 ort(H,U,f) =-0.457E-02 0.427E-02-0.151E-03
CGA: 186    -0.222720996631E+03   -0.36242E-02   -0.36634E-02  5760   0.106E-01-0.451E-03
 gam= 0.730 trial= 0.448  step= 0.471 mean= 0.448
 gam= 0.870 g(H,U,f)=  0.584E-02 0.330E-02 0.497E-04 ort(H,U,f) =-0.151E-02 0.149E-02-0.573E-04
CGA: 187    -0.222723402021E+03   -0.24054E-02   -0.24074E-02  5760   0.919E-02-0.745E-04
 gam= 0.870 trial= 0.449  step= 0.540 mean= 0.449
 gam= 0.812 g(H,U,f)=  0.438E-02 0.300E-02 0.707E-04 ort(H,U,f) =-0.925E-03 0.904E-03-0.727E-05
CGA: 188    -0.222725862927E+03   -0.24609E-02   -0.24641E-02  5760   0.746E-02-0.283E-04
 gam= 0.812 trial= 0.454  step= 0.451 mean= 0.454
 gam= 0.711 g(H,U,f)=  0.303E-02 0.220E-02 0.658E-04 ort(H,U,f) =-0.518E-03 0.580E-03-0.698E-04
CGA: 189    -0.222727538098E+03   -0.16752E-02   -0.16750E-02  5760   0.530E-02-0.769E-05
 gam= 0.711 trial= 0.454  step= 0.511 mean= 0.454
 gam= 0.843 g(H,U,f)=  0.230E-02 0.211E-02 0.647E-04 ort(H,U,f) =-0.649E-03 0.651E-03-0.167E-04
CGA: 190    -0.222728890124E+03   -0.13520E-02   -0.13537E-02  5760   0.447E-02-0.145E-04
 gam= 0.843 trial= 0.457  step= 0.432 mean= 0.457
 gam= 0.809 g(H,U,f)=  0.190E-02 0.152E-02 0.194E-03 ort(H,U,f) =-0.651E-03 0.753E-03-0.852E-04
CGA: 191    -0.222729853541E+03   -0.96342E-03   -0.96301E-03  5760   0.362E-02 0.163E-04
 gam= 0.809 trial= 0.455  step= 0.496 mean= 0.455
 gam= 0.977 g(H,U,f)=  0.172E-02 0.161E-02 0.208E-03 ort(H,U,f) =-0.655E-03 0.749E-03-0.128E-03
CGA: 192    -0.222730749986E+03   -0.89645E-03   -0.90110E-03  5760   0.353E-02-0.343E-04
 gam= 0.977 trial= 0.457  step= 0.400 mean= 0.457
 gam= 0.702 g(H,U,f)=  0.150E-02 0.955E-03 0.292E-04 ort(H,U,f) =-0.665E-03 0.698E-03-0.277E-04
CGA: 193    -0.222731450307E+03   -0.70032E-03   -0.69948E-03  5760   0.248E-02 0.519E-05
 gam= 0.702 trial= 0.455  step= 0.446 mean= 0.455
 gam= 0.000 g(H,U,f)=  0.126E-02 0.784E-03 0.218E-04 ort(H,U,f) =-0.271E-03 0.285E-03-0.685E-05
SDA: 194    -0.222732004682E+03   -0.55437E-03   -0.55425E-03  5760   0.207E-02 0.713E-05
 gam= 0.000 trial= 0.454  step= 0.502 mean= 0.454
 gam= 0.731 g(H,U,f)=  0.542E-03 0.772E-03 0.198E-03 ort(H,U,f) = 0.237E-03-0.146E-03-0.647E-04
CGA: 195    -0.222732522516E+03   -0.51783E-03   -0.51910E-03  5760   0.151E-02 0.262E-04
 gam= 0.731 trial= 0.457  step= 0.315 mean= 0.457
 gam= 0.799 g(H,U,f)=  0.386E-03 0.673E-03 0.148E-03 ort(H,U,f) = 0.192E-03 0.447E-05-0.132E-03
CGA: 196    -0.222732776594E+03   -0.25408E-03   -0.24106E-03  5760   0.121E-02 0.644E-04
 gam= 0.799 trial= 0.449  step= 0.462 mean= 0.449
 gam= 0.442 g(H,U,f)=  0.242E-03 0.287E-03 0.496E-05 ort(H,U,f) =-0.160E-03 0.139E-03-0.701E-05
CGA: 197    -0.222733066685E+03   -0.29009E-03   -0.29058E-03  5760   0.533E-03-0.278E-04
 gam= 0.442 trial= 0.450  step= 0.676 mean= 0.450
 gam= 0.632 g(H,U,f)=  0.143E-03 0.190E-03 0.410E-05 ort(H,U,f) =-0.105E-03 0.102E-03-0.158E-05
CGA: 198    -0.222733241567E+03   -0.17488E-03   -0.17598E-03  5760   0.337E-03-0.485E-05
 gam= 0.632 trial= 0.461  step= 0.634 mean= 0.461
 gam= 1.456 g(H,U,f)=  0.152E-03 0.289E-03 0.494E-04 ort(H,U,f) =-0.545E-04 0.705E-04-0.107E-04
CGA: 199    -0.222733346141E+03   -0.10457E-03   -0.10581E-03  5760   0.490E-03 0.528E-05
 gam= 1.456 trial= 0.470  step= 0.450 mean= 0.470
 gam= 1.127 g(H,U,f)=  0.170E-03 0.302E-03 0.807E-04 ort(H,U,f) =-0.109E-03 0.167E-03-0.432E-04
CGA: 200    -0.222733458996E+03   -0.11285E-03   -0.11212E-03  5760   0.553E-03 0.149E-04
 gam= 1.127 trial= 0.469  step= 0.474 mean= 0.469
 gam= 0.952 g(H,U,f)=  0.220E-03 0.288E-03 0.179E-04 ort(H,U,f) =-0.156E-03 0.152E-03-0.147E-04
CGA: 201    -0.222733593749E+03   -0.13475E-03   -0.13495E-03  5760   0.526E-03-0.194E-04
 gam= 0.952 trial= 0.469  step= 0.882 mean= 0.469
 gam= 1.467 g(H,U,f)=  0.329E-03 0.423E-03 0.198E-04 ort(H,U,f) =-0.138E-03 0.137E-03-0.414E-05
CGA: 202    -0.222733815866E+03   -0.22212E-03   -0.22369E-03  5760   0.772E-03-0.490E-05
 gam= 1.467 trial= 0.490  step= 0.613 mean= 0.490
 gam= 1.041 g(H,U,f)=  0.308E-03 0.389E-03 0.107E-03 ort(H,U,f) =-0.161E-03 0.215E-03-0.317E-04
CGA: 203    -0.222734047743E+03   -0.23188E-03   -0.23437E-03  5760   0.803E-03 0.218E-04
 gam= 1.041 trial= 0.496  step= 0.331 mean= 0.496
 gam= 0.849 g(H,U,f)=  0.298E-03 0.322E-03 0.619E-04 ort(H,U,f) =-0.727E-04 0.175E-03-0.568E-04
CGA: 204    -0.222734195589E+03   -0.14785E-03   -0.13650E-03  5760   0.682E-03 0.459E-04
 gam= 0.849 trial= 0.488  step= 0.755 mean= 0.488
 gam= 0.992 g(H,U,f)=  0.322E-03 0.340E-03 0.137E-04 ort(H,U,f) =-0.148E-03 0.125E-03-0.625E-05
CGA: 205    -0.222734459289E+03   -0.26370E-03   -0.27186E-03  5760   0.676E-03-0.287E-04
 gam= 0.992 trial= 0.501  step= 0.556 mean= 0.501
 gam= 0.836 g(H,U,f)=  0.248E-03 0.252E-03 0.660E-04 ort(H,U,f) =-0.122E-03 0.140E-03-0.171E-04
CGA: 206    -0.222734638330E+03   -0.17904E-03   -0.17991E-03  5760   0.565E-03 0.105E-05
 gam= 0.836 trial= 0.504  step= 0.397 mean= 0.504
 gam= 1.053 g(H,U,f)=  0.216E-03 0.312E-03 0.665E-04 ort(H,U,f) =-0.356E-04 0.122E-03-0.510E-04
CGA: 207    -0.222734755840E+03   -0.11751E-03   -0.11240E-03  5760   0.595E-03 0.357E-04
 gam= 1.053 trial= 0.498  step= 0.550 mean= 0.498
 gam= 1.069 g(H,U,f)=  0.233E-03 0.388E-03 0.153E-04 ort(H,U,f) =-0.118E-03 0.101E-03-0.496E-05
CGA: 208    -0.222734927993E+03   -0.17215E-03   -0.17392E-03  5760   0.636E-03-0.214E-04
 gam= 1.069 trial= 0.501  step= 0.505 mean= 0.501
 gam= 0.741 g(H,U,f)=  0.254E-03 0.201E-03 0.161E-04 ort(H,U,f) =-0.180E-03 0.192E-03-0.732E-05
CGA: 209    -0.222735082706E+03   -0.15471E-03   -0.15473E-03  5760   0.472E-03 0.493E-05
 gam= 0.741 trial= 0.501  step= 0.668 mean= 0.501
 gam= 1.361 g(H,U,f)=  0.244E-03 0.278E-03 0.120E-03 ort(H,U,f) =-0.888E-04 0.129E-03-0.239E-04
CGA: 210    -0.222735235307E+03   -0.15260E-03   -0.15887E-03  5760   0.642E-03 0.167E-04
 gam= 1.361 trial= 0.510  step= 0.345 mean= 0.510
 gam= 0.813 g(H,U,f)=  0.227E-03 0.266E-03 0.286E-04 ort(H,U,f) =-0.105E-03 0.163E-03-0.404E-04
CGA: 211    -0.222735360056E+03   -0.12475E-03   -0.11455E-03  5760   0.522E-03 0.175E-04
 gam= 0.813 trial= 0.501  step= 0.510 mean= 0.501
 gam= 0.706 g(H,U,f)=  0.185E-03 0.183E-03 0.136E-06 ort(H,U,f) =-0.980E-04 0.898E-04 0.849E-06
CGA: 212    -0.222735496661E+03   -0.13661E-03   -0.13668E-03  5760   0.368E-03-0.737E-05
 gam= 0.706 trial= 0.502  step= 0.586 mean= 0.502
 gam= 0.780 g(H,U,f)=  0.152E-03 0.136E-03 0.677E-07 ort(H,U,f) =-0.441E-04 0.433E-04 0.123E-06
CGA: 213    -0.222735602911E+03   -0.10625E-03   -0.10630E-03  5760   0.287E-03-0.684E-06
 gam= 0.780 trial= 0.506  step= 0.682 mean= 0.506
 gam= 0.659 g(H,U,f)=  0.103E-03 0.852E-04 0.789E-06 ort(H,U,f) =-0.547E-04 0.525E-04-0.135E-05
CGA: 214    -0.222735700486E+03   -0.97575E-04   -0.97762E-04  5760   0.189E-03-0.359E-05
 gam= 0.659 trial= 0.515  step= 0.688 mean= 0.515
 gam= 1.179 g(H,U,f)=  0.865E-04 0.130E-03 0.703E-05 ort(H,U,f) =-0.241E-04 0.273E-04-0.960E-06
CGA: 215    -0.222735764626E+03   -0.64140E-04   -0.64254E-04  5760   0.223E-03 0.216E-05
 gam= 1.179 trial= 0.523  step= 0.378 mean= 0.523
 gam= 0.884 g(H,U,f)=  0.727E-04 0.105E-03 0.195E-04 ort(H,U,f) =-0.275E-04 0.481E-04-0.103E-04
CGA: 216    -0.222735808207E+03   -0.43581E-04   -0.42673E-04  5760   0.197E-03 0.103E-04
 gam= 0.884 trial= 0.516  step= 0.452 mean= 0.516
 gam= 0.979 g(H,U,f)=  0.782E-04 0.101E-03 0.134E-04 ort(H,U,f) =-0.430E-04 0.560E-04-0.861E-05
CGA: 217    -0.222735855932E+03   -0.47725E-04   -0.46646E-04  5760   0.193E-03 0.445E-05
 gam= 0.979 trial= 0.513  step= 0.544 mean= 0.513
 gam= 0.881 g(H,U,f)=  0.919E-04 0.703E-04 0.790E-05 ort(H,U,f) =-0.618E-04 0.584E-04-0.344E-05
CGA: 218    -0.222735909127E+03   -0.53195E-04   -0.53662E-04  5760   0.170E-03-0.690E-05
 gam= 0.881 trial= 0.514  step= 0.651 mean= 0.514
 gam= 1.553 g(H,U,f)=  0.908E-04 0.150E-03 0.234E-04 ort(H,U,f) =-0.291E-04 0.390E-04-0.780E-05
CGA: 219    -0.222735961554E+03   -0.52427E-04   -0.53350E-04  5760   0.264E-03 0.209E-05
 gam= 1.553 trial= 0.521  step= 0.377 mean= 0.521
 gam= 0.723 g(H,U,f)=  0.782E-04 0.102E-03 0.107E-04 ort(H,U,f) =-0.558E-04 0.684E-04-0.686E-05
CGA: 220    -0.222736014640E+03   -0.53086E-04   -0.50452E-04  5760   0.191E-03 0.579E-05
 gam= 0.723 trial= 0.514  step= 0.509 mean= 0.514
 gam= 0.955 g(H,U,f)=  0.959E-04 0.797E-04 0.696E-05 ort(H,U,f) =-0.431E-04 0.479E-04-0.379E-05
CGA: 221    -0.222736064331E+03   -0.49691E-04   -0.49673E-04  5760   0.183E-03 0.983E-06
 gam= 0.955 trial= 0.514  step= 0.792 mean= 0.514
 gam= 1.706 g(H,U,f)=  0.119E-03 0.156E-03 0.366E-04 ort(H,U,f) =-0.425E-04 0.505E-04-0.646E-05
CGA: 222    -0.222736131646E+03   -0.67315E-04   -0.72627E-04  5760   0.311E-03 0.148E-05
 gam= 1.706 trial= 0.528  step= 0.318 mean= 0.528
 gam= 0.619 g(H,U,f)=  0.981E-04 0.853E-04 0.945E-05 ort(H,U,f) =-0.732E-04 0.924E-04-0.136E-04
CGA: 223    -0.222736185766E+03   -0.54120E-04   -0.49981E-04  5760   0.193E-03 0.562E-05
 gam= 0.619 trial= 0.517  step= 0.520 mean= 0.517
 gam= 1.102 g(H,U,f)=  0.911E-04 0.120E-03 0.953E-06 ort(H,U,f) =-0.267E-04 0.227E-04-0.408E-06
CGA: 224    -0.222736236830E+03   -0.51063E-04   -0.51082E-04  5760   0.212E-03-0.443E-05
 gam= 1.102 trial= 0.517  step= 0.584 mean= 0.517
 gam= 0.000 g(H,U,f)=  0.789E-04 0.696E-04 0.440E-07 ort(H,U,f) =-0.425E-04 0.435E-04 0.154E-06
SDA: 225    -0.222736297464E+03   -0.60634E-04   -0.60573E-04  5760   0.149E-03 0.124E-05
 gam= 0.000 trial= 0.521  step= 0.434 mean= 0.521
 gam= 0.464 g(H,U,f)=  0.284E-04 0.406E-04 0.571E-07 ort(H,U,f) = 0.859E-05-0.101E-04-0.202E-07
CGA: 226    -0.222736329762E+03   -0.32298E-04   -0.32228E-04  5760   0.690E-04-0.149E-05
 gam= 0.464 trial= 0.516  step= 0.706 mean= 0.516
 gam= 0.999 g(H,U,f)=  0.242E-04 0.446E-04 0.125E-06 ort(H,U,f) =-0.895E-05 0.885E-05 0.501E-07
CGA: 227    -0.222736353876E+03   -0.24114E-04   -0.24115E-04  5760   0.689E-04-0.594E-07
 gam= 0.999 trial= 0.526  step= 0.702 mean= 0.526
 gam= 0.843 g(H,U,f)=  0.271E-04 0.309E-04 0.182E-06 ort(H,U,f) =-0.187E-04 0.198E-04-0.172E-07
CGA: 228    -0.222736378052E+03   -0.24176E-04   -0.24172E-04  5760   0.581E-04 0.102E-05
 gam= 0.843 trial= 0.535  step= 0.786 mean= 0.535
 gam= 1.133 g(H,U,f)=  0.306E-04 0.339E-04 0.135E-05 ort(H,U,f) =-0.179E-04 0.174E-04-0.411E-06
CGA: 229    -0.222736401046E+03   -0.22994E-04   -0.23179E-04  5760   0.659E-04-0.921E-06
 gam= 1.133 trial= 0.547  step= 0.632 mean= 0.547
 gam= 1.577 g(H,U,f)=  0.351E-04 0.565E-04 0.122E-04 ort(H,U,f) =-0.154E-04 0.215E-04-0.266E-05
CGA: 230    -0.222736421230E+03   -0.20184E-04   -0.20485E-04  5760   0.104E-03 0.342E-05
 gam= 1.577 trial= 0.552  step= 0.325 mean= 0.552
 gam= 0.734 g(H,U,f)=  0.351E-04 0.368E-04 0.435E-05 ort(H,U,f) =-0.198E-04 0.287E-04-0.488E-05
CGA: 231    -0.222736440357E+03   -0.19127E-04   -0.17763E-04  5760   0.763E-04 0.395E-05
 gam= 0.734 trial= 0.540  step= 0.738 mean= 0.540
 gam= 0.903 g(H,U,f)=  0.357E-04 0.329E-04 0.332E-06 ort(H,U,f) =-0.197E-04 0.164E-04-0.242E-06
CGA: 232    -0.222736468892E+03   -0.28535E-04   -0.29211E-04  5760   0.689E-04-0.356E-05
 gam= 0.903 trial= 0.550  step= 1.019 mean= 0.550
 gam= 1.020 g(H,U,f)=  0.400E-04 0.300E-04 0.194E-06 ort(H,U,f) =-0.192E-04 0.185E-04-0.159E-06
CGA: 233    -0.222736502176E+03   -0.33284E-04   -0.33440E-04  5760   0.703E-04-0.870E-06
 gam= 1.020 trial= 0.574  step= 0.878 mean= 0.574
 gam= 1.247 g(H,U,f)=  0.352E-04 0.504E-04 0.199E-05 ort(H,U,f) =-0.136E-04 0.137E-04-0.309E-06
CGA: 234    -0.222736532495E+03   -0.30318E-04   -0.30440E-04  5760   0.876E-04-0.136E-06
 gam= 1.247 trial= 0.589  step= 0.524 mean= 0.589
 gam= 1.216 g(H,U,f)=  0.355E-04 0.582E-04 0.128E-04 ort(H,U,f) =-0.131E-04 0.218E-04-0.418E-05
CGA: 235    -0.222736555518E+03   -0.23023E-04   -0.22921E-04  5760   0.106E-03 0.453E-05
 gam= 1.216 trial= 0.586  step= 0.409 mean= 0.586
 gam= 1.049 g(H,U,f)=  0.382E-04 0.665E-04 0.706E-05 ort(H,U,f) =-0.175E-04 0.300E-04-0.566E-05
CGA: 236    -0.222736579773E+03   -0.24255E-04   -0.22874E-04  5760   0.112E-03 0.679E-05
 gam= 1.049 trial= 0.577  step= 0.543 mean= 0.577
 gam= 0.880 g(H,U,f)=  0.444E-04 0.518E-04 0.214E-05 ort(H,U,f) =-0.328E-04 0.301E-04-0.590E-06
CGA: 237    -0.222736612264E+03   -0.32491E-04   -0.32283E-04  5760   0.983E-04-0.334E-05
 gam= 0.880 trial= 0.575  step= 0.838 mean= 0.575
 gam= 1.422 g(H,U,f)=  0.601E-04 0.672E-04 0.125E-04 ort(H,U,f) =-0.266E-04 0.294E-04-0.393E-05
CGA: 238    -0.222736651031E+03   -0.38767E-04   -0.39976E-04  5760   0.140E-03-0.105E-05
 gam= 1.422 trial= 0.588  step= 0.457 mean= 0.588
 gam= 1.164 g(H,U,f)=  0.571E-04 0.861E-04 0.195E-04 ort(H,U,f) =-0.232E-04 0.424E-04-0.847E-05
CGA: 239    -0.222736684328E+03   -0.33297E-04   -0.31597E-04  5760   0.163E-03 0.107E-04
 gam= 1.164 trial= 0.582  step= 0.359 mean= 0.582
 gam= 0.623 g(H,U,f)=  0.499E-04 0.498E-04 0.171E-05 ort(H,U,f) =-0.293E-04 0.326E-04-0.283E-05
CGA: 240    -0.222736716960E+03   -0.32632E-04   -0.31403E-04  5760   0.101E-03 0.503E-06
 gam= 0.623 trial= 0.570  step= 1.091 mean= 0.570
 gam= 1.066 g(H,U,f)=  0.531E-04 0.534E-04 0.147E-05 ort(H,U,f) =-0.250E-04 0.204E-04 0.558E-07
CGA: 241    -0.222736770845E+03   -0.53885E-04   -0.55455E-04  5760   0.108E-03-0.455E-05
 gam= 1.066 trial= 0.596  step= 0.523 mean= 0.596
 gam= 0.875 g(H,U,f)=  0.404E-04 0.482E-04 0.589E-05 ort(H,U,f) =-0.114E-04 0.158E-04-0.310E-05
CGA: 242    -0.222736797859E+03   -0.27014E-04   -0.26994E-04  5760   0.945E-04 0.138E-05
 gam= 0.875 trial= 0.593  step= 0.389 mean= 0.593
 gam= 0.981 g(H,U,f)=  0.358E-04 0.475E-04 0.943E-05 ort(H,U,f) =-0.200E-05 0.146E-04-0.411E-05
CGA: 243    -0.222736817517E+03   -0.19658E-04   -0.18621E-04  5760   0.927E-04 0.854E-05
 gam= 0.981 trial= 0.583  step= 0.472 mean= 0.583
 gam= 0.674 g(H,U,f)=  0.298E-04 0.275E-04 0.517E-05 ort(H,U,f) =-0.147E-04 0.182E-04-0.401E-05
CGA: 244    -0.222736842080E+03   -0.24564E-04   -0.23843E-04  5760   0.625E-04-0.467E-06
 gam= 0.674 trial= 0.577  step= 0.587 mean= 0.577
 gam= 0.986 g(H,U,f)=  0.246E-04 0.291E-04 0.799E-05 ort(H,U,f) =-0.910E-05 0.127E-04-0.304E-05
CGA: 245    -0.222736860284E+03   -0.18204E-04   -0.18260E-04  5760   0.616E-04 0.610E-06
 gam= 0.986 trial= 0.578  step= 0.318 mean= 0.578
 gam= 0.674 g(H,U,f)=  0.177E-04 0.219E-04 0.190E-05 ort(H,U,f) =-0.321E-05 0.817E-05-0.243E-05
CGA: 246    -0.222736871197E+03   -0.10912E-04   -0.98888E-05  5760   0.415E-04 0.253E-05
 gam= 0.674 trial= 0.565  step= 0.492 mean= 0.565
 gam= 0.612 g(H,U,f)=  0.125E-04 0.127E-04 0.155E-06 ort(H,U,f) =-0.484E-05 0.482E-05-0.103E-06
CGA: 247    -0.222736881874E+03   -0.10677E-04   -0.10642E-04  5760   0.254E-04-0.129E-06
 gam= 0.612 trial= 0.561  step= 0.744 mean= 0.561
 gam= 0.669 g(H,U,f)=  0.889E-05 0.738E-05 0.741E-06 ort(H,U,f) =-0.462E-05 0.432E-05-0.202E-06
CGA: 248    -0.222736891222E+03   -0.93487E-05   -0.94236E-05  5760   0.170E-04-0.498E-06
 gam= 0.669 trial= 0.570  step= 0.474 mean= 0.570
 gam= 1.181 g(H,U,f)=  0.731E-05 0.102E-04 0.261E-05 ort(H,U,f) =-0.215E-06 0.249E-05-0.113E-05
CGA: 249    -0.222736895235E+03   -0.40129E-05   -0.39508E-05  5760   0.201E-04 0.114E-05
 gam= 1.181 trial= 0.565  step= 0.366 mean= 0.565
 gam= 0.671 g(H,U,f)=  0.536E-05 0.729E-05 0.825E-06 ort(H,U,f) =-0.198E-05 0.321E-05-0.713E-06
CGA: 250    -0.222736899456E+03   -0.42202E-05   -0.39241E-05  5760   0.135E-04 0.512E-06
 gam= 0.671 trial= 0.555  step= 0.578 mean= 0.555
 gam= 0.795 g(H,U,f)=  0.487E-05 0.548E-05 0.347E-06 ort(H,U,f) =-0.300E-05 0.294E-05-0.215E-06
CGA: 251    -0.222736903436E+03   -0.39801E-05   -0.39931E-05  5760   0.107E-04-0.269E-06
 gam= 0.795 trial= 0.557  step= 0.539 mean= 0.557
 gam= 1.244 g(H,U,f)=  0.499E-05 0.690E-05 0.142E-05 ort(H,U,f) =-0.166E-05 0.220E-05-0.329E-06
CGA: 252    -0.222736906278E+03   -0.28428E-05   -0.28289E-05  5760   0.133E-04 0.211E-06
 gam= 1.244 trial= 0.556  step= 0.432 mean= 0.556
 gam= 0.952 g(H,U,f)=  0.480E-05 0.675E-05 0.113E-05 ort(H,U,f) =-0.219E-05 0.314E-05-0.886E-06
CGA: 253    -0.222736909306E+03   -0.30276E-05   -0.29339E-05  5760   0.127E-04 0.644E-07
 gam= 0.952 trial= 0.549  step= 0.461 mean= 0.549
 gam= 0.624 g(H,U,f)=  0.407E-05 0.356E-05 0.287E-06 ort(H,U,f) =-0.280E-05 0.273E-05-0.129E-06
CGA: 254    -0.222736912296E+03   -0.29897E-05   -0.29346E-05  5760   0.791E-05-0.193E-06
 gam= 0.624 trial= 0.545  step= 0.689 mean= 0.545
 gam= 1.077 g(H,U,f)=  0.360E-05 0.409E-05 0.837E-06 ort(H,U,f) =-0.134E-05 0.178E-05-0.345E-06
CGA: 255    -0.222736914954E+03   -0.26585E-05   -0.26850E-05  5760   0.852E-05 0.958E-07
 gam= 1.077 trial= 0.552  step= 0.369 mean= 0.552
 gam= 0.000 g(H,U,f)=  0.338E-05 0.422E-05 0.798E-06 ort(H,U,f) =-0.540E-06 0.156E-05-0.466E-06
SDA: 256    -0.222736916674E+03   -0.17193E-05   -0.15922E-05  5760   0.840E-05 0.551E-06
 gam= 0.000 trial= 0.543  step= 0.194 mean= 0.543
 gam= 0.470 g(H,U,f)=  0.176E-05 0.191E-05 0.281E-06 ort(H,U,f) = 0.165E-05-0.189E-07-0.471E-06
CGA: 257    -0.222736917644E+03   -0.96997E-06   -0.81260E-06  5760   0.395E-05 0.116E-05
 gam= 0.470 trial= 0.526  step= 0.765 mean= 0.526
 gam= 1.129 g(H,U,f)=  0.172E-05 0.274E-05 0.519E-08 ort(H,U,f) =-0.874E-06 0.726E-06-0.855E-08
CGA: 258    -0.222736919331E+03   -0.16876E-05   -0.17186E-05  5760   0.446E-05-0.156E-06
 gam= 1.129 trial= 0.538  step= 0.584 mean= 0.538
 gam= 1.114 g(H,U,f)=  0.230E-05 0.247E-05 0.197E-06 ort(H,U,f) =-0.146E-05 0.164E-05-0.277E-07
CGA: 259    -0.222736920583E+03   -0.12522E-05   -0.12502E-05  5760   0.497E-05 0.156E-06
 gam= 1.114 trial= 0.540  step= 0.450 mean= 0.540
 gam= 1.299 g(H,U,f)=  0.239E-05 0.321E-05 0.846E-06 ort(H,U,f) =-0.131E-05 0.203E-05-0.343E-06
CGA: 260    -0.222736921770E+03   -0.11870E-05   -0.11564E-05  5760   0.645E-05 0.383E-06
 gam= 1.299 trial= 0.535  step= 0.413 mean= 0.535
 gam= 0.825 g(H,U,f)=  0.257E-05 0.262E-05 0.137E-06 ort(H,U,f) =-0.227E-05 0.234E-05-0.162E-06
CGA: 261    -0.222736923236E+03   -0.14658E-05   -0.14330E-05  5760   0.532E-05-0.932E-07
 gam= 0.825 trial= 0.529  step= 0.665 mean= 0.529
 gam= 0.914 g(H,U,f)=  0.301E-05 0.182E-05 0.442E-07 ort(H,U,f) =-0.188E-05 0.217E-05 0.203E-08
CGA: 262    -0.222736925000E+03   -0.17639E-05   -0.17441E-05  5760   0.487E-05 0.296E-06
 gam= 0.914 trial= 0.536  step= 0.716 mean= 0.536
 gam= 1.433 g(H,U,f)=  0.316E-05 0.317E-05 0.645E-06 ort(H,U,f) =-0.105E-05 0.154E-05-0.172E-06
CGA: 263    -0.222736926840E+03   -0.18402E-05   -0.18391E-05  5760   0.698E-05 0.322E-06
 gam= 1.433 trial= 0.545  step= 0.324 mean= 0.545
 gam= 0.897 g(H,U,f)=  0.299E-05 0.276E-05 0.508E-06 ort(H,U,f) =-0.751E-06 0.143E-05-0.356E-06
CGA: 264    -0.222736928150E+03   -0.13098E-05   -0.12053E-05  5760   0.626E-05 0.321E-06
 gam= 0.897 trial= 0.534  step= 0.643 mean= 0.534
 gam= 1.033 g(H,U,f)=  0.318E-05 0.327E-05 0.125E-07 ort(H,U,f) =-0.134E-05 0.904E-06-0.215E-07
CGA: 265    -0.222736930221E+03   -0.20711E-05   -0.21053E-05  5760   0.647E-05-0.456E-06
 gam= 1.033 trial= 0.539  step= 0.514 mean= 0.539
 gam= 0.613 g(H,U,f)=  0.236E-05 0.148E-05 0.119E-06 ort(H,U,f) =-0.121E-05 0.146E-05-0.648E-07
CGA: 266    -0.222736931759E+03   -0.15382E-05   -0.15409E-05  5760   0.396E-05 0.191E-06
 gam= 0.613 trial= 0.538  step= 0.481 mean= 0.538
 gam= 1.115 g(H,U,f)=  0.186E-05 0.228E-05 0.279E-06 ort(H,U,f) =-0.124E-06 0.503E-06-0.120E-06
CGA: 267    -0.222736932739E+03   -0.98001E-06   -0.98112E-06  5760   0.442E-05 0.259E-06
 gam= 1.115 trial= 0.535  step= 0.396 mean= 0.535
 final diagonalization
   1 F= -.23205247E+03 E0= -.23205033E+03  d E =-.427124E-02  mag=     6.0000
