 vasp.5.4.4.18Apr17-6-g9f103f2a35 (build Nov 22 2021 14:44:17) complex          
  
 executed on             LinuxIFC date 2022.08.06  11:40:42
 running on   64 total cores
 distrk:  each k-point on   64 cores,    1 groups
 distr:  one band on NCORES_PER_BAND=   4 cores,   16 groups


--------------------------------------------------------------------------------------------------------


 INCAR:
 POTCAR:    PAW_PBE Li 17Jan2003                  
 POTCAR:    PAW_PBE Co 02Aug2007                  
 POTCAR:    PAW_PBE O 08Apr2002                   
 POTCAR:    PAW_PBE Li 17Jan2003                  
   VRHFIN =Li: s1p0                                                             
   LEXCH  = PE                                                                  
   EATOM  =     5.3001 eV,    0.3895 Ry                                         
                                                                                
   TITEL  = PAW_PBE Li 17Jan2003                                                
   LULTRA =        F    use ultrasoft PP ?                                      
   IUNSCR =        1    unscreen: 0-lin 1-nonlin 2-no                           
   RPACOR =    1.500    partial core radius                                     
   POMASS =    7.010; ZVAL   =    1.000    mass and valenz                      
   RCORE  =    2.050    outmost cutoff radius                                   
   RWIGS  =    2.600; RWIGS  =    1.376    wigner-seitz radius (au A)           
   ENMAX  =  140.000; ENMIN  =  100.000 eV                                      
   ICORE  =        2    local potential                                         
   LCOR   =        T    correct aug charges                                     
   LPAW   =        T    paw PP                                                  
   EAUG   =  331.638                                                            
   DEXC   =    0.000                                                            
   RMAX   =    2.098    core radius for proj-oper                               
   RAUG   =    1.300    factor for augmentation sphere                          
   RDEP   =    2.094    radius for radial grids                                 
   RDEPT  =    1.810    core radius for aug-charge                              
                                                                                
   Atomic configuration                                                         
    4 entries                                                                   
     n  l   j            E        occ.                                          
     1  0  0.50       -51.8549   2.0000                                         
     2  0  0.50        -2.8742   1.0000                                         
     2  1  0.50        -1.3606   0.0000                                         
     3  2  1.50        -1.3606   0.0000                                         
   Description                                                                  
     l       E           TYP  RCUT    TYP  RCUT                                 
     0     -2.8742052     23  2.050                                             
     0     27.2116520     23  2.050                                             
     1     -1.3605826     23  2.050                                             
     2     -1.3605826     23  2.050                                             
  local pseudopotential read in
  partial core-charges read in
  partial kinetic energy density read in
  atomic valenz-charges read in
  non local Contribution for L=           0  read in
    real space projection operators read in
  non local Contribution for L=           0  read in
    real space projection operators read in
  non local Contribution for L=           1  read in
    real space projection operators read in
    PAW grid and wavefunctions read in
 
   number of l-projection  operators is LMAX  =           3
   number of lm-projection operators is LMMAX =           5
 
 POTCAR:    PAW_PBE Co 02Aug2007                  
   VRHFIN =Co: d8 s1                                                            
   LEXCH  = PE                                                                  
   EATOM  =   813.3670 eV,   59.7808 Ry                                         
                                                                                
   TITEL  = PAW_PBE Co 02Aug2007                                                
   LULTRA =        F    use ultrasoft PP ?                                      
   IUNSCR =        1    unscreen: 0-lin 1-nonlin 2-no                           
   RPACOR =    2.000    partial core radius                                     
   POMASS =   58.933; ZVAL   =    9.000    mass and valenz                      
   RCORE  =    2.300    outmost cutoff radius                                   
   RWIGS  =    2.460; RWIGS  =    1.302    wigner-seitz radius (au A)           
   ENMAX  =  267.968; ENMIN  =  200.976 eV                                      
   RCLOC  =    1.203    cutoff for local pot                                    
   LCOR   =        T    correct aug charges                                     
   LPAW   =        T    paw PP                                                  
   EAUG   =  477.818                                                            
   DEXC   =    0.000                                                            
   RMAX   =    2.360    core radius for proj-oper                               
   RAUG   =    1.300    factor for augmentation sphere                          
   RDEP   =    2.393    radius for radial grids                                 
   RDEPT  =    1.864    core radius for aug-charge                              
                                                                                
   Atomic configuration                                                         
    9 entries                                                                   
     n  l   j            E        occ.                                          
     1  0  0.50     -7587.6674   2.0000                                         
     2  0  0.50      -893.6084   2.0000                                         
     2  1  1.50      -764.5805   6.0000                                         
     3  0  0.50       -97.5973   2.0000                                         
     3  1  1.50       -60.9648   6.0000                                         
     3  2  2.50        -4.2382   8.0000                                         
     4  0  0.50        -4.3746   1.0000                                         
     4  1  1.50        -4.0817   0.0000                                         
     4  3  2.50        -1.3606   0.0000                                         
   Description                                                                  
     l       E           TYP  RCUT    TYP  RCUT                                 
     2     -4.2382362     23  2.300                                             
     2     -5.5988188     23  2.300                                             
     0     -4.3745797     23  2.300                                             
     0      5.7660125     23  2.300                                             
     1     -2.7211652     23  2.300                                             
     1     16.9860234     23  2.300                                             
  local pseudopotential read in
  partial core-charges read in
  partial kinetic energy density read in
  atomic valenz-charges read in
  non local Contribution for L=           2  read in
    real space projection operators read in
  non local Contribution for L=           2  read in
    real space projection operators read in
  non local Contribution for L=           0  read in
    real space projection operators read in
  non local Contribution for L=           0  read in
    real space projection operators read in
  non local Contribution for L=           1  read in
    real space projection operators read in
  non local Contribution for L=           1  read in
    real space projection operators read in
    PAW grid and wavefunctions read in
 
   number of l-projection  operators is LMAX  =           6
   number of lm-projection operators is LMMAX =          18
 
 POTCAR:    PAW_PBE O 08Apr2002                   
   VRHFIN =O: s2p4                                                              
   LEXCH  = PE                                                                  
   EATOM  =   432.3788 eV,   31.7789 Ry                                         
                                                                                
   TITEL  = PAW_PBE O 08Apr2002                                                 
   LULTRA =        F    use ultrasoft PP ?                                      
   IUNSCR =        1    unscreen: 0-lin 1-nonlin 2-no                           
   RPACOR =    1.200    partial core radius                                     
   POMASS =   16.000; ZVAL   =    6.000    mass and valenz                      
   RCORE  =    1.520    outmost cutoff radius                                   
   RWIGS  =    1.550; RWIGS  =    0.820    wigner-seitz radius (au A)           
   ENMAX  =  400.000; ENMIN  =  300.000 eV                                      
   ICORE  =        2    local potential                                         
   LCOR   =        T    correct aug charges                                     
   LPAW   =        T    paw PP                                                  
   EAUG   =  605.392                                                            
   DEXC   =    0.000                                                            
   RMAX   =    1.553    core radius for proj-oper                               
   RAUG   =    1.300    factor for augmentation sphere                          
   RDEP   =    1.550    radius for radial grids                                 
   RDEPT  =    1.329    core radius for aug-charge                              
                                                                                
   Atomic configuration                                                         
    4 entries                                                                   
     n  l   j            E        occ.                                          
     1  0  0.50      -514.6923   2.0000                                         
     2  0  0.50       -23.9615   2.0000                                         
     2  1  0.50        -9.0305   4.0000                                         
     3  2  1.50        -9.5241   0.0000                                         
   Description                                                                  
     l       E           TYP  RCUT    TYP  RCUT                                 
     0    -23.9615318     23  1.200                                             
     0     -9.5240782     23  1.200                                             
     1     -9.0304911     23  1.520                                             
     1      8.1634956     23  1.520                                             
     2     -9.5240782      7  1.500                                             
  local pseudopotential read in
  partial core-charges read in
  partial kinetic energy density read in
  kinetic energy density of atom read in
  atomic valenz-charges read in
  non local Contribution for L=           0  read in
    real space projection operators read in
  non local Contribution for L=           0  read in
    real space projection operators read in
  non local Contribution for L=           1  read in
    real space projection operators read in
  non local Contribution for L=           1  read in
    real space projection operators read in
    PAW grid and wavefunctions read in
 
   number of l-projection  operators is LMAX  =           4
   number of lm-projection operators is LMMAX =           8
 
 Optimization of the real space projectors (new method)

 maximal supplied QI-value         = 18.33
 optimisation between [QCUT,QGAM] = [ 12.46, 24.93] = [ 43.51,174.03] Ry 
 Optimized for a Real-space Cutoff    1.13 Angstroem

   l    n(q)    QCUT    max X(q) W(low)/X(q) W(high)/X(q)  e(spline) 
   0      8    12.465    33.825    0.12E-03    0.29E-03    0.99E-07
   0      8    12.465     8.944    0.86E-04    0.22E-03    0.72E-07
   1      8    12.465     4.214    0.27E-03    0.11E-03    0.82E-07
 Optimization of the real space projectors (new method)

 maximal supplied QI-value         = 16.25
 optimisation between [QCUT,QGAM] = [ 12.51, 25.03] = [ 43.85,175.40] Ry 
 Optimized for a Real-space Cutoff    1.31 Angstroem

   l    n(q)    QCUT    max X(q) W(low)/X(q) W(high)/X(q)  e(spline) 
   2      9    12.514    65.824    0.30E-03    0.46E-03    0.43E-06
   2      9    12.514    61.429    0.31E-03    0.46E-03    0.44E-06
   0     10    12.514    56.174    0.90E-04    0.33E-03    0.30E-06
   0     10    12.514    31.263    0.81E-04    0.30E-03    0.28E-06
   1      9    12.514    19.828    0.38E-03    0.65E-04    0.24E-06
   1      9    12.514    15.139    0.32E-03    0.60E-04    0.20E-06
 Optimization of the real space projectors (new method)

 maximal supplied QI-value         = 24.76
 optimisation between [QCUT,QGAM] = [ 12.38, 25.00] = [ 42.90,175.06] Ry 
 Optimized for a Real-space Cutoff    1.13 Angstroem

   l    n(q)    QCUT    max X(q) W(low)/X(q) W(high)/X(q)  e(spline) 
   0      8    12.378    20.381    0.16E-03    0.54E-05    0.27E-06
   0      8    12.378    15.268    0.17E-03    0.61E-05    0.29E-06
   1      8    12.378     5.964    0.38E-03    0.23E-03    0.28E-06
   1      8    12.378     5.382    0.33E-03    0.20E-03    0.25E-06
  PAW_PBE Li 17Jan2003                  :
 energy of atom  1       EATOM=   -5.3001
 kinetic energy error for atom=    0.0000 (will be added to EATOM!!)
  PAW_PBE Co 02Aug2007                  :
 energy of atom  2       EATOM= -813.3670
 kinetic energy error for atom=    0.0018 (will be added to EATOM!!)
  PAW_PBE O 08Apr2002                   :
 energy of atom  3       EATOM= -432.3788
 kinetic energy error for atom=    0.0168 (will be added to EATOM!!)
 
 
 POSCAR: Li6 Co12 O24                            
  positions in cartesian coordinates
  No initial velocities read in
 exchange correlation table for  LEXCH =        8
   RHO(1)=    0.500       N(1)  =     2000
   RHO(2)=  100.500       N(2)  =     4000
 


--------------------------------------------------------------------------------------------------------


 ion  position               nearest neighbor table
   1  0.983  0.980  0.996-  38 1.96  25 2.00  26 2.04  36 2.21  35 2.32   2 2.43  23 2.59  18 2.72
                            17 2.81  10 2.84  15 2.94   8 3.07   7 3.08   2 3.22
   2  0.581  0.038  0.006-  25 1.96  37 2.01  24 2.06  38 2.12  23 2.25  36 2.27   1 2.43   9 2.75
                            17 2.81  10 2.87  15 2.94   8 2.96  16 3.05   1 3.22
   3  0.837  0.162  0.337-  31 2.00  19 2.06  34 2.06  20 2.13  33 2.27  21 2.38  12 2.70  11 2.78
                             4 2.82   7 2.86   4 2.90  13 2.91  10 2.93   9 3.03
   4  0.727  0.614  0.323-  22 1.89  33 1.96  34 2.16  19 2.16  20 2.20  32 2.25  10 2.60   9 2.79
                             3 2.82  14 2.85   3 2.90   8 2.91  12 3.01  11 3.17
   5  0.320  0.413  0.686-  42 1.89  40 2.06  39 2.11  27 2.28  28 2.35  30 2.57  16 2.65  14 2.69
                            15 2.74  17 2.77   6 3.04   6 3.25
   6  0.040  0.792  0.661-  27 1.95  39 2.03  30 2.16  40 2.19  28 2.20  18 2.56  42 2.57  11 2.76
                            13 2.87   5 3.04  12 3.05   5 3.25
   7  0.175  0.336  0.164-  22 1.81  23 1.83  25 1.90  19 1.90  24 1.94  20 1.96   8 2.71   9 2.76
                            10 2.76  10 2.81   3 2.86   9 2.86   8 2.89   1 3.08
   8  0.174  0.850  0.172-  23 1.76  26 1.78  21 1.82  19 1.86  24 1.87  20 1.87   9 2.61   7 2.71
                            10 2.76  10 2.85   7 2.89   4 2.91   9 2.95   2 2.96   1 3.07
   9  0.654  0.313  0.166-  23 1.70  21 1.79  22 1.97  20 1.99  25 2.02  26 2.03   8 2.61  10 2.72
                             2 2.75   7 2.76   4 2.79   7 2.86  10 2.88   8 2.95   3 3.03
  10  0.677  0.839  0.174-  19 1.86  26 1.92  21 1.97  22 1.97  25 1.99  24 2.05   4 2.60   9 2.72
                             7 2.76   8 2.76   7 2.81   1 2.84   8 2.85   2 2.87   9 2.88   3 2.93
  11  0.905  0.954  0.502-  31 1.75  30 1.80  29 1.87  34 1.89  27 1.92  32 1.95  13 2.75   6 2.76
                            14 2.77   3 2.78  12 2.79  14 2.80  12 2.82  13 2.86   4 3.17
  12  0.922  0.461  0.489-  32 1.83  29 1.90  30 1.91  31 1.98  33 2.02  28 2.04   3 2.70  13 2.76
                            11 2.79  14 2.80  13 2.80  11 2.82  14 2.82   4 3.01   6 3.05
  13  0.405  0.969  0.492-  28 1.81  33 1.89  27 1.91  34 1.94  29 1.96  32 2.05  14 2.65  11 2.75
                            12 2.76  12 2.80  11 2.86   6 2.87   3 2.91  14 2.95
  14  0.410  0.445  0.499-  33 1.84  31 1.85  27 1.85  30 1.90  28 1.96  34 2.01  13 2.65   5 2.69
                            11 2.77  11 2.80  12 2.80  12 2.82   4 2.85  13 2.95
  15  0.417  0.196  0.838-  36 1.80  37 1.80  39 1.86  42 1.86  41 1.91  35 2.00  18 2.71  17 2.73
                            16 2.73   5 2.74  18 2.85  16 2.87  17 2.89   1 2.94   2 2.94
  16  0.416  0.708  0.833-  35 1.78  40 1.83  42 1.86  38 1.87  36 1.89  41 1.92   5 2.65  18 2.73
                            15 2.73  17 2.78  17 2.78  15 2.87  18 2.88   2 3.05
  17  0.912  0.211  0.834-  38 1.84  37 1.84  35 1.84  40 1.90  41 1.90  39 2.02  15 2.73  18 2.74
                             5 2.77  16 2.78  16 2.78   1 2.81   2 2.81  18 2.86  15 2.89
  18  0.929  0.709  0.837-  39 1.81  40 1.87  36 1.92  38 1.96  37 1.97  42 1.99   6 2.56  15 2.71
                             1 2.72  16 2.73  17 2.74  15 2.85  17 2.86  16 2.88
  19  0.988  0.997  0.239-   8 1.86  10 1.86   7 1.90   3 2.06   4 2.16
  20  0.987  0.498  0.236-   8 1.87   7 1.96   9 1.99   3 2.13   4 2.20
  21  0.474  0.999  0.239-   9 1.79   8 1.82  10 1.97   3 2.38
  22  0.455  0.466  0.238-   7 1.81   4 1.89   9 1.97  10 1.97
  23  0.362  0.176  0.110-   9 1.70   8 1.76   7 1.83   2 2.25   1 2.59
  24  0.343  0.697  0.097-   8 1.87   7 1.94  10 2.05   2 2.06
  25  0.877  0.180  0.089-   7 1.90   2 1.96  10 1.99   1 2.00   9 2.02
  26  0.887  0.704  0.105-   8 1.78  10 1.92   9 2.03   1 2.04
  27  0.224  0.112  0.571-  14 1.85  13 1.91  11 1.92   6 1.95   5 2.28
  28  0.256  0.650  0.564-  13 1.81  14 1.96  12 2.04   6 2.20   5 2.35
  29  0.726  0.122  0.564-  11 1.87  12 1.90  13 1.96
  30  0.739  0.614  0.561-  11 1.80  14 1.90  12 1.91   6 2.16   5 2.57
  31  0.104  0.265  0.433-  11 1.75  14 1.85  12 1.98   3 2.00
  32  0.064  0.789  0.419-  12 1.83  11 1.95  13 2.05   4 2.25
  33  0.581  0.311  0.420-  14 1.84  13 1.89   4 1.96  12 2.02   3 2.27
  34  0.607  0.814  0.427-  11 1.89  13 1.94  14 2.01   3 2.06   4 2.16
  35  0.223  0.380  0.897-  16 1.78  17 1.84  15 2.00   1 2.32
  36  0.248  0.870  0.906-  15 1.80  16 1.89  18 1.92   1 2.21   2 2.27
  37  0.715  0.339  0.904-  15 1.80  17 1.84  18 1.97   2 2.01
  38  0.727  0.872  0.900-  17 1.84  16 1.87   1 1.96  18 1.96   2 2.12
  39  0.113  0.038  0.769-  18 1.81  15 1.86  17 2.02   6 2.03   5 2.11
  40  0.112  0.562  0.767-  16 1.83  18 1.87  17 1.90   5 2.06   6 2.19
  41  0.606  0.057  0.762-  17 1.90  15 1.91  16 1.92
  42  0.589  0.539  0.772-  16 1.86  15 1.86   5 1.89  18 1.99   6 2.57
 

IMPORTANT INFORMATION: All symmetrisations will be switched off!
NOSYMM: (Re-)initialisation of all symmetry stuff for point group C_1.

 
 

Automatic generation of k-mesh.
 generate k-points for:    6    6    2
Space group operators:
 irot       det(A)        alpha          n_x          n_y          n_z        tau_x        tau_y        tau_z
    1     1.000000     0.000000     1.000000     0.000000     0.000000     0.000000     0.000000     0.000000
 
 Subroutine IBZKPT returns following result:
 ===========================================
 
 Found     36 irreducible k-points:
 
 Following reciprocal coordinates:
            Coordinates               Weight
  0.083333  0.083333  0.250000      2.000000
  0.250000  0.083333  0.250000      2.000000
  0.416667  0.083333  0.250000      2.000000
 -0.416667  0.083333  0.250000      2.000000
 -0.250000  0.083333  0.250000      2.000000
 -0.083333  0.083333  0.250000      2.000000
  0.083333  0.250000  0.250000      2.000000
  0.250000  0.250000  0.250000      2.000000
  0.416667  0.250000  0.250000      2.000000
 -0.416667  0.250000  0.250000      2.000000
 -0.250000  0.250000  0.250000      2.000000
 -0.083333  0.250000  0.250000      2.000000
  0.083333  0.416667  0.250000      2.000000
  0.250000  0.416667  0.250000      2.000000
  0.416667  0.416667  0.250000      2.000000
 -0.416667  0.416667  0.250000      2.000000
 -0.250000  0.416667  0.250000      2.000000
 -0.083333  0.416667  0.250000      2.000000
  0.083333 -0.416667  0.250000      2.000000
  0.250000 -0.416667  0.250000      2.000000
  0.416667 -0.416667  0.250000      2.000000
 -0.416667 -0.416667  0.250000      2.000000
 -0.250000 -0.416667  0.250000      2.000000
 -0.083333 -0.416667  0.250000      2.000000
  0.083333 -0.250000  0.250000      2.000000
  0.250000 -0.250000  0.250000      2.000000
  0.416667 -0.250000  0.250000      2.000000
 -0.416667 -0.250000  0.250000      2.000000
 -0.250000 -0.250000  0.250000      2.000000
 -0.083333 -0.250000  0.250000      2.000000
  0.083333 -0.083333  0.250000      2.000000
  0.250000 -0.083333  0.250000      2.000000
  0.416667 -0.083333  0.250000      2.000000
 -0.416667 -0.083333  0.250000      2.000000
 -0.250000 -0.083333  0.250000      2.000000
 -0.083333 -0.083333  0.250000      2.000000
 
 Following cartesian coordinates:
            Coordinates               Weight
  0.014853  0.026038  0.014402      2.000000
  0.044559  0.043540  0.010824      2.000000
  0.074266  0.061042  0.007247      2.000000
 -0.074266 -0.026467  0.025135      2.000000
 -0.044559 -0.008965  0.021558      2.000000
 -0.014853  0.008536  0.017980      2.000000
  0.014853  0.060613  0.012146      2.000000
  0.044559  0.078115  0.008568      2.000000
  0.074266  0.095617  0.004991      2.000000
 -0.074266  0.008107  0.022879      2.000000
 -0.044559  0.025609  0.019302      2.000000
 -0.014853  0.043111  0.015724      2.000000
  0.014853  0.095188  0.009890      2.000000
  0.044559  0.112690  0.006312      2.000000
  0.074266  0.130191  0.002735      2.000000
 -0.074266  0.042682  0.020623      2.000000
 -0.044559  0.060184  0.017046      2.000000
 -0.014853  0.077686  0.013468      2.000000
  0.014853 -0.077686  0.021170      2.000000
  0.044559 -0.060184  0.017592      2.000000
  0.074266 -0.042682  0.014014      2.000000
 -0.074266 -0.130191  0.031903      2.000000
 -0.044559 -0.112690  0.028325      2.000000
 -0.014853 -0.095188  0.024747      2.000000
  0.014853 -0.043111  0.018914      2.000000
  0.044559 -0.025609  0.015336      2.000000
  0.074266 -0.008107  0.011758      2.000000
 -0.074266 -0.095617  0.029647      2.000000
 -0.044559 -0.078115  0.026069      2.000000
 -0.014853 -0.060613  0.022492      2.000000
  0.014853 -0.008536  0.016658      2.000000
  0.044559  0.008965  0.013080      2.000000
  0.074266  0.026467  0.009502      2.000000
 -0.074266 -0.061042  0.027391      2.000000
 -0.044559 -0.043540  0.023813      2.000000
 -0.014853 -0.026038  0.020236      2.000000
 


--------------------------------------------------------------------------------------------------------




 Dimension of arrays:
   k-points           NKPTS =     36   k-points in BZ     NKDIM =     36   number of bands    NBANDS=    160
   number of dos      NEDOS =    301   number of ions     NIONS =     42
   non local maximal  LDIM  =      6   non local SUM 2l+1 LMDIM =     18
   total plane-waves  NPLWV = 116640
   max r-space proj   IRMAX =   2842   max aug-charges    IRDMAX=  11981
   dimension x,y,z NGX =    36 NGY =   36 NGZ =   90
   dimension x,y,z NGXF=    72 NGYF=   72 NGZF=  180
   support grid    NGXF=    72 NGYF=   72 NGZF=  180
   ions per type =               6  12  24
   NGX,Y,Z   is equivalent  to a cutoff of  10.67, 10.70, 10.31 a.u.
   NGXF,Y,Z  is equivalent  to a cutoff of  21.33, 21.39, 20.62 a.u.

 SYSTEM =  LiCoO2                                  
 POSCAR =  Li6 Co12 O24                            

 Startparameter for this run:
   NWRITE =      2    write-flag & timer
   PREC   = normal    normal or accurate (medium, high low for compatibility)
   ISTART =      0    job   : 0-new  1-cont  2-samecut
   ICHARG =      2    charge: 1-file 2-atom 10-const
   ISPIN  =      2    spin polarized calculation?
   LNONCOLLINEAR =      F non collinear calculations
   LSORBIT =      F    spin-orbit coupling
   INIWAV =      1    electr: 0-lowe 1-rand  2-diag
   LASPH  =      F    aspherical Exc in radial PAW
   METAGGA=      F    non-selfconsistent MetaGGA calc.

 Electronic Relaxation 1
   ENCUT  =  600.0 eV  44.10 Ry    6.64 a.u.  11.21 11.17 28.99*2*pi/ulx,y,z
   ENINI  =  600.0     initial cutoff
   ENAUG  =  605.4 eV  augmentation charge cutoff
   NELM   =    600;   NELMIN=  2; NELMDL= -5     # of ELM steps 
   EDIFF  = 0.1E-05   stopping-criterion for ELM
   LREAL  =      T    real-space projection
   NLSPLINE    = F    spline interpolate recip. space projectors
   LCOMPAT=      F    compatible to vasp.4.4
   GGA_COMPAT  = T    GGA compatible to vasp.4.4-vasp.4.6
   LMAXPAW     = -100 max onsite density
   LMAXMIX     =    2 max onsite mixed and CHGCAR
   VOSKOWN=      0    Vosko Wilk Nusair interpolation
   ROPT   =   -0.00050  -0.00050  -0.00050
 Ionic relaxation
   EDIFFG = 0.1E-04   stopping-criterion for IOM
   NSW    =      0    number of steps for IOM
   NBLOCK =      1;   KBLOCK =      1    inner block; outer block 
   IBRION =     -1    ionic relax: 0-MD 1-quasi-New 2-CG
   NFREE  =      0    steps in history (QN), initial steepest desc. (CG)
   ISIF   =      2    stress and relaxation
   IWAVPR =     10    prediction:  0-non 1-charg 2-wave 3-comb
   ISYM   =      0    0-nonsym 1-usesym 2-fastsym
   LCORR  =      T    Harris-Foulkes like correction to forces

   POTIM  = 0.5000    time-step for ionic-motion
   TEIN   =    0.0    initial temperature
   TEBEG  =    0.0;   TEEND  =   0.0 temperature during run
   SMASS  =  -3.00    Nose mass-parameter (am)
   estimated Nose-frequenzy (Omega)   =  0.10E-29 period in steps =****** mass=  -0.719E-27a.u.
   SCALEE = 1.0000    scale energy and forces
   NPACO  =    256;   APACO  = 16.0  distance and # of slots for P.C.
   PSTRESS=    0.0 pullay stress

  Mass of Ions in am
   POMASS =   7.01 58.93 16.00
  Ionic Valenz
   ZVAL   =   1.00  9.00  6.00
  Atomic Wigner-Seitz radii
   RWIGS  =  -1.00 -1.00 -1.00
  virtual crystal weights 
   VCA    =   1.00  1.00  1.00
   NELECT =     258.0000    total number of electrons
   NUPDOWN=       6.0000    fix difference up-down

 DOS related values:
   EMIN   =  10.00;   EMAX   =-10.00  energy-range for DOS
   EFERMI =   0.00
   ISMEAR =     0;   SIGMA  =   0.05  broadening in eV -4-tet -1-fermi 0-gaus

 Electronic relaxation 2 (details)
   IALGO  =     58    algorithm
   LDIAG  =      T    sub-space diagonalisation (order eigenvalues)
   LSUBROT=      F    optimize rotation matrix (better conditioning)
   TURBO    =      0    0=normal 1=particle mesh
   IRESTART =      0    0=no restart 2=restart with 2 vectors
   NREBOOT  =      0    no. of reboots
   NMIN     =      0    reboot dimension
   EREF     =   0.00    reference energy to select bands
   IMIX   =      4    mixing-type and parameters
     AMIX     =   0.40;   BMIX     =  1.00
     AMIX_MAG =   1.60;   BMIX_MAG =  1.00
     AMIN     =   0.10
     WC   =   100.;   INIMIX=   1;  MIXPRE=   1;  MAXMIX= -45

 Intra band minimization:
   WEIMIN = 0.0000     energy-eigenvalue tresh-hold
   EBREAK =  0.16E-08  absolut break condition
   DEPER  =   0.30     relativ break condition  

   TIME   =   0.40     timestep for ELM

  volume/ion in A,a.u.               =       9.30        62.73
  Fermi-wavevector in a.u.,A,eV,Ry     =   1.425972  2.694697 27.666039  2.033396
  Thomas-Fermi vector in A             =   2.546299
 
 Write flags
   LWAVE        =      F    write WAVECAR
   LDOWNSAMPLE  =      F    k-point downsampling of WAVECAR
   LCHARG       =      F    write CHGCAR
   LVTOT        =      F    write LOCPOT, total local potential
   LVHAR        =      F    write LOCPOT, Hartree potential only
   LELF         =      F    write electronic localiz. function (ELF)
   LORBIT       =     11    0 simple, 1 ext, 2 COOP (PROOUT), +10 PAW based schemes


 Dipole corrections
   LMONO  =      F    monopole corrections only (constant potential shift)
   LDIPOL =      F    correct potential (dipole corrections)
   IDIPOL =      0    1-x, 2-y, 3-z, 4-all directions 
   EPSILON=  1.0000000 bulk dielectric constant

 LDA+U is selected, type is set to LDAUTYPE =  2
   angular momentum for each species LDAUL =    -1    2   -1
   U (eV)           for each species LDAUU =   0.0  5.1  0.0
   J (eV)           for each species LDAUJ =   0.0  0.0  0.0
 Exchange correlation treatment:
   GGA     =    --    GGA type
   LEXCH   =     8    internal setting for exchange type
   VOSKOWN=      0    Vosko Wilk Nusair interpolation
   LHFCALC =     F    Hartree Fock is set to
   LHFONE  =     F    Hartree Fock one center treatment
   AEXX    =    0.0000 exact exchange contribution

 Linear response parameters
   LEPSILON=     F    determine dielectric tensor
   LRPA    =     F    only Hartree local field effects (RPA)
   LNABLA  =     F    use nabla operator in PAW spheres
   LVEL    =     F    velocity operator in full k-point grid
   LINTERFAST=   F  fast interpolation
   KINTER  =     0    interpolate to denser k-point grid
   CSHIFT  =0.1000    complex shift for real part using Kramers Kronig
   OMEGAMAX=  -1.0    maximum frequency
   DEG_THRESHOLD= 0.2000000E-02 threshold for treating states as degnerate
   RTIME   =   -0.100 relaxation time in fs
  (WPLASMAI=    0.000 imaginary part of plasma frequency in eV, 0.658/RTIME)
   DFIELD  = 0.0000000 0.0000000 0.0000000 field for delta impulse in time
 
 Orbital magnetization related:
   ORBITALMAG=     F  switch on orbital magnetization
   LCHIMAG   =     F  perturbation theory with respect to B field
   DQ        =  0.001000  dq finite difference perturbation B field
   LLRAUG    =     F  two centre corrections for induced B field



--------------------------------------------------------------------------------------------------------


 Static calculation
 charge density and potential will be updated during run
 spin polarized calculation
 Conjugate gradient for all bands (Freysoldt, et al. PRB 79, 241103 (2009))
 preconditioned conjugated gradient                                        
 perform sub-space diagonalisation
    before iterative eigenvector-optimisation
 modified Broyden-mixing scheme, WC =      100.0
 initial mixing is a Kerker type mixing with AMIX =  0.4000 and BMIX =      1.0000
 Hartree-type preconditioning will be used
 using additional bands           31
 real space projection scheme for non local part
 use partial core corrections
 no Harris-corrections to forces 
 use gradient corrections 
 use of overlap-Matrix (Vanderbilt PP)
 Gauss-broadening in eV      SIGMA  =   0.05


--------------------------------------------------------------------------------------------------------


  energy-cutoff  :      600.00
  volume of cell :      390.40
      direct lattice vectors                 reciprocal lattice vectors
     5.610480309  0.000000000  0.000000000     0.178237859  0.105011067 -0.021466487
    -2.840043545  4.820475578  0.000000000     0.000000000  0.207448411 -0.013535420
     1.183625937  0.941852272 14.435145378     0.000000000  0.000000000  0.069275367

  length of vectors
     5.610480309  5.594893398 14.514181966     0.207982857  0.207889516  0.069275367


 
 k-points in units of 2pi/SCALE and weight: read from INCAR                         
   0.01485315  0.02603829  0.01440202       0.028
   0.04455946  0.04354013  0.01082427       0.028
   0.07426577  0.06104198  0.00724652       0.028
  -0.07426577 -0.02646724  0.02513526       0.028
  -0.04455946 -0.00896540  0.02155751       0.028
  -0.01485315  0.00853645  0.01797976       0.028
   0.01485315  0.06061303  0.01214611       0.028
   0.04455946  0.07811487  0.00856837       0.028
   0.07426577  0.09561671  0.00499062       0.028
  -0.07426577  0.00810749  0.02287936       0.028
  -0.04455946  0.02560934  0.01930161       0.028
  -0.01485315  0.04311118  0.01572386       0.028
   0.01485315  0.09518776  0.00989021       0.028
   0.04455946  0.11268960  0.00631246       0.028
   0.07426577  0.13019145  0.00273471       0.028
  -0.07426577  0.04268223  0.02062345       0.028
  -0.04455946  0.06018407  0.01704571       0.028
  -0.01485315  0.07768592  0.01346796       0.028
   0.01485315 -0.07768592  0.02116973       0.028
   0.04455946 -0.06018407  0.01759198       0.028
   0.07426577 -0.04268223  0.01401423       0.028
  -0.07426577 -0.13019145  0.03190297       0.028
  -0.04455946 -0.11268960  0.02832522       0.028
  -0.01485315 -0.09518776  0.02474747       0.028
   0.01485315 -0.04311118  0.01891382       0.028
   0.04455946 -0.02560934  0.01533608       0.028
   0.07426577 -0.00810749  0.01175833       0.028
  -0.07426577 -0.09561671  0.02964707       0.028
  -0.04455946 -0.07811487  0.02606932       0.028
  -0.01485315 -0.06061303  0.02249157       0.028
   0.01485315 -0.00853645  0.01665792       0.028
   0.04455946  0.00896540  0.01308017       0.028
   0.07426577  0.02646724  0.00950242       0.028
  -0.07426577 -0.06104198  0.02739116       0.028
  -0.04455946 -0.04354013  0.02381342       0.028
  -0.01485315 -0.02603829  0.02023567       0.028
 
 k-points in reciprocal lattice and weights: read from INCAR                         
   0.08333333  0.08333333  0.25000000       0.028
   0.25000000  0.08333333  0.25000000       0.028
   0.41666667  0.08333333  0.25000000       0.028
  -0.41666667  0.08333333  0.25000000       0.028
  -0.25000000  0.08333333  0.25000000       0.028
  -0.08333333  0.08333333  0.25000000       0.028
   0.08333333  0.25000000  0.25000000       0.028
   0.25000000  0.25000000  0.25000000       0.028
   0.41666667  0.25000000  0.25000000       0.028
  -0.41666667  0.25000000  0.25000000       0.028
  -0.25000000  0.25000000  0.25000000       0.028
  -0.08333333  0.25000000  0.25000000       0.028
   0.08333333  0.41666667  0.25000000       0.028
   0.25000000  0.41666667  0.25000000       0.028
   0.41666667  0.41666667  0.25000000       0.028
  -0.41666667  0.41666667  0.25000000       0.028
  -0.25000000  0.41666667  0.25000000       0.028
  -0.08333333  0.41666667  0.25000000       0.028
   0.08333333 -0.41666667  0.25000000       0.028
   0.25000000 -0.41666667  0.25000000       0.028
   0.41666667 -0.41666667  0.25000000       0.028
  -0.41666667 -0.41666667  0.25000000       0.028
  -0.25000000 -0.41666667  0.25000000       0.028
  -0.08333333 -0.41666667  0.25000000       0.028
   0.08333333 -0.25000000  0.25000000       0.028
   0.25000000 -0.25000000  0.25000000       0.028
   0.41666667 -0.25000000  0.25000000       0.028
  -0.41666667 -0.25000000  0.25000000       0.028
  -0.25000000 -0.25000000  0.25000000       0.028
  -0.08333333 -0.25000000  0.25000000       0.028
   0.08333333 -0.08333333  0.25000000       0.028
   0.25000000 -0.08333333  0.25000000       0.028
   0.41666667 -0.08333333  0.25000000       0.028
  -0.41666667 -0.08333333  0.25000000       0.028
  -0.25000000 -0.08333333  0.25000000       0.028
  -0.08333333 -0.08333333  0.25000000       0.028
 
 position of ions in fractional coordinates (direct lattice) 
   0.98339089  0.98020539  0.99571218
   0.58148445  0.03823810  0.00565287
   0.83673248  0.16204142  0.33742369
   0.72695779  0.61405094  0.32301509
   0.32046592  0.41270225  0.68554143
   0.03967174  0.79195724  0.66093133
   0.17543813  0.33567851  0.16391106
   0.17441758  0.85010938  0.17240354
   0.65436339  0.31284674  0.16567343
   0.67673549  0.83858506  0.17357428
   0.90470084  0.95400672  0.50220625
   0.92228686  0.46081728  0.48879383
   0.40478242  0.96927209  0.49187935
   0.40966641  0.44491182  0.49943454
   0.41732061  0.19566136  0.83846400
   0.41560655  0.70757365  0.83346233
   0.91151829  0.21074322  0.83432132
   0.92936870  0.70887477  0.83745259
   0.98763147  0.99730641  0.23938866
   0.98742926  0.49818241  0.23568865
   0.47395344  0.99914818  0.23884899
   0.45504395  0.46573948  0.23807797
   0.36223146  0.17608336  0.10955484
   0.34297928  0.69652542  0.09727231
   0.87700415  0.18045129  0.08857965
   0.88718312  0.70366147  0.10529994
   0.22391074  0.11223218  0.57094681
   0.25643738  0.64966363  0.56384886
   0.72632994  0.12168960  0.56352599
   0.73879408  0.61369968  0.56089009
   0.10422088  0.26547264  0.43341788
   0.06389743  0.78912861  0.41923236
   0.58077025  0.31111023  0.41963137
   0.60725955  0.81442296  0.42727938
   0.22292922  0.38010525  0.89738270
   0.24795577  0.87021867  0.90649243
   0.71471723  0.33863602  0.90365905
   0.72690666  0.87165817  0.90009142
   0.11316180  0.03809339  0.76936879
   0.11229256  0.56184671  0.76725586
   0.60626169  0.05658735  0.76203248
   0.58942059  0.53888297  0.77150940
 
 position of ions in cartesian coordinates  (Angst):
   3.91201997  5.66286993 14.37325001
   3.16050005  0.18965000  0.08160000
   4.63364983  1.09891999  4.87075996
   2.71697998  3.26425004  4.66276979
   1.43729997  2.63509989  9.89589024
  -1.24432004  4.44011021  9.54063988
   0.22496000  1.77251005  2.36608005
  -1.23171997  4.26031017  2.48867011
   2.97888994  1.66410995  2.39152002
   1.62064004  4.20586014  2.50556993
   2.96080995  5.07177019  7.24942017
   4.44428015  2.68173003  7.05580997
   0.10045000  5.13563013  7.10034990
   1.62600005  2.61508012  7.20941019
   2.77811003  1.73289001 12.10334969
   1.30871999  4.19583988 12.03114986
   5.50305986  1.80168998 12.04354954
   4.19220018  4.20587015 12.08874989
   2.99203992  5.03295994  3.45561004
   4.40405989  2.62346005  3.40219998
   0.10419000  5.04132986  3.44781995
   1.51208997  2.46932006  3.43669009
   1.66188002  0.95199001  1.58143997
   0.06125000  3.44919991  1.40414000
   4.51277018  0.95328999  1.27866006
   3.10372996  3.49115992  1.52002001
   1.61328995  1.07876003  8.24170017
   0.26104999  3.66275001  8.13924026
   4.39646006  1.11736000  8.13457966
   3.06593990  3.48659992  8.09652996
   0.34378001  1.68791997  6.25645018
  -1.38645005  4.19883013  6.05168009
   2.87152004  1.89493001  6.05743980
   1.59976006  4.32834005  6.16784000
   1.23338997  2.67749000 12.95384979
  -0.00736000  5.04864979 13.08535004
   4.11776018  2.48350000 13.04444981
   2.66811991  5.04956007 12.99295044
   1.43735003  0.90825999 11.10595036
  -0.05751000  3.43101001 11.07544994
   4.14267015  0.99049997 11.00004959
   2.68966007  3.32432008 11.13685036
 


--------------------------------------------------------------------------------------------------------


 k-point  1 :   0.0833 0.0833 0.2500  plane waves:   13011
 k-point  2 :   0.2500 0.0833 0.2500  plane waves:   13030
 k-point  3 :   0.4167 0.0833 0.2500  plane waves:   13046
 k-point  4 :  -0.4167 0.0833 0.2500  plane waves:   13027
 k-point  5 :  -0.2500 0.0833 0.2500  plane waves:   13007
 k-point  6 :  -0.0833 0.0833 0.2500  plane waves:   13019
 k-point  7 :   0.0833 0.2500 0.2500  plane waves:   13040
 k-point  8 :   0.2500 0.2500 0.2500  plane waves:   13045
 k-point  9 :   0.4167 0.2500 0.2500  plane waves:   13036
 k-point 10 :  -0.4167 0.2500 0.2500  plane waves:   13015
 k-point 11 :  -0.2500 0.2500 0.2500  plane waves:   13011
 k-point 12 :  -0.0833 0.2500 0.2500  plane waves:   13005
 k-point 13 :   0.0833 0.4167 0.2500  plane waves:   13045
 k-point 14 :   0.2500 0.4167 0.2500  plane waves:   13046
 k-point 15 :   0.4167 0.4167 0.2500  plane waves:   13047
 k-point 16 :  -0.4167 0.4167 0.2500  plane waves:   13027
 k-point 17 :  -0.2500 0.4167 0.2500  plane waves:   13029
 k-point 18 :  -0.0833 0.4167 0.2500  plane waves:   13033
 k-point 19 :   0.0833-0.4167 0.2500  plane waves:   13045
 k-point 20 :   0.2500-0.4167 0.2500  plane waves:   13033
 k-point 21 :   0.4167-0.4167 0.2500  plane waves:   13032
 k-point 22 :  -0.4167-0.4167 0.2500  plane waves:   13043
 k-point 23 :  -0.2500-0.4167 0.2500  plane waves:   13050
 k-point 24 :  -0.0833-0.4167 0.2500  plane waves:   13041
 k-point 25 :   0.0833-0.2500 0.2500  plane waves:   13028
 k-point 26 :   0.2500-0.2500 0.2500  plane waves:   12997
 k-point 27 :   0.4167-0.2500 0.2500  plane waves:   13032
 k-point 28 :  -0.4167-0.2500 0.2500  plane waves:   13042
 k-point 29 :  -0.2500-0.2500 0.2500  plane waves:   13036
 k-point 30 :  -0.0833-0.2500 0.2500  plane waves:   13039
 k-point 31 :   0.0833-0.0833 0.2500  plane waves:   13027
 k-point 32 :   0.2500-0.0833 0.2500  plane waves:   13015
 k-point 33 :   0.4167-0.0833 0.2500  plane waves:   13029
 k-point 34 :  -0.4167-0.0833 0.2500  plane waves:   13034
 k-point 35 :  -0.2500-0.0833 0.2500  plane waves:   13035
 k-point 36 :  -0.0833-0.0833 0.2500  plane waves:   13013

 maximum and minimum number of plane-waves per node :      3286     3222

 maximum number of plane-waves:     13050
 maximum index in each direction: 
   IXMAX=   11   IYMAX=   11   IZMAX=   28
   IXMIN=  -11   IYMIN=  -11   IZMIN=  -29


 real space projection operators:
  total allocation   :       7588.44 KBytes
  max/ min on nodes  :       1903.41       1887.80


 parallel 3D FFT for wavefunctions:
    minimum data exchange during FFTs selected (reduces bandwidth)
 parallel 3D FFT for charge:
    minimum data exchange during FFTs selected (reduces bandwidth)


 total amount of memory used by VASP MPI-rank0   158795. kBytes
=======================================================================

   base      :      30000. kBytes
   nonlr-proj:       4340. kBytes
   fftplans  :       1689. kBytes
   grid      :       4644. kBytes
   one-center:        342. kBytes
   wavefun   :     117780. kBytes
 
     INWAV:  cpu time    0.0000: real time    0.0002
 Broyden mixing: mesh for mixing (old mesh)
   NGX = 23   NGY = 23   NGZ = 57
  (NGX  = 72   NGY  = 72   NGZ  =180)
  gives a total of  30153 points

 initial charge density was supplied:
 charge density of overlapping atoms calculated
 number of electron     258.0000000 magnetization       6.0000000
 keeping initial charge density in first step


--------------------------------------------------------------------------------------------------------


 Maximum index for non-local projection operator          694
 Maximum index for augmentation-charges         1018 (set IRDMAX)


--------------------------------------------------------------------------------------------------------


 First call to EWALD:  gamma=   0.243
 Maximum number of real-space cells 4x 4x 2
 Maximum number of reciprocal cells 2x 2x 5

    FEWALD:  cpu time    0.0049: real time    0.0050


--------------------------------------- Iteration      1(   1)  ---------------------------------------


    POTLOK:  cpu time    0.0752: real time    0.0880
    SETDIJ:  cpu time    0.0200: real time    0.0207
    TRIAL :  cpu time   25.5468: real time   25.6214
    CORREC:  cpu time    0.0041: real time    0.0041
    --------------------------------------------
      LOOP:  cpu time   25.8698: real time   25.9629

 eigenvalue-minimisations  : 23040
 total energy-change (2. order) : 0.3495752E+04  (-0.1393544E+05)
 number of electron     258.0000000 magnetization       6.0000000
 augmentation part      258.0000000 magnetization       6.0000000

 Free energy of the ion-electron system (eV)
  ---------------------------------------------------
  alpha Z        PSCENC =       750.93719555
  Ewald energy   TEWEN  =    -13739.97893216
  -Hartree energ DENC   =     -7288.93365678
  -exchange      EXHF   =         0.00000000
  -V(xc)+E(xc)   XCENC  =       844.23367392
  PAW double counting   =     17015.18481625   -17491.61297812
  entropy T*S    EENTRO =        -0.00782742
  eigenvalues    EBANDS =      3237.05850271
  atomic energy  EATOM  =     20168.87094289
  ---------------------------------------------------
  free energy    TOTEN  =      3495.75173684 eV

  energy without entropy =     3495.75956426  energy(sigma->0) =     3495.75565055


--------------------------------------------------------------------------------------------------------




--------------------------------------- Iteration      1(   2)  ---------------------------------------


    TRIAL :  cpu time   26.9065: real time   26.9347
    CORREC:  cpu time    0.0045: real time    0.0045
    --------------------------------------------
      LOOP:  cpu time   26.9150: real time   26.9432

 eigenvalue-minimisations  : 24768
 total energy-change (2. order) :-0.3078968E+04  (-0.2838008E+04)
 number of electron     258.0000000 magnetization       6.0000000
 augmentation part      258.0000000 magnetization       6.0000000

 Free energy of the ion-electron system (eV)
  ---------------------------------------------------
  alpha Z        PSCENC =       750.93719555
  Ewald energy   TEWEN  =    -13739.97893216
  -Hartree energ DENC   =     -7288.93365678
  -exchange      EXHF   =         0.00000000
  -V(xc)+E(xc)   XCENC  =       844.23367392
  PAW double counting   =     17015.18481625   -17491.61297812
  entropy T*S    EENTRO =        -0.02136592
  eigenvalues    EBANDS =       158.10404835
  atomic energy  EATOM  =     20168.87094289
  ---------------------------------------------------
  free energy    TOTEN  =       416.78374398 eV

  energy without entropy =      416.80510990  energy(sigma->0) =      416.79442694


--------------------------------------------------------------------------------------------------------




--------------------------------------- Iteration      1(   3)  ---------------------------------------


    TRIAL :  cpu time   28.1706: real time   28.1951
    CORREC:  cpu time    0.0050: real time    0.0050
    --------------------------------------------
      LOOP:  cpu time   28.1796: real time   28.2041

 eigenvalue-minimisations  : 26016
 total energy-change (2. order) :-0.6339859E+03  (-0.5779908E+03)
 number of electron     258.0000000 magnetization       6.0000000
 augmentation part      258.0000000 magnetization       6.0000000

 Free energy of the ion-electron system (eV)
  ---------------------------------------------------
  alpha Z        PSCENC =       750.93719555
  Ewald energy   TEWEN  =    -13739.97893216
  -Hartree energ DENC   =     -7288.93365678
  -exchange      EXHF   =         0.00000000
  -V(xc)+E(xc)   XCENC  =       844.23367392
  PAW double counting   =     17015.18481625   -17491.61297812
  entropy T*S    EENTRO =        -0.03947246
  eigenvalues    EBANDS =      -475.86369924
  atomic energy  EATOM  =     20168.87094289
  ---------------------------------------------------
  free energy    TOTEN  =      -217.20211015 eV

  energy without entropy =     -217.16263770  energy(sigma->0) =     -217.18237392


--------------------------------------------------------------------------------------------------------




--------------------------------------- Iteration      1(   4)  ---------------------------------------


    TRIAL :  cpu time   27.3226: real time   27.3574
    CORREC:  cpu time    0.0032: real time    0.0032
    --------------------------------------------
      LOOP:  cpu time   27.3299: real time   27.3648

 eigenvalue-minimisations  : 25280
 total energy-change (2. order) :-0.5161450E+02  (-0.5052982E+02)
 number of electron     258.0000000 magnetization       6.0000000
 augmentation part      258.0000000 magnetization       6.0000000

 Free energy of the ion-electron system (eV)
  ---------------------------------------------------
  alpha Z        PSCENC =       750.93719555
  Ewald energy   TEWEN  =    -13739.97893216
  -Hartree energ DENC   =     -7288.93365678
  -exchange      EXHF   =         0.00000000
  -V(xc)+E(xc)   XCENC  =       844.23367392
  PAW double counting   =     17015.18481625   -17491.61297812
  entropy T*S    EENTRO =        -0.04377744
  eigenvalues    EBANDS =      -527.47389024
  atomic energy  EATOM  =     20168.87094289
  ---------------------------------------------------
  free energy    TOTEN  =      -268.81660613 eV

  energy without entropy =     -268.77282869  energy(sigma->0) =     -268.79471741


--------------------------------------------------------------------------------------------------------




--------------------------------------- Iteration      1(   5)  ---------------------------------------


    TRIAL :  cpu time   30.0856: real time   30.1120
    CORREC:  cpu time    0.0040: real time    0.0041
    CHARGE:  cpu time    0.5203: real time    0.5208
    --------------------------------------------
      LOOP:  cpu time   30.6143: real time   30.6411

 eigenvalue-minimisations  : 28368
 total energy-change (2. order) :-0.1759034E+01  (-0.1755782E+01)
 number of electron     257.9999991 magnetization       6.0000000
 augmentation part       68.1737018 magnetization       4.3297201

 Free energy of the ion-electron system (eV)
  ---------------------------------------------------
  alpha Z        PSCENC =       750.93719555
  Ewald energy   TEWEN  =    -13739.97893216
  -Hartree energ DENC   =     -7288.93365678
  -exchange      EXHF   =         0.00000000
  -V(xc)+E(xc)   XCENC  =       844.23367392
  PAW double counting   =     17015.18481625   -17491.61297812
  entropy T*S    EENTRO =        -0.04412345
  eigenvalues    EBANDS =      -529.23257838
  atomic energy  EATOM  =     20168.87094289
  ---------------------------------------------------
  free energy    TOTEN  =      -270.57564028 eV

  energy without entropy =     -270.53151683  energy(sigma->0) =     -270.55357856


--------------------------------------------------------------------------------------------------------




--------------------------------------- Iteration      1(   6)  ---------------------------------------


    POTLOK:  cpu time    0.0499: real time    0.0500
    SETDIJ:  cpu time    0.0139: real time    0.0139
    TRIAL :  cpu time   15.0963: real time   15.1205
    CORREC:  cpu time    4.6163: real time    4.6216
    CHARGE:  cpu time    0.5042: real time    0.5045
    --------------------------------------------
      LOOP:  cpu time   20.2855: real time   20.3153

 eigenvalue-minimisations  :     0
 total energy-change (2. order) : 0.3548490E+03  (-0.2045229E+03)
 number of electron     257.9999991 magnetization       5.9999999
 augmentation part       70.5252819 magnetization       4.4010073

 Free energy of the ion-electron system (eV)
  ---------------------------------------------------
  alpha Z        PSCENC =       750.93719555
  Ewald energy   TEWEN  =    -13739.97893216
  -Hartree energ DENC   =     -6971.79768742
  -exchange      EXHF   =         0.00000000
  -V(xc)+E(xc)   XCENC  =       878.40747150
  PAW double counting   =     24135.68056897   -24347.51912332
  entropy T*S    EENTRO =        -0.03625419
  eigenvalues    EBANDS =      -790.28297456
  atomic energy  EATOM  =     20168.87094289
  ---------------------------------------------------
  free energy    TOTEN  =        84.27333798 eV

  energy without entropy =       84.30959217  energy(sigma->0) =       84.29146507


--------------------------------------------------------------------------------------------------------




--------------------------------------- Iteration      1(   7)  ---------------------------------------


    POTLOK:  cpu time    0.0482: real time    0.0483
    SETDIJ:  cpu time    0.0134: real time    0.0134
    TRIAL :  cpu time   14.9824: real time   14.9974
    CORREC:  cpu time    4.7131: real time    4.7175
    CHARGE:  cpu time    0.5049: real time    0.5052
    --------------------------------------------
      LOOP:  cpu time   20.2663: real time   20.2861

 eigenvalue-minimisations  :     0
 total energy-change (2. order) :-0.4941626E+02  (-0.3197274E+03)
 number of electron     257.9999985 magnetization       6.0000002
 augmentation part       73.5491787 magnetization       4.0921806

 Free energy of the ion-electron system (eV)
  ---------------------------------------------------
  alpha Z        PSCENC =       750.93719555
  Ewald energy   TEWEN  =    -13739.97893216
  -Hartree energ DENC   =     -7085.17207715
  -exchange      EXHF   =         0.00000000
  -V(xc)+E(xc)   XCENC  =       870.68464056
  PAW double counting   =     24103.22240400   -24408.12873120
  entropy T*S    EENTRO =        -0.03070516
  eigenvalues    EBANDS =      -625.54210665
  atomic energy  EATOM  =     20168.87094289
  ---------------------------------------------------
  free energy    TOTEN  =        34.85708164 eV

  energy without entropy =       34.88778680  energy(sigma->0) =       34.87243422


--------------------------------------------------------------------------------------------------------




--------------------------------------- Iteration      1(   8)  ---------------------------------------


    POTLOK:  cpu time    0.0483: real time    0.0483
    SETDIJ:  cpu time    0.0134: real time    0.0134
    TRIAL :  cpu time   14.9677: real time   14.9815
    CORREC:  cpu time    4.7769: real time    4.7810
    CHARGE:  cpu time    0.5222: real time    0.5224
    --------------------------------------------
      LOOP:  cpu time   20.3328: real time   20.3510

 eigenvalue-minimisations  :     0
 total energy-change (2. order) :-0.7401957E+02  (-0.2425393E+03)
 number of electron     257.9999985 magnetization       6.0000000
 augmentation part       76.2016246 magnetization       2.8091987

 Free energy of the ion-electron system (eV)
  ---------------------------------------------------
  alpha Z        PSCENC =       750.93719555
  Ewald energy   TEWEN  =    -13739.97893216
  -Hartree energ DENC   =     -7035.79306807
  -exchange      EXHF   =         0.00000000
  -V(xc)+E(xc)   XCENC  =       855.07683212
  PAW double counting   =     23725.77085008   -24157.68816572
  entropy T*S    EENTRO =        -0.01925395
  eigenvalues    EBANDS =      -606.32744249
  atomic energy  EATOM  =     20168.87094289
  ---------------------------------------------------
  free energy    TOTEN  =       -39.16249298 eV

  energy without entropy =      -39.14323903  energy(sigma->0) =      -39.15286601


--------------------------------------------------------------------------------------------------------




--------------------------------------- Iteration      1(   9)  ---------------------------------------


    POTLOK:  cpu time    0.0487: real time    0.0487
    SETDIJ:  cpu time    0.0135: real time    0.0135
    TRIAL :  cpu time   14.6073: real time   14.6196
    CORREC:  cpu time    4.6936: real time    4.6974
    CHARGE:  cpu time    0.5227: real time    0.5229
    --------------------------------------------
      LOOP:  cpu time   19.8898: real time   19.9064

 eigenvalue-minimisations  :     0
 total energy-change (2. order) :-0.5070387E+02  (-0.4275033E+02)
 number of electron     257.9999985 magnetization       6.0000001
 augmentation part       77.8384710 magnetization       2.6532215

 Free energy of the ion-electron system (eV)
  ---------------------------------------------------
  alpha Z        PSCENC =       750.93719555
  Ewald energy   TEWEN  =    -13739.97893216
  -Hartree energ DENC   =     -7120.00273921
  -exchange      EXHF   =         0.00000000
  -V(xc)+E(xc)   XCENC  =       841.64792998
  PAW double counting   =     24730.12536191   -25254.87868340
  entropy T*S    EENTRO =        -0.02528613
  eigenvalues    EBANDS =      -466.56818477
  atomic energy  EATOM  =     20168.87094289
  ---------------------------------------------------
  free energy    TOTEN  =       -89.86636318 eV

  energy without entropy =      -89.84107705  energy(sigma->0) =      -89.85372011


--------------------------------------------------------------------------------------------------------




--------------------------------------- Iteration      1(  10)  ---------------------------------------


    POTLOK:  cpu time    0.0499: real time    0.0499
    SETDIJ:  cpu time    0.0137: real time    0.0137
    TRIAL :  cpu time   15.0307: real time   15.0455
    CORREC:  cpu time    4.6460: real time    4.6501
    CHARGE:  cpu time    0.5084: real time    0.5087
    --------------------------------------------
      LOOP:  cpu time   20.2530: real time   20.2727

 eigenvalue-minimisations  :     0
 total energy-change (2. order) :-0.3309559E+02  (-0.5111582E+02)
 number of electron     257.9999988 magnetization       6.0000000
 augmentation part       76.7447590 magnetization       2.9087926

 Free energy of the ion-electron system (eV)
  ---------------------------------------------------
  alpha Z        PSCENC =       750.93719555
  Ewald energy   TEWEN  =    -13739.97893216
  -Hartree energ DENC   =     -7247.35274312
  -exchange      EXHF   =         0.00000000
  -V(xc)+E(xc)   XCENC  =       842.04286216
  PAW double counting   =     24574.31220188   -25161.08594051
  entropy T*S    EENTRO =        -0.02369883
  eigenvalues    EBANDS =      -310.68224956
  atomic energy  EATOM  =     20168.87094289
  ---------------------------------------------------
  free energy    TOTEN  =      -122.96194901 eV

  energy without entropy =     -122.93825018  energy(sigma->0) =     -122.95009960


--------------------------------------------------------------------------------------------------------




--------------------------------------- Iteration      1(  11)  ---------------------------------------


    POTLOK:  cpu time    0.0488: real time    0.0488
    SETDIJ:  cpu time    0.0134: real time    0.0134
    TRIAL :  cpu time   15.1476: real time   15.1620
    CORREC:  cpu time    4.5974: real time    4.6031
    CHARGE:  cpu time    0.5113: real time    0.5117
    --------------------------------------------
      LOOP:  cpu time   20.3228: real time   20.3439

 eigenvalue-minimisations  :     0
 total energy-change (2. order) :-0.3832076E+02  (-0.3956371E+02)
 number of electron     257.9999989 magnetization       6.0000000
 augmentation part       74.7503086 magnetization       3.0655977

 Free energy of the ion-electron system (eV)
  ---------------------------------------------------
  alpha Z        PSCENC =       750.93719555
  Ewald energy   TEWEN  =    -13739.97893216
  -Hartree energ DENC   =     -7263.01322169
  -exchange      EXHF   =         0.00000000
  -V(xc)+E(xc)   XCENC  =       846.43522255
  PAW double counting   =     23896.87890910   -24426.91184786
  entropy T*S    EENTRO =        -0.02495108
  eigenvalues    EBANDS =      -394.47727934
  atomic energy  EATOM  =     20168.87094289
  ---------------------------------------------------
  free energy    TOTEN  =      -161.28270981 eV

  energy without entropy =     -161.25775873  energy(sigma->0) =     -161.27023427


--------------------------------------------------------------------------------------------------------




--------------------------------------- Iteration      1(  12)  ---------------------------------------


    POTLOK:  cpu time    0.0483: real time    0.0483
    SETDIJ:  cpu time    0.0135: real time    0.0135
    TRIAL :  cpu time   14.5719: real time   14.5848
    CORREC:  cpu time    4.7006: real time    4.7048
    CHARGE:  cpu time    0.5089: real time    0.5091
    --------------------------------------------
      LOOP:  cpu time   19.8475: real time   19.8649

 eigenvalue-minimisations  :     0
 total energy-change (2. order) :-0.2773823E+02  (-0.1506281E+02)
 number of electron     257.9999988 magnetization       6.0000001
 augmentation part       74.8404129 magnetization       3.2657113

 Free energy of the ion-electron system (eV)
  ---------------------------------------------------
  alpha Z        PSCENC =       750.93719555
  Ewald energy   TEWEN  =    -13739.97893216
  -Hartree energ DENC   =     -7194.70466119
  -exchange      EXHF   =         0.00000000
  -V(xc)+E(xc)   XCENC  =       848.45843397
  PAW double counting   =     24054.17772658   -24501.19861689
  entropy T*S    EENTRO =        -0.02493414
  eigenvalues    EBANDS =      -575.55807641
  atomic energy  EATOM  =     20168.87094289
  ---------------------------------------------------
  free energy    TOTEN  =      -189.02093874 eV

  energy without entropy =     -188.99600460  energy(sigma->0) =     -189.00847167


--------------------------------------------------------------------------------------------------------




--------------------------------------- Iteration      1(  13)  ---------------------------------------


    POTLOK:  cpu time    0.0494: real time    0.0494
    SETDIJ:  cpu time    0.0134: real time    0.0134
    TRIAL :  cpu time   14.9614: real time   14.9748
    CORREC:  cpu time    4.7163: real time    4.7203
    CHARGE:  cpu time    0.5039: real time    0.5043
    --------------------------------------------
      LOOP:  cpu time   20.2486: real time   20.2665

 eigenvalue-minimisations  :     0
 total energy-change (2. order) :-0.1537100E+02  (-0.9530087E+01)
 number of electron     257.9999987 magnetization       6.0000001
 augmentation part       75.3596748 magnetization       3.3738843

 Free energy of the ion-electron system (eV)
  ---------------------------------------------------
  alpha Z        PSCENC =       750.93719555
  Ewald energy   TEWEN  =    -13739.97893216
  -Hartree energ DENC   =     -7226.87474861
  -exchange      EXHF   =         0.00000000
  -V(xc)+E(xc)   XCENC  =       851.00428193
  PAW double counting   =     24259.88398996   -24697.09034467
  entropy T*S    EENTRO =        -0.02811677
  eigenvalues    EBANDS =      -571.11938512
  atomic energy  EATOM  =     20168.87094289
  ---------------------------------------------------
  free energy    TOTEN  =      -204.39193438 eV

  energy without entropy =     -204.36381762  energy(sigma->0) =     -204.37787600


--------------------------------------------------------------------------------------------------------




--------------------------------------- Iteration      1(  14)  ---------------------------------------


    POTLOK:  cpu time    0.0479: real time    0.0480
    SETDIJ:  cpu time    0.0134: real time    0.0134
    TRIAL :  cpu time   14.9446: real time   14.9570
    CORREC:  cpu time    4.7170: real time    4.7220
    CHARGE:  cpu time    0.5115: real time    0.5117
    --------------------------------------------
      LOOP:  cpu time   20.2387: real time   20.2563

 eigenvalue-minimisations  :     0
 total energy-change (2. order) :-0.3401777E+01  (-0.4053619E+01)
 number of electron     257.9999987 magnetization       6.0000001
 augmentation part       76.0546323 magnetization       3.4945589

 Free energy of the ion-electron system (eV)
  ---------------------------------------------------
  alpha Z        PSCENC =       750.93719555
  Ewald energy   TEWEN  =    -13739.97893216
  -Hartree energ DENC   =     -7265.07888939
  -exchange      EXHF   =         0.00000000
  -V(xc)+E(xc)   XCENC  =       853.05944773
  PAW double counting   =     24504.05882735   -24952.66950570
  entropy T*S    EENTRO =        -0.02641800
  eigenvalues    EBANDS =      -526.96468070
  atomic energy  EATOM  =     20168.87094289
  ---------------------------------------------------
  free energy    TOTEN  =      -207.79371120 eV

  energy without entropy =     -207.76729320  energy(sigma->0) =     -207.78050220


--------------------------------------------------------------------------------------------------------




--------------------------------------- Iteration      1(  15)  ---------------------------------------


    POTLOK:  cpu time    0.0483: real time    0.0483
    SETDIJ:  cpu time    0.0135: real time    0.0135
    TRIAL :  cpu time   14.7133: real time   14.7275
    CORREC:  cpu time    4.6550: real time    4.6608
    CHARGE:  cpu time    0.5181: real time    0.5183
    --------------------------------------------
      LOOP:  cpu time   19.9523: real time   19.9725

 eigenvalue-minimisations  :     0
 total energy-change (2. order) :-0.3570783E+01  (-0.3010673E+01)
 number of electron     257.9999987 magnetization       6.0000001
 augmentation part       76.3020000 magnetization       3.5195326

 Free energy of the ion-electron system (eV)
  ---------------------------------------------------
  alpha Z        PSCENC =       750.93719555
  Ewald energy   TEWEN  =    -13739.97893216
  -Hartree energ DENC   =     -7312.44076848
  -exchange      EXHF   =         0.00000000
  -V(xc)+E(xc)   XCENC  =       854.68430517
  PAW double counting   =     24752.05720227   -25219.84583216
  entropy T*S    EENTRO =        -0.02519180
  eigenvalues    EBANDS =      -465.62218965
  atomic energy  EATOM  =     20168.87094289
  ---------------------------------------------------
  free energy    TOTEN  =      -211.36449458 eV

  energy without entropy =     -211.33930278  energy(sigma->0) =     -211.35189868


--------------------------------------------------------------------------------------------------------




--------------------------------------- Iteration      1(  16)  ---------------------------------------


    POTLOK:  cpu time    0.0519: real time    0.0520
    SETDIJ:  cpu time    0.0134: real time    0.0134
    TRIAL :  cpu time   14.9061: real time   14.9519
    CORREC:  cpu time    4.5516: real time    4.5584
    CHARGE:  cpu time    0.5071: real time    0.5075
    --------------------------------------------
      LOOP:  cpu time   20.0344: real time   20.0874

 eigenvalue-minimisations  :     0
 total energy-change (2. order) :-0.3483246E+01  (-0.1882675E+01)
 number of electron     257.9999987 magnetization       6.0000001
 augmentation part       76.3102648 magnetization       3.5423242

 Free energy of the ion-electron system (eV)
  ---------------------------------------------------
  alpha Z        PSCENC =       750.93719555
  Ewald energy   TEWEN  =    -13739.97893216
  -Hartree energ DENC   =     -7321.06770119
  -exchange      EXHF   =         0.00000000
  -V(xc)+E(xc)   XCENC  =       854.82192970
  PAW double counting   =     24764.56524777   -25238.53936964
  entropy T*S    EENTRO =        -0.02682370
  eigenvalues    EBANDS =      -454.43186194
  atomic energy  EATOM  =     20168.87094289
  ---------------------------------------------------
  free energy    TOTEN  =      -214.84774083 eV

  energy without entropy =     -214.82091713  energy(sigma->0) =     -214.83432898


--------------------------------------------------------------------------------------------------------




--------------------------------------- Iteration      1(  17)  ---------------------------------------


    POTLOK:  cpu time    0.0477: real time    0.0477
    SETDIJ:  cpu time    0.0134: real time    0.0134
    TRIAL :  cpu time   14.7978: real time   14.8339
    CORREC:  cpu time    4.8283: real time    4.8357
    CHARGE:  cpu time    0.5083: real time    0.5089
    --------------------------------------------
      LOOP:  cpu time   20.1996: real time   20.2437

 eigenvalue-minimisations  :     0
 total energy-change (2. order) :-0.1555401E+01  (-0.1792964E+01)
 number of electron     257.9999988 magnetization       6.0000001
 augmentation part       76.0125359 magnetization       3.5944430

 Free energy of the ion-electron system (eV)
  ---------------------------------------------------
  alpha Z        PSCENC =       750.93719555
  Ewald energy   TEWEN  =    -13739.97893216
  -Hartree energ DENC   =     -7307.65592128
  -exchange      EXHF   =         0.00000000
  -V(xc)+E(xc)   XCENC  =       854.55734264
  PAW double counting   =     24677.47225184   -25150.87009923
  entropy T*S    EENTRO =        -0.02617971
  eigenvalues    EBANDS =      -469.70909846
  atomic energy  EATOM  =     20168.87094289
  ---------------------------------------------------
  free energy    TOTEN  =      -216.40314191 eV

  energy without entropy =     -216.37696220  energy(sigma->0) =     -216.39005206


--------------------------------------------------------------------------------------------------------




--------------------------------------- Iteration      1(  18)  ---------------------------------------


    POTLOK:  cpu time    0.0488: real time    0.0488
    SETDIJ:  cpu time    0.0155: real time    0.0155
    TRIAL :  cpu time   14.6789: real time   14.7076
    CORREC:  cpu time    4.5277: real time    4.5408
    CHARGE:  cpu time    0.5683: real time    0.5695
    --------------------------------------------
      LOOP:  cpu time   19.8435: real time   19.8866

 eigenvalue-minimisations  :     0
 total energy-change (2. order) :-0.1783013E+01  (-0.1013128E+01)
 number of electron     257.9999987 magnetization       6.0000001
 augmentation part       75.8996387 magnetization       3.6162895

 Free energy of the ion-electron system (eV)
  ---------------------------------------------------
  alpha Z        PSCENC =       750.93719555
  Ewald energy   TEWEN  =    -13739.97893216
  -Hartree energ DENC   =     -7252.92867787
  -exchange      EXHF   =         0.00000000
  -V(xc)+E(xc)   XCENC  =       853.52123596
  PAW double counting   =     24375.96471106   -24838.19931605
  entropy T*S    EENTRO =        -0.02565939
  eigenvalues    EBANDS =      -536.34713461
  atomic energy  EATOM  =     20168.87094289
  ---------------------------------------------------
  free energy    TOTEN  =      -218.18615494 eV

  energy without entropy =     -218.16049555  energy(sigma->0) =     -218.17332525


--------------------------------------------------------------------------------------------------------




--------------------------------------- Iteration      1(  19)  ---------------------------------------


    POTLOK:  cpu time    0.0555: real time    0.0555
    SETDIJ:  cpu time    0.0168: real time    0.0172
    TRIAL :  cpu time   14.9224: real time   14.9528
    CORREC:  cpu time    4.5637: real time    4.5711
    CHARGE:  cpu time    0.5098: real time    0.5103
    --------------------------------------------
      LOOP:  cpu time   20.0725: real time   20.1112

 eigenvalue-minimisations  :     0
 total energy-change (2. order) :-0.9515120E+00  (-0.4072402E+00)
 number of electron     257.9999987 magnetization       6.0000002
 augmentation part       75.9399269 magnetization       3.6119062

 Free energy of the ion-electron system (eV)
  ---------------------------------------------------
  alpha Z        PSCENC =       750.93719555
  Ewald energy   TEWEN  =    -13739.97893216
  -Hartree energ DENC   =     -7233.72698304
  -exchange      EXHF   =         0.00000000
  -V(xc)+E(xc)   XCENC  =       853.02697993
  PAW double counting   =     24229.82161374   -24688.13081628
  entropy T*S    EENTRO =        -0.02586047
  eigenvalues    EBANDS =      -559.93200817
  atomic energy  EATOM  =     20168.87094289
  ---------------------------------------------------
  free energy    TOTEN  =      -219.13766695 eV

  energy without entropy =     -219.11180648  energy(sigma->0) =     -219.12473671


--------------------------------------------------------------------------------------------------------




--------------------------------------- Iteration      1(  20)  ---------------------------------------


    POTLOK:  cpu time    0.0481: real time    0.0481
    SETDIJ:  cpu time    0.0135: real time    0.0135
    TRIAL :  cpu time   15.0662: real time   15.0989
    CORREC:  cpu time    4.7540: real time    4.7686
    CHARGE:  cpu time    0.5103: real time    0.5110
    --------------------------------------------
      LOOP:  cpu time   20.3962: real time   20.4442

 eigenvalue-minimisations  :     0
 total energy-change (2. order) :-0.3796048E+00  (-0.3650918E+00)
 number of electron     257.9999987 magnetization       6.0000002
 augmentation part       76.1009071 magnetization       3.5924504

 Free energy of the ion-electron system (eV)
  ---------------------------------------------------
  alpha Z        PSCENC =       750.93719555
  Ewald energy   TEWEN  =    -13739.97893216
  -Hartree energ DENC   =     -7232.50144942
  -exchange      EXHF   =         0.00000000
  -V(xc)+E(xc)   XCENC  =       852.96945105
  PAW double counting   =     24176.40711768   -24636.59781236
  entropy T*S    EENTRO =        -0.02402289
  eigenvalues    EBANDS =      -559.59792454
  atomic energy  EATOM  =     20168.87094289
  ---------------------------------------------------
  free energy    TOTEN  =      -219.51727179 eV

  energy without entropy =     -219.49324889  energy(sigma->0) =     -219.50526034


--------------------------------------------------------------------------------------------------------




--------------------------------------- Iteration      1(  21)  ---------------------------------------


    POTLOK:  cpu time    0.0482: real time    0.0482
    SETDIJ:  cpu time    0.0134: real time    0.0134
    TRIAL :  cpu time   14.6705: real time   14.7144
    CORREC:  cpu time    4.5594: real time    4.5668
    CHARGE:  cpu time    0.5102: real time    0.5109
    --------------------------------------------
      LOOP:  cpu time   19.8060: real time   19.8580

 eigenvalue-minimisations  :     0
 total energy-change (2. order) :-0.3649861E+00  (-0.1965346E+00)
 number of electron     257.9999986 magnetization       6.0000002
 augmentation part       76.1553977 magnetization       3.5828848

 Free energy of the ion-electron system (eV)
  ---------------------------------------------------
  alpha Z        PSCENC =       750.93719555
  Ewald energy   TEWEN  =    -13739.97893216
  -Hartree energ DENC   =     -7253.64332172
  -exchange      EXHF   =         0.00000000
  -V(xc)+E(xc)   XCENC  =       853.20387842
  PAW double counting   =     24151.20270652   -24618.26939672
  entropy T*S    EENTRO =        -0.02358033
  eigenvalues    EBANDS =      -532.18130775
  atomic energy  EATOM  =     20168.87094289
  ---------------------------------------------------
  free energy    TOTEN  =      -219.88225786 eV

  energy without entropy =     -219.85867754  energy(sigma->0) =     -219.87046770


--------------------------------------------------------------------------------------------------------




--------------------------------------- Iteration      1(  22)  ---------------------------------------


    POTLOK:  cpu time    0.0516: real time    0.0533
    SETDIJ:  cpu time    0.0134: real time    0.0134
    TRIAL :  cpu time   14.8509: real time   14.8782
    CORREC:  cpu time    4.9056: real time    4.9134
    CHARGE:  cpu time    0.5047: real time    0.5053
    --------------------------------------------
      LOOP:  cpu time   20.3305: real time   20.3678

 eigenvalue-minimisations  :     0
 total energy-change (2. order) :-0.1905334E+00  (-0.2095642E+00)
 number of electron     257.9999986 magnetization       6.0000002
 augmentation part       76.1218126 magnetization       3.5840422

 Free energy of the ion-electron system (eV)
  ---------------------------------------------------
  alpha Z        PSCENC =       750.93719555
  Ewald energy   TEWEN  =    -13739.97893216
  -Hartree energ DENC   =     -7264.96312383
  -exchange      EXHF   =         0.00000000
  -V(xc)+E(xc)   XCENC  =       853.41497456
  PAW double counting   =     24140.28722478   -24609.99981450
  entropy T*S    EENTRO =        -0.02122350
  eigenvalues    EBANDS =      -518.61767825
  atomic energy  EATOM  =     20168.87094289
  ---------------------------------------------------
  free energy    TOTEN  =      -220.07279128 eV

  energy without entropy =     -220.05156778  energy(sigma->0) =     -220.06217953


--------------------------------------------------------------------------------------------------------




--------------------------------------- Iteration      1(  23)  ---------------------------------------


    POTLOK:  cpu time    0.0482: real time    0.0482
    SETDIJ:  cpu time    0.0134: real time    0.0134
    TRIAL :  cpu time   14.7500: real time   14.7769
    CORREC:  cpu time    4.5914: real time    4.6003
    CHARGE:  cpu time    0.5091: real time    0.5096
    --------------------------------------------
      LOOP:  cpu time   19.9164: real time   19.9527

 eigenvalue-minimisations  :     0
 total energy-change (2. order) :-0.2041590E+00  (-0.2013276E+00)
 number of electron     257.9999986 magnetization       6.0000002
 augmentation part       75.9738192 magnetization       3.6078529

 Free energy of the ion-electron system (eV)
  ---------------------------------------------------
  alpha Z        PSCENC =       750.93719555
  Ewald energy   TEWEN  =    -13739.97893216
  -Hartree energ DENC   =     -7273.79182247
  -exchange      EXHF   =         0.00000000
  -V(xc)+E(xc)   XCENC  =       853.65114718
  PAW double counting   =     24122.99004994   -24592.22151078
  entropy T*S    EENTRO =        -0.01987402
  eigenvalues    EBANDS =      -510.71279692
  atomic energy  EATOM  =     20168.87094289
  ---------------------------------------------------
  free energy    TOTEN  =      -220.27695027 eV

  energy without entropy =     -220.25707625  energy(sigma->0) =     -220.26701326


--------------------------------------------------------------------------------------------------------




--------------------------------------- Iteration      1(  24)  ---------------------------------------


    POTLOK:  cpu time    0.0481: real time    0.0481
    SETDIJ:  cpu time    0.0135: real time    0.0135
    TRIAL :  cpu time   14.8672: real time   14.8970
    CORREC:  cpu time    4.6979: real time    4.7067
    CHARGE:  cpu time    0.5091: real time    0.5096
    --------------------------------------------
      LOOP:  cpu time   20.1401: real time   20.1792

 eigenvalue-minimisations  :     0
 total energy-change (2. order) :-0.2013212E+00  (-0.1373289E+00)
 number of electron     257.9999986 magnetization       6.0000003
 augmentation part       75.8807767 magnetization       3.6372103

 Free energy of the ion-electron system (eV)
  ---------------------------------------------------
  alpha Z        PSCENC =       750.93719555
  Ewald energy   TEWEN  =    -13739.97893216
  -Hartree energ DENC   =     -7269.70091160
  -exchange      EXHF   =         0.00000000
  -V(xc)+E(xc)   XCENC  =       853.76099918
  PAW double counting   =     24097.04433500   -24561.67483189
  entropy T*S    EENTRO =        -0.01841724
  eigenvalues    EBANDS =      -519.71719445
  atomic energy  EATOM  =     20168.87094289
  ---------------------------------------------------
  free energy    TOTEN  =      -220.47827151 eV

  energy without entropy =     -220.45985427  energy(sigma->0) =     -220.46906289


--------------------------------------------------------------------------------------------------------




--------------------------------------- Iteration      1(  25)  ---------------------------------------


    POTLOK:  cpu time    0.0483: real time    0.0484
    SETDIJ:  cpu time    0.0135: real time    0.0135
    TRIAL :  cpu time   14.9408: real time   14.9654
    CORREC:  cpu time    4.8083: real time    4.8146
    CHARGE:  cpu time    0.5045: real time    0.5051
    --------------------------------------------
      LOOP:  cpu time   20.3195: real time   20.3510

 eigenvalue-minimisations  :     0
 total energy-change (2. order) :-0.1360226E+00  (-0.1584128E+00)
 number of electron     257.9999985 magnetization       6.0000003
[...]
   20        1.566   3.412   0.000   4.977
   21        1.580   3.407   0.000   4.987
   22        1.575   3.396   0.000   4.971
   23        1.574   3.510   0.000   5.083
   24        1.571   3.381   0.000   4.952
   25        1.561   3.423   0.000   4.985
   26        1.571   3.420   0.000   4.991
   27        1.565   3.444   0.000   5.009
   28        1.566   3.412   0.000   4.979
   29        1.585   3.341   0.000   4.926
   30        1.565   3.454   0.000   5.019
   31        1.572   3.457   0.000   5.029
   32        1.580   3.356   0.000   4.936
   33        1.567   3.433   0.000   5.000
   34        1.566   3.405   0.000   4.972
   35        1.575   3.415   0.000   4.990
   36        1.571   3.438   0.000   5.009
   37        1.569   3.445   0.000   5.014
   38        1.560   3.474   0.000   5.033
   39        1.563   3.468   0.000   5.031
   40        1.565   3.465   0.000   5.030
   41        1.584   3.348   0.000   4.933
   42        1.567   3.438   0.000   5.005
--------------------------------------------------
tot         43.690  92.049  87.938 223.676
 


 magnetization (x)
 
# of ion       s       p       d       tot
------------------------------------------
    1       -0.000  -0.002   0.000  -0.002
    2        0.001   0.001   0.000   0.002
    3        0.000  -0.001   0.000  -0.000
    4        0.000  -0.001   0.000  -0.001
    5        0.001  -0.000   0.000   0.000
    6        0.000   0.000   0.000   0.001
    7        0.002   0.003  -0.018  -0.013
    8        0.010   0.013   1.122   1.145
    9        0.013   0.013   1.387   1.413
   10        0.005   0.006   0.017   0.027
   11        0.009   0.014   1.183   1.206
   12        0.007   0.009  -0.002   0.014
   13        0.013   0.013   1.456   1.483
   14        0.002   0.002  -0.017  -0.013
   15        0.011   0.013   1.256   1.281
   16        0.009   0.013   1.191   1.212
   17        0.004   0.006  -0.005   0.005
   18        0.003   0.003  -0.000   0.005
   19        0.000  -0.013   0.000  -0.013
   20       -0.000  -0.089   0.000  -0.089
   21        0.001  -0.064   0.000  -0.063
   22       -0.000  -0.136   0.000  -0.137
   23        0.000  -0.044   0.000  -0.043
   24        0.000  -0.049   0.000  -0.049
   25        0.000  -0.049   0.000  -0.049
   26        0.000  -0.058   0.000  -0.057
   27        0.000  -0.096   0.000  -0.096
   28       -0.000  -0.047   0.000  -0.047
   29        0.001  -0.161   0.000  -0.160
   30       -0.000  -0.006   0.000  -0.006
   31        0.001  -0.005   0.000  -0.004
   32        0.001  -0.126   0.000  -0.125
   33        0.000  -0.027   0.000  -0.026
   34       -0.001  -0.138   0.000  -0.139
   35        0.001  -0.071   0.000  -0.070
   36        0.001  -0.054   0.000  -0.054
   37        0.000  -0.034   0.000  -0.034
   38       -0.000  -0.028   0.000  -0.029
   39        0.000  -0.026   0.000  -0.026
   40       -0.000  -0.040   0.000  -0.040
   41        0.001  -0.110   0.000  -0.109
   42        0.000  -0.079   0.000  -0.079
--------------------------------------------------
tot          0.096  -1.445   7.571   6.222
 
    FORLOC:  cpu time    0.0087: real time    0.0087
    FORNL :  cpu time    4.7996: real time    4.8434
    STRESS:  cpu time   14.4229: real time   14.5359
    FORCOR:  cpu time    0.0515: real time    0.0518
    OFIELD:  cpu time    0.0005: real time    0.0005

  DFT-D2 method for vdW energy calculation
  -------------------------------------------------------------------

  Parameters of vdW forcefield:
         C6(Jnm^6/mol)     R0(A)
   -----------------------------
   Li       1.610          0.825
   Co      10.800          1.562
   O        0.700          1.342

  IVDW =   1
  VDW_RADIUS =    50.000 A
  VDW_S6 =     0.750
  VDW_SR =     1.000
  VDW_D =    20.000
  LVDW_EWALD = F

  Number of pair interactions contributing to vdW energy: 1211659
  Edisp (eV):   -9.49836
    FORVDW:  cpu time    0.1782: real time    0.1794

  FORCE on cell =-STRESS in cart. coord.  units (eV):
  Direction    XX          YY          ZZ          XY          YZ          ZX
  --------------------------------------------------------------------------------------
  Alpha Z   750.93720   750.93720   750.93720
  Ewald   -1547.59732 -1318.05201-10874.39944    71.56269  -125.68733    93.21553
  Hartree  4744.47280  4830.08279 -2322.98558    34.51359   -47.91155    30.00765
  E(xc)   -1286.78265 -1286.44814 -1287.99657    -0.03392    -0.12630    -0.03261
  Local   -8164.02426 -8456.18201  8201.65121  -101.80777   165.16529  -118.43924
  n-local  -594.19749  -584.38332  -596.86261     3.07410    -4.60542     3.42852
  augment  2025.95748  2011.84171  2001.07035    -2.43305     4.33228    -1.89640
  Kinetic  4082.35001  4070.18486  4142.99135    -0.53054     1.70536    -1.44739
  Fock        0.00000     0.00000     0.00000     0.00000     0.00000     0.00000
  vdW        -6.61526    -5.79564   -13.11754    -0.23921    -0.11515     0.03457
  -------------------------------------------------------------------------------------
  Total       4.50051    12.18542     1.28835     4.10590    -7.24281     4.87063
  in kB      18.46975    50.00806     5.28731    16.85031   -29.72397    19.98870
  external pressure =       24.59 kB  Pullay stress =        0.00 kB


 VOLUME and BASIS-vectors are now :
 -----------------------------------------------------------------------------
  energy-cutoff  :      600.00
  volume of cell :      390.40
      direct lattice vectors                 reciprocal lattice vectors
     5.610480309  0.000000000  0.000000000     0.178237859  0.105011067 -0.021466487
    -2.840043545  4.820475578  0.000000000     0.000000000  0.207448411 -0.013535420
     1.183625937  0.941852272 14.435145378     0.000000000  0.000000000  0.069275367

  length of vectors
     5.610480309  5.594893398 14.514181966     0.207982857  0.207889516  0.069275367


 FORCES acting on ions:
    Electron-Ion                     Ewald-Force                    Non-Local-Force
 -----------------------------------------------------------------------------------------------
   -.440E+01 0.463E+00 -.234E+00   0.402E+01 -.810E+00 0.696E+00   0.931E+00 0.352E+00 -.209E+00
   0.207E+01 0.123E+01 0.513E+01   -.191E+01 -.125E+01 -.510E+01   -.684E+00 -.245E+00 -.174E+00
   0.406E+01 -.241E+01 0.345E+01   -.347E+01 0.234E+01 -.327E+01   -.581E+00 0.156E+00 -.381E+00
   -.772E+00 -.263E+01 -.772E+01   0.558E+00 0.217E+01 0.807E+01   0.555E+00 0.711E+00 0.234E+00
   0.198E+01 0.531E+00 0.235E+02   -.171E+01 -.431E+00 -.232E+02   -.500E+00 -.310E+00 -.133E+01
   0.234E+01 0.672E+01 -.674E+01   -.203E+01 -.633E+01 0.641E+01   -.103E+00 -.800E+00 0.289E+00
   0.509E+02 -.534E+02 0.902E+02   -.531E+02 0.558E+02 -.903E+02   0.117E+00 -.877E+00 0.423E+00
   -.133E+02 0.681E+02 -.129E+02   0.140E+02 -.721E+02 0.141E+02   0.313E+00 0.849E+00 -.942E-01
   -.828E+02 -.957E+02 0.793E+02   0.861E+02 0.100E+03 -.780E+02   0.331E-01 0.477E+00 -.128E+00
   0.397E+02 0.409E+02 0.111E+02   -.405E+02 -.419E+02 -.125E+02   -.925E+00 0.204E+00 -.181E+00
   0.154E+02 0.109E+02 -.148E+03   -.159E+02 -.118E+02 0.147E+03   0.485E+00 0.238E+00 0.120E+00
   -.490E+02 0.194E+02 -.274E+02   0.484E+02 -.191E+02 0.285E+02   0.274E+00 -.847E+00 0.109E+00
   -.710E+01 0.172E+02 -.826E+01   0.860E+01 -.178E+02 0.794E+01   -.175E+00 0.150E+00 -.370E+00
   0.322E+02 -.587E+02 -.111E+03   -.326E+02 0.606E+02 0.110E+03   -.210E+00 0.921E+00 0.233E+00
   0.379E+02 -.413E+02 0.103E+02   -.381E+02 0.427E+02 -.117E+02   -.603E+00 0.596E-01 0.181E+00
   -.370E+02 -.139E+02 0.575E+02   0.381E+02 0.149E+02 -.571E+02   -.445E+00 0.364E+00 -.397E+00
   -.310E+02 0.146E+02 0.852E+02   0.309E+02 -.152E+02 -.861E+02   0.863E+00 -.832E-01 -.966E+00
   0.519E+02 0.294E+02 -.185E+02   -.536E+02 -.304E+02 0.194E+02   -.334E+00 -.414E+00 0.367E+00
   0.304E+02 -.441E+01 -.324E+03   -.277E+02 0.821E+01 0.344E+03   -.324E+01 -.395E+01 -.201E+02
   -.553E+00 0.250E+02 -.291E+03   0.317E+01 -.257E+02 0.308E+03   -.320E+01 -.538E+00 -.168E+02
   -.497E+02 0.267E+02 -.338E+03   0.503E+02 -.298E+02 0.364E+03   0.104E+01 0.264E+01 -.256E+02
   -.933E+01 -.419E+02 -.301E+03   0.722E+01 0.393E+02 0.322E+03   0.370E+01 0.386E+01 -.214E+02
   0.167E+02 -.334E+02 0.402E+03   -.221E+02 0.343E+02 -.427E+03   0.398E+01 -.102E+01 0.214E+02
   -.407E+02 0.167E+02 0.345E+03   0.412E+02 -.196E+02 -.365E+03   0.862E+00 0.327E+01 0.207E+02
   0.157E+02 -.682E+01 0.340E+03   -.151E+02 0.107E+02 -.355E+03   -.164E+01 -.448E+01 0.169E+02
   0.415E+02 0.529E+02 0.355E+03   -.429E+02 -.585E+02 -.375E+03   -.552E+00 0.448E+01 0.194E+02
   -.401E+01 0.222E+01 -.388E+03   0.515E+01 -.224E+01 0.407E+03   -.111E+01 -.518E+00 -.192E+02
   0.556E+01 0.311E+02 -.354E+03   -.522E+01 -.337E+02 0.373E+03   -.128E+01 0.927E+00 -.188E+02
   0.117E+02 -.151E+02 -.372E+03   -.150E+02 0.164E+02 0.396E+03   0.317E+01 -.153E+01 -.248E+02
   -.859E+01 0.261E+02 -.384E+03   0.946E+01 -.311E+02 0.403E+03   -.121E+01 0.446E+01 -.183E+02
   0.242E+02 -.482E+02 0.287E+03   -.201E+02 0.513E+02 -.310E+03   -.568E+01 -.114E+01 0.214E+02
   -.310E+02 -.621E+01 0.281E+03   0.310E+02 0.106E+02 -.304E+03   0.115E+01 -.323E+01 0.234E+02
   -.280E+02 0.383E+01 0.285E+03   0.263E+02 -.385E+01 -.305E+03   0.335E+01 -.730E+00 0.200E+02
   0.343E+02 0.156E+02 0.273E+03   -.358E+02 -.191E+02 -.289E+03   0.116E+01 0.337E+01 0.162E+02
   -.289E+02 0.205E+02 -.323E+03   0.299E+02 -.213E+02 0.346E+03   0.255E+00 -.867E+00 -.216E+02
   0.207E+02 0.232E+02 -.339E+03   -.191E+02 -.281E+02 0.362E+03   -.220E+01 0.419E+01 -.220E+02
   0.856E+01 -.517E+02 -.329E+03   -.742E+01 0.574E+02 0.350E+03   -.997E+00 -.449E+01 -.210E+02
   -.296E+02 0.352E+02 -.307E+03   0.298E+02 -.390E+02 0.323E+03   0.531E+00 0.314E+01 -.153E+02
   0.343E+02 -.169E+02 0.353E+03   -.371E+02 0.189E+02 -.371E+03   0.211E+01 -.793E+00 0.173E+02
   0.158E+02 0.171E+02 0.377E+03   -.184E+02 -.185E+02 -.397E+03   0.252E+01 0.124E+01 0.194E+02
   -.141E+02 -.369E+01 0.385E+03   0.142E+02 0.449E+01 -.410E+03   -.293E+00 -.120E+01 0.261E+02
   -.254E+02 -.156E+02 0.348E+03   0.306E+02 0.173E+02 -.366E+03   -.440E+01 -.985E+00 0.172E+02
 -----------------------------------------------------------------------------------------------
   0.294E+01 -.693E+01 0.764E+01   -.462E-13 0.462E-13 -.568E-13   -.295E+01 0.700E+01 -.764E+01
 
 
 POSITION                                       TOTAL-FORCE (eV/Angst)
 -----------------------------------------------------------------------------------
      3.91202      5.66287     14.37325         0.371680      0.069293      0.163373
      3.16050      0.18965      0.08160        -0.376705     -0.213648     -0.081391
      4.63365      1.09892      4.87076        -0.067117      0.069216     -0.128022
      2.71698      3.26425      4.66277         0.311451      0.133862      0.480300
      1.43730      2.63510      9.89589        -0.125828     -0.145992     -0.928545
     -1.24432      4.44011      9.54064         0.175330     -0.336204     -0.165301
      0.22496      1.77251      2.36608        -1.858508      1.243537      0.499526
     -1.23172      4.26031      2.48867         0.835653     -2.894021      0.841682
      2.97889      1.66411      2.39152         2.839502      4.170663      1.310870
      1.62064      4.20586      2.50557        -1.383553     -0.607516     -1.518196
      2.96081      5.07177      7.24942        -0.090691     -0.569328     -0.545878
      4.44428      2.68173      7.05581        -0.472043     -0.442364      1.050535
      0.10045      5.13563      7.10035         1.361159     -0.501951     -0.480678
      1.62600      2.61508      7.20941        -0.425127      2.445033     -0.723955
      2.77811      1.73289     12.10335        -0.633817      1.215872     -1.106104
      1.30872      4.19584     12.03115         0.604934      1.182824      0.009397
      5.50306      1.80169     12.04355         0.668525     -0.567057     -1.498123
      4.19220      4.20587     12.08875        -1.776374     -1.145833      1.123113
      2.99204      5.03296      3.45561        -0.469929     -0.147243      0.355179
      4.40406      2.62346      3.40220        -0.572141     -1.169101     -0.202179
      0.10419      5.04133      3.44782         1.700782     -0.412342      0.475075
      1.51209      2.46932      3.43669         1.549916      1.338479     -0.414096
      1.66188      0.95199      1.58144        -1.444930     -0.122267     -3.807623
      0.06125      3.44920      1.40414         1.450409      0.295471      0.849896
      4.51277      0.95329      1.27866        -1.038939     -0.519548      1.376694
      3.10373      3.49116      1.52002        -1.934008     -1.181421     -0.451760
      1.61329      1.07876      8.24170         0.019894     -0.456479     -0.129416
      0.26105      3.66275      8.13924        -0.884353     -1.722582      0.101524
      4.39646      1.11736      8.13458        -0.063849     -0.146178     -0.535222
      3.06594      3.48660      8.09653        -0.420668     -0.575326      1.009947
      0.34378      1.68792      6.25645        -1.582455      2.027779     -1.149453
     -1.38645      4.19883      6.05168         1.263983      1.149820      0.930103
      2.87152      1.89493      6.05744         1.752055     -0.847561      0.715882
      1.59976      4.32834      6.16784        -0.413274     -0.218906      0.140402
      1.23339      2.67749     12.95385         1.265614     -1.674450      1.564737
     -0.00736      5.04865     13.08535        -0.681712     -0.726536      0.340342
      4.11776      2.48350     13.04445         0.130974      1.338024      0.413280
      2.66812      5.04956     12.99295         0.745619     -0.764617      0.785756
      1.43735      0.90826     11.10595        -0.747551      1.244580     -0.523061
     -0.05751      3.43101     11.07545        -0.182800     -0.170141     -0.612916
      4.14267      0.99050     11.00005        -0.218717     -0.407838      1.023368
      2.68966      3.32432     11.13685         0.817613      0.761997     -0.559063
 -----------------------------------------------------------------------------------
    total drift:                               -0.006077      0.071426     -0.007423


--------------------------------------------------------------------------------------------------------



  FREE ENERGIE OF THE ION-ELECTRON SYSTEM (eV)
  ---------------------------------------------------
  free  energy   TOTEN  =      -232.90255849 eV

  energy  without entropy=     -232.90255849  energy(sigma->0) =     -232.90255849
 


--------------------------------------------------------------------------------------------------------


    POTLOK:  cpu time    0.0657: real time    0.0660


--------------------------------------------------------------------------------------------------------


     LOOP+:  cpu time 2855.9483: real time 2860.4015
    4ORBIT:  cpu time    0.0000: real time    0.0000
 


 total charge     
 
# of ion       s       p       d       tot
------------------------------------------
    1        0.085   0.172   0.000   0.257
    2        0.091   0.188   0.000   0.278
    3        0.081   0.166   0.000   0.247
    4        0.092   0.194   0.000   0.286
    5        0.079   0.163   0.000   0.242
    6        0.079   0.161   0.000   0.240
    7        0.445   0.713   7.391   8.550
    8        0.519   0.894   7.338   8.750
    9        0.470   0.733   7.271   8.474
   10        0.409   0.607   7.347   8.362
   11        0.492   0.826   7.301   8.619
   12        0.414   0.631   7.339   8.385
   13        0.440   0.685   7.186   8.311
   14        0.443   0.702   7.393   8.538
   15        0.488   0.804   7.283   8.575
   16        0.490   0.816   7.276   8.582
   17        0.458   0.732   7.443   8.633
   18        0.429   0.663   7.369   8.461
   19        1.566   3.458   0.000   5.024
   20        1.566   3.412   0.000   4.977
   21        1.580   3.407   0.000   4.987
   22        1.575   3.396   0.000   4.971
   23        1.574   3.510   0.000   5.083
   24        1.571   3.381   0.000   4.952
   25        1.561   3.423   0.000   4.985
   26        1.571   3.420   0.000   4.991
   27        1.565   3.444   0.000   5.009
   28        1.566   3.412   0.000   4.979
   29        1.585   3.341   0.000   4.926
   30        1.565   3.454   0.000   5.019
   31        1.572   3.457   0.000   5.029
   32        1.580   3.356   0.000   4.936
   33        1.567   3.433   0.000   5.000
   34        1.566   3.405   0.000   4.972
   35        1.575   3.415   0.000   4.990
   36        1.571   3.438   0.000   5.009
   37        1.569   3.445   0.000   5.014
   38        1.560   3.474   0.000   5.033
   39        1.563   3.468   0.000   5.031
   40        1.565   3.465   0.000   5.030
   41        1.584   3.348   0.000   4.933
   42        1.567   3.438   0.000   5.005
--------------------------------------------------
tot         43.690  92.049  87.938 223.676
 


 magnetization (x)
 
# of ion       s       p       d       tot
------------------------------------------
    1       -0.000  -0.002   0.000  -0.002
    2        0.001   0.001   0.000   0.002
    3        0.000  -0.001   0.000  -0.000
    4        0.000  -0.001   0.000  -0.001
    5        0.001  -0.000   0.000   0.000
    6        0.000   0.000   0.000   0.001
    7        0.002   0.003  -0.018  -0.013
    8        0.010   0.013   1.122   1.145
    9        0.013   0.013   1.387   1.413
   10        0.005   0.006   0.017   0.027
   11        0.009   0.014   1.183   1.206
   12        0.007   0.009  -0.002   0.014
   13        0.013   0.013   1.456   1.483
   14        0.002   0.002  -0.017  -0.013
   15        0.011   0.013   1.256   1.281
   16        0.009   0.013   1.191   1.212
   17        0.004   0.006  -0.005   0.005
   18        0.003   0.003  -0.000   0.005
   19        0.000  -0.013   0.000  -0.013
   20       -0.000  -0.089   0.000  -0.089
   21        0.001  -0.064   0.000  -0.063
   22       -0.000  -0.136   0.000  -0.137
   23        0.000  -0.044   0.000  -0.043
   24        0.000  -0.049   0.000  -0.049
   25        0.000  -0.049   0.000  -0.049
   26        0.000  -0.058   0.000  -0.057
   27        0.000  -0.096   0.000  -0.096
   28       -0.000  -0.047   0.000  -0.047
   29        0.001  -0.161   0.000  -0.160
   30       -0.000  -0.006   0.000  -0.006
   31        0.001  -0.005   0.000  -0.004
   32        0.001  -0.126   0.000  -0.125
   33        0.000  -0.027   0.000  -0.026
   34       -0.001  -0.138   0.000  -0.139
   35        0.001  -0.071   0.000  -0.070
   36        0.001  -0.054   0.000  -0.054
   37        0.000  -0.034   0.000  -0.034
   38       -0.000  -0.028   0.000  -0.029
   39        0.000  -0.026   0.000  -0.026
   40       -0.000  -0.040   0.000  -0.040
   41        0.001  -0.110   0.000  -0.109
   42        0.000  -0.079   0.000  -0.079
--------------------------------------------------
tot          0.096  -1.445   7.571   6.222
 

 total amount of memory used by VASP MPI-rank0   158795. kBytes
=======================================================================

   base      :      30000. kBytes
   nonlr-proj:       4340. kBytes
   fftplans  :       1689. kBytes
   grid      :       4644. kBytes
   one-center:        342. kBytes
   wavefun   :     117780. kBytes
 
  
  
 General timing and accounting informations for this job:
 ========================================================
  
                  Total CPU time used (sec):     2881.950
                            User time (sec):     2677.509
                          System time (sec):      204.441
                         Elapsed time (sec):     2886.874
  
                   Maximum memory used (kb):      725328.
                   Average memory used (kb):           0.
  
                          Minor page faults:        70843
                          Major page faults:           76
                 Voluntary context switches:          538
