 running on   64 total cores
 distrk:  each k-point on   64 cores,    1 groups
 distr:  one band on    4 cores,   16 groups
 using from now: INCAR     
 vasp.5.4.4.18Apr17-6-g9f103f2a35 (build Nov 22 2021 14:44:17) complex          
  
 POSCAR found type information on POSCAR  Li Co O 
 POSCAR found :  3 types and      42 ions
 scaLAPACK will be used
 LDA part: xc-table for Pade appr. of Perdew
 generate k-points for:    6    6    2
 POSCAR, INCAR and KPOINTS ok, starting setup
 FFT: planning ...
 WAVECAR not read
 entering main loop
       N       E                     dE             d eps       ncg     rms          ort
DAV:   1     0.347494320496E+04    0.34749E+04   -0.13919E+05  5760   0.217E+03
DAV:   2     0.416952928257E+03   -0.30580E+04   -0.28185E+04  5760   0.528E+02
DAV:   3    -0.217891999720E+03   -0.63484E+03   -0.58201E+03  5760   0.253E+02
DAV:   4    -0.269532563479E+03   -0.51641E+02   -0.50375E+02  5760   0.739E+01
DAV:   5    -0.271337899613E+03   -0.18053E+01   -0.18016E+01  5760   0.140E+01
 gam= 0.000 g(H,U,f)=  0.171E+04 0.110E+04 0.685E+03 ort(H,U,f) = 0.000E+00 0.000E+00 0.000E+00
SDA:   6     0.790134731037E+02    0.35035E+03   -0.18016E+01  5760   0.349E+04 0.000E+00
 gam= 0.000 trial= 0.400  step= 0.092 mean= 0.400
 gam= 2.452 g(H,U,f)=  0.798E+03 0.268E+04 0.507E+04 ort(H,U,f) = 0.852E+03 0.174E+02-0.793E+03
CGA:   7    -0.365246797082E+00   -0.79379E+02   -0.16004E+03  5760   0.856E+04 0.763E+02
 gam= 2.452 trial= 0.385  step= 0.085 mean= 0.385
 gam= 0.404 g(H,U,f)=  0.612E+03 0.106E+04 0.179E+04 ort(H,U,f) = 0.117E+04 0.712E+03-0.578E+03
CGA:   8    -0.539402805240E+02   -0.53575E+02   -0.37284E+03  5760   0.345E+04 0.130E+04
 gam= 0.404 trial= 0.370  step= 0.042 mean= 0.370
 gam= 0.137 g(H,U,f)=  0.352E+03 0.101E+03 0.204E+02 ort(H,U,f) = 0.399E+03 0.183E+03 0.948E+02
CGA:   9    -0.118933416524E+03   -0.64993E+02   -0.84389E+02  5760   0.474E+03 0.677E+03
 gam= 0.137 trial= 0.353  step= 0.110 mean= 0.353
 gam= 0.000 g(H,U,f)=  0.274E+03 0.103E+04 0.477E+03 ort(H,U,f) = 0.203E+03-0.405E+03-0.179E+03
CGA:  10    -0.131059718535E+03   -0.12126E+02   -0.31068E+02  5760   0.178E+04-0.381E+03
 gam= 0.000 trial= 0.341  step= 0.032 mean= 0.341
 gam= 0.118 g(H,U,f)=  0.171E+03 0.362E+02 0.333E+01 ort(H,U,f) = 0.195E+03 0.119E+03 0.291E+02
CGA:  11    -0.160751897117E+03   -0.29692E+02   -0.28205E+02  5760   0.211E+03 0.343E+03
 gam= 0.118 trial= 0.326  step= 0.145 mean= 0.326
 gam= 4.544 g(H,U,f)=  0.121E+03 0.578E+03 0.258E+03 ort(H,U,f) = 0.118E+03-0.142E+03-0.584E+02
CGA:  12    -0.172982067553E+03   -0.12230E+02   -0.18210E+02  5760   0.957E+03-0.823E+02
 gam= 4.544 trial= 0.317  step= 0.056 mean= 0.317
 gam= 1.772 g(H,U,f)=  0.272E+03 0.966E+03 0.456E+03 ort(H,U,f) = 0.356E+03-0.291E+03-0.136E+02
CGA:  13    -0.149547785065E+03    0.23434E+02   -0.16217E+02  5760   0.169E+04 0.518E+02
 gam= 1.772 trial= 0.304  step= 0.048 mean= 0.304
 gam= 1.335 g(H,U,f)=  0.100E+04 0.104E+04 0.218E+03 ort(H,U,f) = 0.714E+02-0.613E+03 0.163E+03
CGA:  14     0.476002237238E+02    0.19715E+03   -0.42824E+02  5760   0.226E+04-0.379E+03
 gam= 1.335 trial= 0.291  step= 0.041 mean= 0.291
 gam= 1.890 g(H,U,f)=  0.157E+04 0.215E+04 0.561E+03 ort(H,U,f) =-0.372E+03-0.360E+03 0.198E+03
CGA:  15     0.291046503790E+03    0.24345E+03   -0.36311E+02  5760   0.428E+04-0.534E+03
 gam= 1.890 trial= 0.278  step= 0.048 mean= 0.278
 gam= 1.395 g(H,U,f)=  0.301E+04 0.246E+04 0.502E+03 ort(H,U,f) = 0.531E+03-0.936E+03 0.719E+02
CGA:  16     0.736666004914E+03    0.44562E+03   -0.78820E+02  5760   0.597E+04-0.333E+03
 gam= 1.395 trial= 0.267  step= 0.061 mean= 0.267
 gam= 0.000 g(H,U,f)=  0.261E+04 0.200E+04 0.378E+03 ort(H,U,f) = 0.239E+04 0.209E+04 0.873E+03
CGA:  17     0.106257394445E+04    0.32591E+03   -0.16768E+03  5760   0.499E+04 0.535E+04
 gam= 0.000 trial= 0.256  step= 0.096 mean= 0.256
 gam= 0.885 g(H,U,f)=  0.213E+04 0.207E+04 0.207E+03 ort(H,U,f) = 0.429E+03-0.575E+03-0.245E+03
CGA:  18     0.874654841252E+03   -0.18792E+03   -0.23821E+03  5760   0.441E+04-0.391E+03
 gam= 0.885 trial= 0.248  step= 0.147 mean= 0.248
 gam= 0.753 g(H,U,f)=  0.125E+04 0.192E+04 0.155E+03 ort(H,U,f) = 0.732E+02 0.862E+01-0.208E+02
CGA:  19     0.551274324898E+03   -0.32338E+03   -0.29984E+03  5760   0.332E+04 0.611E+02
 gam= 0.753 trial= 0.243  step= 0.123 mean= 0.243
 gam= 2.666 g(H,U,f)=  0.206E+04 0.646E+04 0.340E+03 ort(H,U,f) = 0.483E+02-0.511E+03-0.137E+03
CGA:  20     0.434379915446E+03   -0.11689E+03   -0.20803E+03  5760   0.886E+04-0.600E+03
 gam= 2.666 trial= 0.237  step= 0.112 mean= 0.237
 gam= 0.232 g(H,U,f)=  0.123E+04 0.797E+03 0.227E+02 ort(H,U,f) =-0.779E+03-0.160E+03-0.297E+02
CGA:  21     0.204680182948E+03   -0.22970E+03   -0.40697E+03  5760   0.205E+04-0.968E+03
 gam= 0.232 trial= 0.231  step= 0.223 mean= 0.231
 gam= 0.376 g(H,U,f)=  0.386E+03 0.351E+03 0.352E+02 ort(H,U,f) = 0.105E+02 0.929E+02-0.147E+01
CGA:  22     0.153431640711E+01   -0.20315E+03   -0.20403E+03  5760   0.772E+03 0.102E+03
 gam= 0.376 trial= 0.231  step= 0.096 mean= 0.231
 gam= 0.468 g(H,U,f)=  0.227E+03 0.122E+03 0.120E+02 ort(H,U,f) = 0.880E+02-0.100E+03-0.146E+02
CGA:  23    -0.357246851182E+02   -0.37259E+02   -0.38857E+02  5760   0.362E+03-0.266E+02
 gam= 0.468 trial= 0.224  step= 0.276 mean= 0.224
 gam= 0.851 g(H,U,f)=  0.215E+03 0.884E+02 0.434E+01 ort(H,U,f) = 0.313E+02-0.389E+02-0.165E+01
CGA:  24    -0.836483420855E+02   -0.47924E+02   -0.48115E+02  5760   0.308E+03-0.918E+01
 gam= 0.851 trial= 0.227  step= 0.218 mean= 0.227
 gam= 1.049 g(H,U,f)=  0.132E+03 0.178E+03 0.130E+02 ort(H,U,f) = 0.559E+02-0.507E+02-0.173E+01
CGA:  25    -0.116367911368E+03   -0.32720E+02   -0.32746E+02  5760   0.323E+03 0.351E+01
 gam= 1.049 trial= 0.226  step= 0.129 mean= 0.226
 gam= 0.399 g(H,U,f)=  0.657E+02 0.599E+02 0.310E+01 ort(H,U,f) = 0.146E+02-0.108E+02-0.514E+01
CGA:  26    -0.139241171058E+03   -0.22873E+02   -0.21050E+02  5760   0.129E+03-0.133E+01
 gam= 0.399 trial= 0.221  step= 0.220 mean= 0.221
 gam= 0.865 g(H,U,f)=  0.364E+02 0.702E+02 0.471E+01 ort(H,U,f) =-0.167E+02 0.991E+01-0.884E+00
CGA:  27    -0.153369964203E+03   -0.14129E+02   -0.14124E+02  5760   0.111E+03-0.765E+01
 gam= 0.865 trial= 0.221  step= 0.098 mean= 0.221
 gam= 0.603 g(H,U,f)=  0.352E+02 0.301E+02 0.180E+01 ort(H,U,f) =-0.104E+02 0.992E+01-0.191E+00
CGA:  28    -0.158936979058E+03   -0.55670E+01   -0.51515E+01  5760   0.671E+02-0.639E+00
 gam= 0.603 trial= 0.215  step= 0.492 mean= 0.215
 gam= 5.430 g(H,U,f)=  0.627E+02 0.286E+03 0.155E+02 ort(H,U,f) =-0.171E+02-0.115E+02 0.107E+01
CGA:  29    -0.171248537950E+03   -0.12312E+02   -0.16419E+02  5760   0.364E+03-0.275E+02
 gam= 5.430 trial= 0.229  step= 0.027 mean= 0.229
 gam= 0.655 g(H,U,f)=  0.708E+02 0.161E+03 0.712E+01 ort(H,U,f) =-0.533E+02 0.160E+03 0.136E+02
CGA:  30    -0.174096564610E+03   -0.28480E+01   -0.29207E+01  5760   0.239E+03 0.120E+03
 gam= 0.655 trial= 0.219  step= 0.032 mean= 0.219
 gam= 0.468 g(H,U,f)=  0.639E+02 0.473E+02 0.516E+00 ort(H,U,f) = 0.688E+01 0.662E+02 0.486E+00
CGA:  31    -0.178755845310E+03   -0.46593E+01   -0.50878E+01  5760   0.112E+03 0.736E+02
 gam= 0.468 trial= 0.210  step= 0.069 mean= 0.210
 gam= 1.340 g(H,U,f)=  0.532E+02 0.911E+02 0.524E+01 ort(H,U,f) = 0.307E+02-0.411E+01-0.110E+01
CGA:  32    -0.184118364415E+03   -0.53625E+01   -0.50162E+01  5760   0.150E+03 0.255E+02
 gam= 1.340 trial= 0.202  step= 0.051 mean= 0.202
 gam= 0.876 g(H,U,f)=  0.435E+02 0.816E+02 0.589E+01 ort(H,U,f) = 0.269E+02 0.250E+01-0.591E+01
CGA:  33    -0.188708282770E+03   -0.45899E+01   -0.47300E+01  5760   0.131E+03 0.235E+02
 gam= 0.876 trial= 0.195  step= 0.031 mean= 0.195
 gam= 0.560 g(H,U,f)=  0.390E+02 0.325E+02 0.193E+01 ort(H,U,f) = 0.278E+02 0.139E+02 0.219E+01
CGA:  34    -0.191081605768E+03   -0.23733E+01   -0.23440E+01  5760   0.734E+02 0.439E+02
 gam= 0.560 trial= 0.187  step= 0.033 mean= 0.187
 gam= 0.800 g(H,U,f)=  0.363E+02 0.217E+02 0.723E+00 ort(H,U,f) = 0.348E+02-0.760E+01-0.181E+01
CGA:  35    -0.192904253204E+03   -0.18226E+01   -0.16160E+01  5760   0.587E+02 0.254E+02
 gam= 0.800 trial= 0.179  step= 0.045 mean= 0.179
 gam= 1.549 g(H,U,f)=  0.346E+02 0.505E+02 0.586E+01 ort(H,U,f) = 0.419E+02-0.236E+02-0.202E+01
CGA:  36    -0.194973323014E+03   -0.20691E+01   -0.17893E+01  5760   0.910E+02 0.162E+02
 gam= 1.549 trial= 0.172  step= 0.041 mean= 0.172
 gam= 1.654 g(H,U,f)=  0.376E+02 0.963E+02 0.165E+02 ort(H,U,f) = 0.483E+02-0.466E+02-0.106E+02
CGA:  37    -0.196768272988E+03   -0.17949E+01   -0.23551E+01  5760   0.150E+03-0.888E+01
 gam= 1.654 trial= 0.166  step= 0.020 mean= 0.166
 gam= 1.057 g(H,U,f)=  0.470E+02 0.949E+02 0.171E+02 ort(H,U,f) = 0.734E+02-0.382E+02-0.883E+01
CGA:  38    -0.196170896781E+03    0.59738E+00   -0.13336E+01  5760   0.159E+03 0.264E+02
 gam= 1.057 trial= 0.158  step= 0.018 mean= 0.158
 gam= 0.702 g(H,U,f)=  0.511E+02 0.554E+02 0.506E+01 ort(H,U,f) = 0.866E+02-0.399E+02 0.120E+01
CGA:  39    -0.195457048124E+03    0.71385E+00   -0.17059E+01  5760   0.112E+03 0.479E+02
 gam= 0.702 trial= 0.151  step= 0.024 mean= 0.151
 gam= 0.944 g(H,U,f)=  0.459E+02 0.545E+02 0.495E+01 ort(H,U,f) = 0.668E+02-0.481E+02-0.125E+02
CGA:  40    -0.196091372792E+03   -0.63432E+00   -0.17551E+01  5760   0.105E+03 0.624E+01
 gam= 0.944 trial= 0.145  step= 0.026 mean= 0.145
 gam= 1.429 g(H,U,f)=  0.400E+02 0.886E+02 0.219E+02 ort(H,U,f) = 0.574E+02-0.439E+02-0.240E+02
CGA:  41    -0.196593479032E+03   -0.50211E+00   -0.14542E+01  5760   0.151E+03-0.106E+02
 gam= 1.429 trial= 0.139  step= 0.021 mean= 0.139
 gam= 1.133 g(H,U,f)=  0.371E+02 0.103E+03 0.300E+02 ort(H,U,f) = 0.558E+02-0.149E+02-0.195E+02
CGA:  42    -0.195983702868E+03    0.60978E+00   -0.14426E+01  5760   0.171E+03 0.215E+02
 gam= 1.133 trial= 0.133  step= 0.019 mean= 0.133
 gam= 0.614 g(H,U,f)=  0.329E+02 0.526E+02 0.192E+02 ort(H,U,f) = 0.388E+02 0.174E+02 0.185E+02
CGA:  43    -0.195185863853E+03    0.79784E+00   -0.18458E+01  5760   0.105E+03 0.747E+02
 gam= 0.614 trial= 0.128  step= 0.024 mean= 0.128
 gam= 0.435 g(H,U,f)=  0.287E+02 0.159E+02 0.972E+00 ort(H,U,f) = 0.475E+01-0.681E+01 0.304E+01
CGA:  44    -0.196064967908E+03   -0.87910E+00   -0.17907E+01  5760   0.455E+02 0.976E+00
 gam= 0.435 trial= 0.122  step= 0.035 mean= 0.122
 gam= 1.100 g(H,U,f)=  0.280E+02 0.190E+02 0.307E+01 ort(H,U,f) = 0.118E+02-0.767E+01-0.594E+01
CGA:  45    -0.196729998302E+03   -0.66503E+00   -0.80426E+00  5760   0.501E+02-0.181E+01
 gam= 1.100 trial= 0.118  step= 0.042 mean= 0.118
 gam= 1.363 g(H,U,f)=  0.275E+02 0.323E+02 0.852E+01 ort(H,U,f) = 0.107E+02-0.381E+01-0.647E+01
CGA:  46    -0.197618868880E+03   -0.88887E+00   -0.10182E+01  5760   0.683E+02 0.395E+00
 gam= 1.363 trial= 0.114  step= 0.036 mean= 0.114
 gam= 0.892 g(H,U,f)=  0.264E+02 0.261E+02 0.843E+01 ort(H,U,f) =-0.664E+01 0.133E+02-0.826E+00
CGA:  47    -0.198559129834E+03   -0.94026E+00   -0.12306E+01  5760   0.609E+02 0.589E+01
 gam= 0.892 trial= 0.110  step= 0.033 mean= 0.110
 gam= 0.000 g(H,U,f)=  0.255E+02 0.125E+02 0.152E+01 ort(H,U,f) =-0.169E+02 0.168E+02 0.270E+01
SDA:  48    -0.199360425099E+03   -0.80130E+00   -0.10786E+01  5760   0.395E+02 0.260E+01
 gam= 0.000 trial= 0.106  step= 0.306 mean= 0.106
 gam= 1.609 g(H,U,f)=  0.145E+02 0.346E+02 0.145E+02 ort(H,U,f) = 0.121E+02-0.358E+01-0.383E+01
CGA:  49    -0.205981161590E+03   -0.66207E+01   -0.60437E+01  5760   0.636E+02 0.469E+01
 gam= 1.609 trial= 0.116  step= 0.153 mean= 0.116
 gam= 0.455 g(H,U,f)=  0.101E+02 0.164E+02 0.247E+01 ort(H,U,f) = 0.877E+01 0.793E+00-0.265E+01
CGA:  50    -0.211612832745E+03   -0.56317E+01   -0.54300E+01  5760   0.290E+02 0.691E+01
 gam= 0.455 trial= 0.118  step= 0.281 mean= 0.118
 gam= 0.327 g(H,U,f)=  0.305E+01 0.539E+01 0.104E+01 ort(H,U,f) =-0.197E+01 0.671E+01-0.509E+00
CGA:  51    -0.216510693663E+03   -0.48979E+01   -0.45161E+01  5760   0.949E+01 0.423E+01
 gam= 0.327 trial= 0.126  step= 0.349 mean= 0.126
 gam= 1.794 g(H,U,f)=  0.309E+01 0.782E+01 0.611E+01 ort(H,U,f) =-0.126E+01 0.221E+01-0.225E+01
CGA:  52    -0.218375850259E+03   -0.18652E+01   -0.18967E+01  5760   0.170E+02-0.130E+01
 gam= 1.794 trial= 0.137  step= 0.185 mean= 0.137
 gam= 0.704 g(H,U,f)=  0.455E+01 0.602E+01 0.140E+01 ort(H,U,f) =-0.358E+01 0.470E+01 0.664E+00
CGA:  53    -0.219787477077E+03   -0.14116E+01   -0.13605E+01  5760   0.120E+02 0.178E+01
 gam= 0.704 trial= 0.140  step= 0.179 mean= 0.140
 gam= 0.483 g(H,U,f)=  0.303E+01 0.231E+01 0.444E+00 ort(H,U,f) =-0.528E+00 0.291E+01-0.641E+00
CGA:  54    -0.221045857552E+03   -0.12584E+01   -0.11819E+01  5760   0.579E+01 0.174E+01
 gam= 0.483 trial= 0.142  step= 0.231 mean= 0.142
 gam= 0.778 g(H,U,f)=  0.177E+01 0.239E+01 0.334E+00 ort(H,U,f) = 0.344E+00-0.542E+00 0.293E-01
CGA:  55    -0.221804991086E+03   -0.75913E+00   -0.76579E+00  5760   0.450E+01-0.169E+00
 gam= 0.778 trial= 0.146  step= 0.157 mean= 0.146
 gam= 0.483 g(H,U,f)=  0.119E+01 0.933E+00 0.441E-01 ort(H,U,f) = 0.517E+00-0.447E+00 0.878E-01
CGA:  56    -0.222149166939E+03   -0.34418E+00   -0.34294E+00  5760   0.217E+01 0.158E+00
 gam= 0.483 trial= 0.147  step= 0.309 mean= 0.147
 gam= 0.797 g(H,U,f)=  0.768E+00 0.957E+00 0.609E-02 ort(H,U,f) = 0.175E+00 0.652E-01 0.394E-02
CGA:  57    -0.222520302668E+03   -0.37114E+00   -0.34701E+00  5760   0.173E+01 0.244E+00
 gam= 0.797 trial= 0.155  step= 0.255 mean= 0.155
 gam= 0.749 g(H,U,f)=  0.503E+00 0.786E+00 0.685E-02 ort(H,U,f) =-0.184E+00 0.151E+00 0.422E-02
CGA:  58    -0.222763396747E+03   -0.24309E+00   -0.24521E+00  5760   0.130E+01-0.279E-01
 gam= 0.749 trial= 0.160  step= 0.262 mean= 0.160
 gam= 0.939 g(H,U,f)=  0.494E+00 0.723E+00 0.159E-04 ort(H,U,f) =-0.277E+00 0.313E+00 0.162E-04
CGA:  59    -0.222931856376E+03   -0.16846E+00   -0.16704E+00  5760   0.122E+01 0.361E-01
 gam= 0.939 trial= 0.165  step= 0.226 mean= 0.165
 gam= 0.821 g(H,U,f)=  0.481E+00 0.519E+00 0.145E-09 ort(H,U,f) =-0.248E+00 0.415E+00 0.540E-09
CGA:  60    -0.223079095747E+03   -0.14724E+00   -0.14112E+00  5760   0.100E+01 0.167E+00
 gam= 0.821 trial= 0.168  step= 0.284 mean= 0.168
 gam= 0.714 g(H,U,f)=  0.391E+00 0.322E+00 0.498E-09 ort(H,U,f) =-0.202E+00 0.346E+00 0.172E-08
CGA:  61    -0.223249857130E+03   -0.17076E+00   -0.16170E+00  5760   0.713E+00 0.143E+00
 gam= 0.714 trial= 0.174  step= 0.294 mean= 0.174
 gam= 0.724 g(H,U,f)=  0.285E+00 0.232E+00 0.851E-08 ort(H,U,f) =-0.890E-01 0.143E+00-0.527E-07
CGA:  62    -0.223372604164E+03   -0.12275E+00   -0.11971E+00  5760   0.517E+00 0.540E-01
 gam= 0.724 trial= 0.180  step= 0.304 mean= 0.180
 gam= 0.869 g(H,U,f)=  0.225E+00 0.224E+00 0.124E-05 ort(H,U,f) =-0.900E-02 0.596E-01-0.244E-05
CGA:  63    -0.223460190251E+03   -0.87586E-01   -0.84541E-01  5760   0.449E+00 0.505E-01
 gam= 0.869 trial= 0.186  step= 0.276 mean= 0.186
 gam= 0.652 g(H,U,f)=  0.139E+00 0.153E+00 0.361E-08 ort(H,U,f) =-0.803E-02 0.573E-01-0.313E-08
CGA:  64    -0.223530597806E+03   -0.70408E-01   -0.68110E-01  5760   0.293E+00 0.493E-01
 gam= 0.652 trial= 0.191  step= 0.258 mean= 0.191
 gam= 0.634 g(H,U,f)=  0.960E-01 0.894E-01 0.482E-10 ort(H,U,f) =-0.115E-01 0.393E-01 0.326E-10
CGA:  65    -0.223573541552E+03   -0.42944E-01   -0.41921E-01  5760   0.185E+00 0.278E-01
 gam= 0.634 trial= 0.194  step= 0.325 mean= 0.194
 gam= 0.895 g(H,U,f)=  0.792E-01 0.866E-01 0.905E-06 ort(H,U,f) =-0.614E-02 0.241E-01 0.968E-06
CGA:  66    -0.223607844646E+03   -0.34303E-01   -0.33006E-01  5760   0.166E+00 0.180E-01
 gam= 0.895 trial= 0.200  step= 0.311 mean= 0.200
 gam= 0.671 g(H,U,f)=  0.534E-01 0.579E-01 0.380E-07 ort(H,U,f) =-0.287E-01 0.390E-01 0.792E-07
CGA:  67    -0.223636822961E+03   -0.28978E-01   -0.28310E-01  5760   0.111E+00 0.102E-01
 gam= 0.671 trial= 0.206  step= 0.330 mean= 0.206
 gam= 0.880 g(H,U,f)=  0.514E-01 0.464E-01 0.390E-09 ort(H,U,f) =-0.282E-01 0.313E-01 0.141E-08
CGA:  68    -0.223656582560E+03   -0.19760E-01   -0.19516E-01  5760   0.978E-01 0.312E-02
 gam= 0.880 trial= 0.212  step= 0.378 mean= 0.212
 gam= 0.905 g(H,U,f)=  0.488E-01 0.398E-01 0.239E-05 ort(H,U,f) =-0.214E-01 0.217E-01-0.446E-06
CGA:  69    -0.223675696322E+03   -0.19114E-01   -0.19023E-01  5760   0.886E-01 0.378E-03
 gam= 0.905 trial= 0.221  step= 0.312 mean= 0.221
 gam= 0.706 g(H,U,f)=  0.341E-01 0.284E-01 0.335E-06 ort(H,U,f) =-0.126E-01 0.113E-01-0.532E-06
CGA:  70    -0.223689508995E+03   -0.13813E-01   -0.13862E-01  5760   0.625E-01-0.132E-02
 gam= 0.706 trial= 0.225  step= 0.342 mean= 0.225
 gam= 0.913 g(H,U,f)=  0.292E-01 0.279E-01 0.161E-07 ort(H,U,f) =-0.634E-02 0.494E-02-0.142E-07
CGA:  71    -0.223699936336E+03   -0.10427E-01   -0.10518E-01  5760   0.571E-01-0.140E-02
 gam= 0.913 trial= 0.231  step= 0.347 mean= 0.231
 gam= 0.871 g(H,U,f)=  0.236E-01 0.261E-01 0.753E-05 ort(H,U,f) =-0.689E-02 0.587E-02 0.227E-05
CGA:  72    -0.223709540126E+03   -0.96038E-02   -0.96919E-02  5760   0.497E-01-0.102E-02
 gam= 0.871 trial= 0.237  step= 0.310 mean= 0.237
 gam= 0.822 g(H,U,f)=  0.198E-01 0.211E-01 0.854E-07 ort(H,U,f) =-0.813E-02 0.850E-02 0.880E-07
CGA:  73    -0.223717108996E+03   -0.75689E-02   -0.75707E-02  5760   0.409E-01 0.377E-03
 gam= 0.822 trial= 0.240  step= 0.352 mean= 0.240
 gam= 1.073 g(H,U,f)=  0.200E-01 0.239E-01 0.442E-08 ort(H,U,f) =-0.969E-02 0.109E-01 0.202E-08
CGA:  74    -0.223724410098E+03   -0.73011E-02   -0.72431E-02  5760   0.439E-01 0.124E-02
 gam= 1.073 trial= 0.246  step= 0.346 mean= 0.246
 gam= 0.944 g(H,U,f)=  0.220E-01 0.195E-01 0.147E-05 ort(H,U,f) =-0.149E-01 0.166E-01 0.102E-05
CGA:  75    -0.223732315254E+03   -0.79052E-02   -0.78253E-02  5760   0.414E-01 0.170E-02
 gam= 0.944 trial= 0.251  step= 0.332 mean= 0.251
 gam= 0.968 g(H,U,f)=  0.214E-01 0.187E-01 0.620E-08 ort(H,U,f) =-0.112E-01 0.127E-01 0.613E-08
CGA:  76    -0.223739506749E+03   -0.71915E-02   -0.71335E-02  5760   0.401E-01 0.149E-02
 gam= 0.968 trial= 0.255  step= 0.354 mean= 0.255
 gam= 1.043 g(H,U,f)=  0.207E-01 0.211E-01 0.854E-08 ort(H,U,f) =-0.879E-02 0.102E-01-0.492E-08
CGA:  77    -0.223746937101E+03   -0.74304E-02   -0.73609E-02  5760   0.418E-01 0.142E-02
 gam= 1.043 trial= 0.260  step= 0.340 mean= 0.260
 gam= 0.980 g(H,U,f)=  0.198E-01 0.212E-01 0.172E-05 ort(H,U,f) =-0.810E-02 0.951E-02-0.450E-05
CGA:  78    -0.223754364464E+03   -0.74274E-02   -0.73709E-02  5760   0.410E-01 0.141E-02
 gam= 0.980 trial= 0.264  step= 0.326 mean= 0.264
 gam= 0.000 g(H,U,f)=  0.179E-01 0.197E-01 0.106E-04 ort(H,U,f) =-0.742E-02 0.881E-02-0.218E-04
SDA:  79    -0.223761320505E+03   -0.69560E-02   -0.69119E-02  5760   0.375E-01 0.137E-02
 gam= 0.000 trial= 0.267  step= 0.507 mean= 0.267
 gam= 0.866 g(H,U,f)=  0.114E-01 0.211E-01 0.529E-05 ort(H,U,f) =-0.161E-02 0.169E-02 0.373E-07
CGA:  80    -0.223770845383E+03   -0.95249E-02   -0.95138E-02  5760   0.325E-01 0.804E-04
 gam= 0.866 trial= 0.279  step= 0.672 mean= 0.279
 gam= 0.557 g(H,U,f)=  0.819E-02 0.992E-02 0.607E-05 ort(H,U,f) =-0.759E-02 0.784E-02 0.718E-05
CGA:  81    -0.223781846907E+03   -0.11002E-01   -0.10953E-01  5760   0.181E-01 0.256E-03
 gam= 0.557 trial= 0.299  step= 0.481 mean= 0.299
 gam= 0.684 g(H,U,f)=  0.580E-02 0.659E-02 0.296E-08 ort(H,U,f) =-0.270E-02 0.281E-02-0.359E-08
CGA:  82    -0.223786250107E+03   -0.44032E-02   -0.43917E-02  5760   0.124E-01 0.103E-03
 gam= 0.684 trial= 0.308  step= 0.737 mean= 0.308
 gam= 0.810 g(H,U,f)=  0.489E-02 0.514E-02 0.590E-08 ort(H,U,f) =-0.229E-02 0.231E-02-0.452E-08
CGA:  83    -0.223790847965E+03   -0.45979E-02   -0.45942E-02  5760   0.100E-01 0.194E-04
 gam= 0.810 trial= 0.329  step= 0.752 mean= 0.329
 gam= 0.902 g(H,U,f)=  0.377E-02 0.528E-02 0.272E-07 ort(H,U,f) =-0.234E-02 0.236E-02-0.401E-07
CGA:  84    -0.223794632016E+03   -0.37841E-02   -0.37797E-02  5760   0.906E-02 0.221E-04
 gam= 0.902 trial= 0.350  step= 1.205 mean= 0.350
 gam= 1.958 g(H,U,f)=  0.876E-02 0.897E-02 0.757E-06 ort(H,U,f) =-0.338E-02 0.337E-02-0.191E-06
CGA:  85    -0.223800096234E+03   -0.54642E-02   -0.54695E-02  5760   0.177E-01-0.159E-04
 gam= 1.958 trial= 0.393  step= 1.309 mean= 0.393
 gam= 1.558 g(H,U,f)=  0.148E-01 0.128E-01 0.779E-07 ort(H,U,f) =-0.695E-02 0.677E-02 0.277E-07
CGA:  86    -0.223811617398E+03   -0.11521E-01   -0.11587E-01  5760   0.276E-01-0.182E-03
 gam= 1.558 trial= 0.439  step= 0.670 mean= 0.439
 gam= 1.119 g(H,U,f)=  0.154E-01 0.155E-01 0.493E-07 ort(H,U,f) =-0.540E-02 0.528E-02-0.334E-07
CGA:  87    -0.223820759094E+03   -0.91417E-02   -0.91579E-02  5760   0.309E-01-0.117E-03
 gam= 1.119 trial= 0.451  step= 0.791 mean= 0.451
 gam= 0.799 g(H,U,f)=  0.114E-01 0.133E-01 0.132E-07 ort(H,U,f) =-0.376E-02 0.335E-02 0.236E-09
CGA:  88    -0.223832865143E+03   -0.12106E-01   -0.12180E-01  5760   0.247E-01-0.411E-03
 gam= 0.799 trial= 0.468  step= 0.543 mean= 0.468
 gam= 0.612 g(H,U,f)=  0.763E-02 0.747E-02 0.828E-07 ort(H,U,f) =-0.336E-02 0.334E-02-0.273E-06
CGA:  89    -0.223839487528E+03   -0.66224E-02   -0.66238E-02  5760   0.151E-01-0.199E-04
 gam= 0.612 trial= 0.471  step= 1.069 mean= 0.471
 gam= 1.167 g(H,U,f)=  0.745E-02 0.102E-01 0.291E-09 ort(H,U,f) =-0.392E-02 0.393E-02 0.327E-10
CGA:  90    -0.223847562777E+03   -0.80752E-02   -0.80696E-02  5760   0.176E-01 0.190E-04
 gam= 1.167 trial= 0.501  step= 0.601 mean= 0.501
 gam= 0.820 g(H,U,f)=  0.715E-02 0.730E-02 0.100E-07 ort(H,U,f) =-0.459E-02 0.460E-02-0.642E-08
CGA:  91    -0.223852866113E+03   -0.53033E-02   -0.53037E-02  5760   0.145E-01 0.832E-05
 gam= 0.820 trial= 0.506  step= 0.963 mean= 0.506
 gam= 1.242 g(H,U,f)=  0.813E-02 0.982E-02 0.293E-07 ort(H,U,f) =-0.268E-02 0.271E-02-0.949E-08
CGA:  92    -0.223859834023E+03   -0.69679E-02   -0.69600E-02  5760   0.180E-01 0.329E-04
 gam= 1.242 trial= 0.529  step= 0.575 mean= 0.529
 gam= 0.534 g(H,U,f)=  0.569E-02 0.390E-02 0.828E-08 ort(H,U,f) =-0.224E-02 0.228E-02 0.820E-08
CGA:  93    -0.223865005735E+03   -0.51717E-02   -0.51706E-02  5760   0.959E-02 0.371E-04
 gam= 0.534 trial= 0.531  step= 0.946 mean= 0.531
 gam= 0.692 g(H,U,f)=  0.351E-02 0.313E-02 0.137E-06 ort(H,U,f) =-0.124E-02 0.123E-02-0.480E-06
CGA:  94    -0.223869547069E+03   -0.45413E-02   -0.45435E-02  5760   0.664E-02-0.110E-04
 gam= 0.692 trial= 0.552  step= 0.744 mean= 0.552
 gam= 0.902 g(H,U,f)=  0.300E-02 0.299E-02 0.891E-08 ort(H,U,f) =-0.997E-03 0.101E-02-0.425E-08
CGA:  95    -0.223872012849E+03   -0.24658E-02   -0.24651E-02  5760   0.599E-02 0.860E-05
 gam= 0.902 trial= 0.562  step= 0.738 mean= 0.562
 gam= 0.616 g(H,U,f)=  0.194E-02 0.175E-02 0.215E-06 ort(H,U,f) =-0.129E-02 0.128E-02-0.138E-06
CGA:  96    -0.223874224645E+03   -0.22118E-02   -0.22130E-02  5760   0.369E-02-0.112E-04
 gam= 0.616 trial= 0.570  step= 0.828 mean= 0.570
 gam= 1.083 g(H,U,f)=  0.164E-02 0.235E-02 0.232E-06 ort(H,U,f) =-0.599E-03 0.593E-03-0.222E-06
CGA:  97    -0.223875747765E+03   -0.15231E-02   -0.15240E-02  5760   0.399E-02-0.561E-05
 gam= 1.083 trial= 0.583  step= 0.504 mean= 0.583
 gam= 0.594 g(H,U,f)=  0.118E-02 0.119E-02 0.351E-06 ort(H,U,f) =-0.610E-03 0.611E-03 0.190E-06
CGA:  98    -0.223876753118E+03   -0.10054E-02   -0.10053E-02  5760   0.237E-02 0.170E-05
 gam= 0.594 trial= 0.579  step= 0.857 mean= 0.579
 gam= 0.916 g(H,U,f)=  0.965E-03 0.121E-02 0.662E-08 ort(H,U,f) =-0.410E-03 0.410E-03-0.585E-08
CGA:  99    -0.223877769720E+03   -0.10166E-02   -0.10166E-02  5760   0.217E-02-0.164E-06
 gam= 0.916 trial= 0.593  step= 0.835 mean= 0.593
 gam= 1.088 g(H,U,f)=  0.960E-03 0.140E-02 0.655E-08 ort(H,U,f) =-0.464E-03 0.463E-03-0.419E-08
CGA: 100    -0.223878676311E+03   -0.90659E-03   -0.90668E-03  5760   0.236E-02-0.524E-06
 gam= 1.088 trial= 0.605  step= 0.889 mean= 0.605
 gam= 1.317 g(H,U,f)=  0.118E-02 0.194E-02 0.130E-06 ort(H,U,f) =-0.718E-03 0.721E-03-0.114E-06
CGA: 101    -0.223879726788E+03   -0.10505E-02   -0.10501E-02  5760   0.311E-02 0.363E-05
 gam= 1.317 trial= 0.620  step= 0.776 mean= 0.620
 gam= 1.131 g(H,U,f)=  0.173E-02 0.179E-02 0.899E-06 ort(H,U,f) =-0.108E-02 0.108E-02-0.153E-06
CGA: 102    -0.223880936597E+03   -0.12098E-02   -0.12096E-02  5760   0.352E-02 0.479E-05
 gam= 1.131 trial= 0.627  step= 1.266 mean= 0.627
 gam= 1.401 g(H,U,f)=  0.265E-02 0.228E-02 0.859E-06 ort(H,U,f) =-0.120E-02 0.121E-02-0.702E-06
CGA: 103    -0.223883174126E+03   -0.22375E-02   -0.22327E-02  5760   0.493E-02 0.134E-04
 gam= 1.401 trial= 0.659  step= 0.700 mean= 0.659
 gam= 0.854 g(H,U,f)=  0.252E-02 0.169E-02 0.178E-06 ort(H,U,f) =-0.954E-03 0.958E-03-0.273E-06
CGA: 104    -0.223884907345E+03   -0.17332E-02   -0.17333E-02  5760   0.421E-02 0.420E-05
 gam= 0.854 trial= 0.661  step= 1.015 mean= 0.661
 gam= 0.961 g(H,U,f)=  0.175E-02 0.230E-02 0.649E-06 ort(H,U,f) =-0.516E-03 0.519E-03-0.181E-06
CGA: 105    -0.223887047151E+03   -0.21398E-02   -0.21394E-02  5760   0.405E-02 0.206E-05
 gam= 0.961 trial= 0.679  step= 0.511 mean= 0.679
 gam= 0.682 g(H,U,f)=  0.129E-02 0.147E-02 0.199E-05 ort(H,U,f) =-0.322E-03 0.317E-03-0.111E-05
CGA: 106    -0.223888080881E+03   -0.10337E-02   -0.10334E-02  5760   0.276E-02-0.658E-05
 gam= 0.682 trial= 0.671  step= 0.823 mean= 0.671
 gam= 1.029 g(H,U,f)=  0.115E-02 0.169E-02 0.113E-07 ort(H,U,f) =-0.408E-03 0.408E-03-0.690E-08
CGA: 107    -0.223889213062E+03   -0.11322E-02   -0.11321E-02  5760   0.284E-02 0.125E-06
 gam= 1.029 trial= 0.678  step= 0.639 mean= 0.678
 gam= 0.566 g(H,U,f)=  0.933E-03 0.672E-03 0.306E-08 ort(H,U,f) =-0.637E-03 0.640E-03-0.207E-08
CGA: 108    -0.223890119610E+03   -0.90655E-03   -0.90652E-03  5760   0.161E-02 0.277E-05
 gam= 0.566 trial= 0.676  step= 1.200 mean= 0.676
 gam= 1.102 g(H,U,f)=  0.831E-03 0.938E-03 0.585E-08 ort(H,U,f) =-0.300E-03 0.295E-03-0.232E-08
CGA: 109    -0.223891082700E+03   -0.96309E-03   -0.96451E-03  5760   0.177E-02-0.534E-05
 gam= 1.102 trial= 0.702  step= 0.535 mean= 0.702
 gam= 0.000 g(H,U,f)=  0.627E-03 0.594E-03 0.383E-08 ort(H,U,f) =-0.156E-03 0.160E-03-0.266E-08
SDA: 110    -0.223891554146E+03   -0.47145E-03   -0.47161E-03  5760   0.122E-02 0.385E-05
 gam= 0.000 trial= 0.694  step= 0.439 mean= 0.694
 gam= 0.729 g(H,U,f)=  0.300E-03 0.590E-03 0.298E-08 ort(H,U,f) = 0.172E-03-0.172E-03-0.294E-08
CGA: 111    -0.223891821988E+03   -0.26784E-03   -0.26789E-03  5760   0.890E-03-0.146E-07
 gam= 0.729 trial= 0.681  step= 0.819 mean= 0.681
 gam= 0.701 g(H,U,f)=  0.284E-03 0.340E-03 0.233E-08 ort(H,U,f) =-0.209E-03 0.208E-03-0.560E-09
CGA: 112    -0.223892186414E+03   -0.36443E-03   -0.36447E-03  5760   0.623E-03-0.709E-06
 gam= 0.701 trial= 0.688  step= 0.841 mean= 0.688
 gam= 1.236 g(H,U,f)=  0.328E-03 0.442E-03 0.331E-08 ort(H,U,f) =-0.167E-03 0.167E-03-0.222E-08
CGA: 113    -0.223892448523E+03   -0.26211E-03   -0.26206E-03  5760   0.771E-03 0.628E-06
 gam= 1.236 trial= 0.696  step= 0.835 mean= 0.696
 gam= 1.078 g(H,U,f)=  0.376E-03 0.454E-03 0.113E-08 ort(H,U,f) =-0.276E-03 0.276E-03-0.351E-09
CGA: 114    -0.223892770517E+03   -0.32199E-03   -0.32199E-03  5760   0.831E-03-0.576E-07
 gam= 1.078 trial= 0.703  step= 0.747 mean= 0.703
 gam= 1.272 g(H,U,f)=  0.502E-03 0.555E-03 0.949E-09 ort(H,U,f) =-0.231E-03 0.230E-03-0.821E-09
CGA: 115    -0.223893080860E+03   -0.31034E-03   -0.31036E-03  5760   0.106E-02-0.580E-06
 gam= 1.272 trial= 0.705  step= 0.955 mean= 0.705
 gam= 0.992 g(H,U,f)=  0.603E-03 0.445E-03 0.978E-10 ort(H,U,f) =-0.288E-03 0.289E-03-0.447E-10
CGA: 116    -0.223893585293E+03   -0.50443E-03   -0.50430E-03  5760   0.105E-02 0.122E-05
 gam= 0.992 trial= 0.718  step= 0.922 mean= 0.718
 gam= 1.011 g(H,U,f)=  0.549E-03 0.511E-03 0.901E-09 ort(H,U,f) =-0.169E-03 0.169E-03 0.105E-09
CGA: 117    -0.223894069090E+03   -0.48380E-03   -0.48377E-03  5760   0.106E-02 0.134E-06
 gam= 1.011 trial= 0.728  step= 0.764 mean= 0.728
 gam= 0.658 g(H,U,f)=  0.392E-03 0.305E-03 0.584E-10 ort(H,U,f) =-0.172E-03 0.171E-03 0.164E-09
CGA: 118    -0.223894473775E+03   -0.40468E-03   -0.40472E-03  5760   0.697E-03-0.126E-05
 gam= 0.658 trial= 0.730  step= 1.014 mean= 0.730
 gam= 0.886 g(H,U,f)=  0.307E-03 0.310E-03 0.420E-09 ort(H,U,f) =-0.170E-03 0.171E-03-0.763E-09
CGA: 119    -0.223894826982E+03   -0.35321E-03   -0.35299E-03  5760   0.618E-03 0.146E-05
 gam= 0.886 trial= 0.744  step= 0.903 mean= 0.744
 gam= 1.134 g(H,U,f)=  0.370E-03 0.331E-03 0.213E-08 ort(H,U,f) =-0.174E-03 0.171E-03 0.486E-09
CGA: 120    -0.223895106201E+03   -0.27922E-03   -0.27949E-03  5760   0.700E-03-0.317E-05
 gam= 1.134 trial= 0.752  step= 1.173 mean= 0.752
 gam= 1.189 g(H,U,f)=  0.444E-03 0.389E-03 0.199E-08 ort(H,U,f) =-0.239E-03 0.240E-03-0.239E-08
CGA: 121    -0.223895515184E+03   -0.40898E-03   -0.40869E-03  5760   0.833E-03 0.141E-05
 gam= 1.189 trial= 0.773  step= 0.690 mean= 0.773
 gam= 1.062 g(H,U,f)=  0.454E-03 0.430E-03 0.389E-08 ort(H,U,f) =-0.177E-03 0.177E-03 0.153E-08
CGA: 122    -0.223895803138E+03   -0.28795E-03   -0.28792E-03  5760   0.884E-03-0.213E-06
 gam= 1.062 trial= 0.769  step= 0.961 mean= 0.769
 gam= 1.097 g(H,U,f)=  0.422E-03 0.548E-03 0.118E-07 ort(H,U,f) =-0.183E-03 0.180E-03-0.881E-08
CGA: 123    -0.223896227464E+03   -0.42433E-03   -0.42465E-03  5760   0.971E-03-0.298E-05
 gam= 1.097 trial= 0.778  step= 0.489 mean= 0.778
 gam= 0.567 g(H,U,f)=  0.319E-03 0.232E-03 0.107E-08 ort(H,U,f) =-0.144E-03 0.145E-03-0.840E-09
CGA: 124    -0.223896463919E+03   -0.23645E-03   -0.23671E-03  5760   0.551E-03 0.583E-06
 gam= 0.567 trial= 0.764  step= 0.954 mean= 0.764
 gam= 0.835 g(H,U,f)=  0.224E-03 0.236E-03 0.241E-08 ort(H,U,f) =-0.806E-04 0.816E-04-0.860E-09
CGA: 125    -0.223896726793E+03   -0.26287E-03   -0.26280E-03  5760   0.460E-03 0.102E-05
 gam= 0.835 trial= 0.773  step= 0.584 mean= 0.773
 gam= 0.761 g(H,U,f)=  0.161E-03 0.189E-03 0.570E-08 ort(H,U,f) =-0.556E-04 0.531E-04-0.262E-08
CGA: 126    -0.223896861576E+03   -0.13478E-03   -0.13455E-03  5760   0.350E-03-0.247E-05
 gam= 0.761 trial= 0.764  step= 0.748 mean= 0.764
 gam= 0.838 g(H,U,f)=  0.140E-03 0.154E-03 0.411E-08 ort(H,U,f) =-0.688E-04 0.682E-04-0.390E-08
CGA: 127    -0.223896991814E+03   -0.13024E-03   -0.13023E-03  5760   0.293E-03-0.621E-06
 gam= 0.838 trial= 0.763  step= 0.749 mean= 0.763
 gam= 0.998 g(H,U,f)=  0.147E-03 0.146E-03 0.758E-09 ort(H,U,f) =-0.651E-04 0.679E-04 0.348E-09
CGA: 128    -0.223897101517E+03   -0.10970E-03   -0.10972E-03  5760   0.293E-03 0.278E-05
 gam= 0.998 trial= 0.762  step= 0.936 mean= 0.762
 gam= 0.848 g(H,U,f)=  0.144E-03 0.104E-03 0.312E-08 ort(H,U,f) =-0.951E-04 0.930E-04-0.270E-08
CGA: 129    -0.223897239670E+03   -0.13815E-03   -0.13833E-03  5760   0.249E-03-0.209E-05
 gam= 0.848 trial= 0.771  step= 1.207 mean= 0.771
 gam= 1.405 g(H,U,f)=  0.181E-03 0.168E-03 0.242E-08 ort(H,U,f) =-0.818E-04 0.826E-04-0.843E-09
CGA: 130    -0.223897388760E+03   -0.14909E-03   -0.14890E-03  5760   0.349E-03 0.866E-06
 gam= 1.405 trial= 0.793  step= 0.918 mean= 0.793
 gam= 1.157 g(H,U,f)=  0.217E-03 0.187E-03 0.103E-07 ort(H,U,f) =-0.109E-03 0.110E-03-0.157E-08
CGA: 131    -0.223897549653E+03   -0.16089E-03   -0.16084E-03  5760   0.404E-03 0.125E-05
 gam= 1.157 trial= 0.799  step= 1.059 mean= 0.799
 gam= 1.409 g(H,U,f)=  0.271E-03 0.297E-03 0.694E-07 ort(H,U,f) =-0.126E-03 0.124E-03-0.240E-07
CGA: 132    -0.223897763888E+03   -0.21424E-03   -0.21454E-03  5760   0.569E-03-0.236E-05
 gam= 1.409 trial= 0.812  step= 0.670 mean= 0.812
 gam= 1.053 g(H,U,f)=  0.296E-03 0.302E-03 0.698E-07 ort(H,U,f) =-0.129E-03 0.130E-03-0.443E-07
CGA: 133    -0.223897953234E+03   -0.18935E-03   -0.18932E-03  5760   0.599E-03 0.558E-06
 gam= 1.053 trial= 0.805  step= 0.798 mean= 0.805
 gam= 1.056 g(H,U,f)=  0.297E-03 0.336E-03 0.171E-07 ort(H,U,f) =-0.131E-03 0.129E-03-0.109E-07
CGA: 134    -0.223898192404E+03   -0.23917E-03   -0.23916E-03  5760   0.633E-03-0.159E-05
 gam= 1.056 trial= 0.805  step= 0.671 mean= 0.805
 gam= 0.681 g(H,U,f)=  0.254E-03 0.177E-03 0.162E-08 ort(H,U,f) =-0.153E-03 0.150E-03 0.821E-09
CGA: 135    -0.223898404316E+03   -0.21191E-03   -0.21172E-03  5760   0.431E-03-0.327E-05
 gam= 0.681 trial= 0.798  step= 1.246 mean= 0.798
 gam= 1.127 g(H,U,f)=  0.241E-03 0.244E-03 0.305E-08 ort(H,U,f) =-0.105E-03 0.102E-03-0.212E-08
CGA: 136    -0.223898670315E+03   -0.26600E-03   -0.26687E-03  5760   0.485E-03-0.339E-05
 gam= 1.127 trial= 0.820  step= 0.747 mean= 0.820
 gam= 0.909 g(H,U,f)=  0.216E-03 0.225E-03 0.129E-07 ort(H,U,f) =-0.103E-03 0.997E-04-0.197E-08
CGA: 137    -0.223898850293E+03   -0.17998E-03   -0.17982E-03  5760   0.441E-03-0.307E-05
 gam= 0.909 trial= 0.817  step= 0.923 mean= 0.817
 gam= 1.260 g(H,U,f)=  0.222E-03 0.334E-03 0.867E-08 ort(H,U,f) =-0.930E-04 0.927E-04-0.939E-08
CGA: 138    -0.223899052585E+03   -0.20229E-03   -0.20231E-03  5760   0.556E-03-0.289E-06
 gam= 1.260 trial= 0.822  step= 0.586 mean= 0.822
 gam= 0.798 g(H,U,f)=  0.199E-03 0.244E-03 0.564E-08 ort(H,U,f) =-0.106E-03 0.107E-03 0.264E-08
CGA: 139    -0.223899215550E+03   -0.16296E-03   -0.16272E-03  5760   0.443E-03 0.101E-05
 gam= 0.798 trial= 0.810  step= 0.849 mean= 0.810
 gam= 0.994 g(H,U,f)=  0.206E-03 0.234E-03 0.210E-07 ort(H,U,f) =-0.104E-03 0.103E-03-0.180E-07
CGA: 140    -0.223899404039E+03   -0.18849E-03   -0.18853E-03  5760   0.441E-03-0.112E-05
 gam= 0.994 trial= 0.812  step= 0.843 mean= 0.812
 gam= 0.000 g(H,U,f)=  0.215E-03 0.281E-03 0.787E-09 ort(H,U,f) =-0.942E-04 0.923E-04-0.867E-10
SDA: 141    -0.223899589384E+03   -0.18534E-03   -0.18539E-03  5760   0.497E-03-0.183E-05
 gam= 0.000 trial= 0.814  step= 0.465 mean= 0.814
 gam= 0.609 g(H,U,f)=  0.908E-04 0.212E-03 0.450E-08 ort(H,U,f) = 0.306E-04-0.301E-04-0.158E-08
CGA: 142    -0.223899704736E+03   -0.11535E-03   -0.11544E-03  5760   0.303E-03 0.502E-06
 gam= 0.609 trial= 0.796  step= 0.911 mean= 0.796
 gam= 1.303 g(H,U,f)=  0.133E-03 0.261E-03 0.552E-08 ort(H,U,f) =-0.644E-04 0.640E-04-0.365E-08
CGA: 143    -0.223899842659E+03   -0.13792E-03   -0.13795E-03  5760   0.394E-03-0.408E-06
 gam= 1.303 trial= 0.802  step= 0.855 mean= 0.802
 gam= 1.167 g(H,U,f)=  0.207E-03 0.253E-03 0.979E-08 ort(H,U,f) =-0.133E-03 0.131E-03 0.611E-09
CGA: 144    -0.223900010911E+03   -0.16825E-03   -0.16830E-03  5760   0.460E-03-0.159E-05
 gam= 1.167 trial= 0.805  step= 0.901 mean= 0.805
 gam= 1.075 g(H,U,f)=  0.240E-03 0.255E-03 0.173E-07 ort(H,U,f) =-0.163E-03 0.164E-03-0.128E-07
CGA: 145    -0.223900217349E+03   -0.20644E-03   -0.20641E-03  5760   0.495E-03 0.537E-06
 gam= 1.075 trial= 0.809  step= 0.916 mean= 0.809
 gam= 1.490 g(H,U,f)=  0.283E-03 0.454E-03 0.484E-07 ort(H,U,f) =-0.133E-03 0.133E-03-0.624E-08
CGA: 146    -0.223900444000E+03   -0.22665E-03   -0.22666E-03  5760   0.737E-03-0.861E-07
 gam= 1.490 trial= 0.815  step= 0.802 mean= 0.815
 gam= 1.053 g(H,U,f)=  0.361E-03 0.415E-03 0.119E-06 ort(H,U,f) =-0.212E-03 0.211E-03-0.671E-07
CGA: 147    -0.223900739451E+03   -0.29545E-03   -0.29544E-03  5760   0.776E-03-0.169E-05
 gam= 1.053 trial= 0.814  step= 0.832 mean= 0.814
 gam= 1.098 g(H,U,f)=  0.431E-03 0.421E-03 0.114E-07 ort(H,U,f) =-0.171E-03 0.172E-03 0.163E-07
CGA: 148    -0.223901061627E+03   -0.32218E-03   -0.32217E-03  5760   0.852E-03 0.633E-06
 gam= 1.098 trial= 0.815  step= 1.123 mean= 0.815
 gam= 0.946 g(H,U,f)=  0.461E-03 0.344E-03 0.162E-06 ort(H,U,f) =-0.205E-03 0.198E-03-0.144E-06
CGA: 149    -0.223901538785E+03   -0.47716E-03   -0.47861E-03  5760   0.806E-03-0.765E-05
 gam= 0.946 trial= 0.830  step= 0.914 mean= 0.830
 gam= 0.851 g(H,U,f)=  0.363E-03 0.323E-03 0.232E-09 ort(H,U,f) =-0.105E-03 0.103E-03-0.855E-09
CGA: 150    -0.223901903344E+03   -0.36456E-03   -0.36471E-03  5760   0.686E-03-0.274E-05
 gam= 0.851 trial= 0.835  step= 0.886 mean= 0.835
 gam= 0.693 g(H,U,f)=  0.250E-03 0.225E-03 0.582E-08 ort(H,U,f) =-0.961E-04 0.945E-04-0.295E-08
CGA: 151    -0.223902206197E+03   -0.30285E-03   -0.30294E-03  5760   0.475E-03-0.161E-05
 gam= 0.693 trial= 0.837  step= 0.891 mean= 0.837
 gam= 1.090 g(H,U,f)=  0.189E-03 0.329E-03 0.529E-07 ort(H,U,f) =-0.577E-04 0.544E-04 0.730E-08
CGA: 152    -0.223902417411E+03   -0.21121E-03   -0.21131E-03  5760   0.518E-03-0.328E-05
 gam= 1.090 trial= 0.840  step= 0.556 mean= 0.840
 gam= 0.697 g(H,U,f)=  0.150E-03 0.211E-03 0.515E-07 ort(H,U,f) =-0.863E-04 0.871E-04-0.553E-07
CGA: 153    -0.223902560500E+03   -0.14309E-03   -0.14310E-03  5760   0.361E-03 0.778E-06
 gam= 0.697 trial= 0.826  step= 0.784 mean= 0.826
 gam= 1.058 g(H,U,f)=  0.165E-03 0.217E-03 0.104E-08 ort(H,U,f) =-0.649E-04 0.663E-04-0.887E-09
CGA: 154    -0.223902702308E+03   -0.14181E-03   -0.14183E-03  5760   0.382E-03 0.144E-05
 gam= 1.058 trial= 0.824  step= 0.786 mean= 0.824
 gam= 0.703 g(H,U,f)=  0.148E-03 0.120E-03 0.129E-08 ort(H,U,f) =-0.965E-04 0.934E-04-0.162E-08
CGA: 155    -0.223902853143E+03   -0.15083E-03   -0.15077E-03  5760   0.269E-03-0.309E-05
 gam= 0.703 trial= 0.822  step= 1.114 mean= 0.822
 gam= 1.091 g(H,U,f)=  0.148E-03 0.145E-03 0.547E-09 ort(H,U,f) =-0.591E-04 0.583E-04 0.178E-11
CGA: 156    -0.223903001428E+03   -0.14829E-03   -0.14843E-03  5760   0.293E-03-0.818E-06
 gam= 1.091 trial= 0.836  step= 0.784 mean= 0.836
 gam= 0.827 g(H,U,f)=  0.129E-03 0.114E-03 0.935E-08 ort(H,U,f) =-0.553E-04 0.553E-04 0.102E-08
CGA: 157    -0.223903115872E+03   -0.11444E-03   -0.11444E-03  5760   0.242E-03 0.358E-07
 gam= 0.827 trial= 0.834  step= 0.990 mean= 0.834
 gam= 1.095 g(H,U,f)=  0.106E-03 0.159E-03 0.256E-07 ort(H,U,f) =-0.430E-04 0.408E-04-0.205E-07
CGA: 158    -0.223903235654E+03   -0.11978E-03   -0.11995E-03  5760   0.265E-03-0.222E-05
 gam= 1.095 trial= 0.842  step= 0.535 mean= 0.842
 gam= 0.777 g(H,U,f)=  0.918E-04 0.114E-03 0.422E-08 ort(H,U,f) =-0.350E-04 0.347E-04-0.167E-08
CGA: 159    -0.223903306064E+03   -0.70411E-04   -0.70355E-04  5760   0.206E-03-0.239E-06
 gam= 0.777 trial= 0.826  step= 0.814 mean= 0.826
 gam= 0.907 g(H,U,f)=  0.817E-04 0.105E-03 0.349E-09 ort(H,U,f) =-0.345E-04 0.345E-04-0.846E-09
CGA: 160    -0.223903389885E+03   -0.83821E-04   -0.83820E-04  5760   0.187E-03 0.128E-07
 gam= 0.907 trial= 0.826  step= 0.828 mean= 0.826
 gam= 0.778 g(H,U,f)=  0.806E-04 0.648E-04 0.249E-08 ort(H,U,f) =-0.459E-04 0.438E-04 0.162E-08
CGA: 161    -0.223903467380E+03   -0.77495E-04   -0.77498E-04  5760   0.145E-03-0.208E-05
 gam= 0.778 trial= 0.826  step= 1.007 mean= 0.826
 gam= 1.202 g(H,U,f)=  0.796E-04 0.953E-04 0.274E-08 ort(H,U,f) =-0.321E-04 0.329E-04-0.390E-08
CGA: 162    -0.223903539868E+03   -0.72488E-04   -0.72413E-04  5760   0.175E-03 0.788E-06
 gam= 1.202 trial= 0.835  step= 0.779 mean= 0.835
 gam= 0.942 g(H,U,f)=  0.805E-04 0.842E-04 0.247E-08 ort(H,U,f) =-0.425E-04 0.432E-04-0.188E-08
CGA: 163    -0.223903608304E+03   -0.68436E-04   -0.68456E-04  5760   0.165E-03 0.754E-06
 gam= 0.942 trial= 0.832  step= 0.838 mean= 0.832
 gam= 1.257 g(H,U,f)=  0.852E-04 0.122E-03 0.197E-08 ort(H,U,f) =-0.373E-04 0.370E-04-0.450E-09
CGA: 164    -0.223903677621E+03   -0.69317E-04   -0.69318E-04  5760   0.207E-03-0.245E-06
 gam= 1.257 trial= 0.832  step= 0.731 mean= 0.832
 gam= 0.844 g(H,U,f)=  0.921E-04 0.826E-04 0.322E-08 ort(H,U,f) =-0.563E-04 0.566E-04-0.128E-08
CGA: 165    -0.223903753228E+03   -0.75607E-04   -0.75628E-04  5760   0.175E-03 0.304E-06
 gam= 0.844 trial= 0.827  step= 0.907 mean= 0.827
 gam= 1.189 g(H,U,f)=  0.909E-04 0.117E-03 0.114E-07 ort(H,U,f) =-0.371E-04 0.382E-04-0.396E-08
CGA: 166    -0.223903832664E+03   -0.79436E-04   -0.79393E-04  5760   0.208E-03 0.108E-05
 gam= 1.189 trial= 0.831  step= 0.690 mean= 0.831
 gam= 0.895 g(H,U,f)=  0.848E-04 0.101E-03 0.122E-07 ort(H,U,f) =-0.390E-04 0.388E-04-0.734E-08
CGA: 167    -0.223903904734E+03   -0.72070E-04   -0.72059E-04  5760   0.186E-03-0.181E-06
 gam= 0.895 trial= 0.824  step= 0.773 mean= 0.824
 gam= 1.060 g(H,U,f)=  0.857E-04 0.111E-03 0.329E-08 ort(H,U,f) =-0.318E-04 0.320E-04-0.322E-08
CGA: 168    -0.223903976472E+03   -0.71738E-04   -0.71748E-04  5760   0.197E-03 0.208E-06
 gam= 1.060 trial= 0.822  step= 0.740 mean= 0.822
 gam= 0.738 g(H,U,f)=  0.803E-04 0.652E-04 0.317E-09 ort(H,U,f) =-0.431E-04 0.446E-04 0.899E-11
CGA: 169    -0.223904049415E+03   -0.72943E-04   -0.73005E-04  5760   0.145E-03 0.151E-05
 gam= 0.738 trial= 0.818  step= 1.343 mean= 0.818
 gam= 1.219 g(H,U,f)=  0.889E-04 0.884E-04 0.176E-08 ort(H,U,f) =-0.442E-04 0.431E-04-0.804E-09
CGA: 170    -0.223904147536E+03   -0.98120E-04   -0.98424E-04  5760   0.177E-03-0.114E-05
 gam= 1.219 trial= 0.844  step= 0.892 mean= 0.844
 gam= 1.166 g(H,U,f)=  0.104E-03 0.102E-03 0.656E-08 ort(H,U,f) =-0.490E-04 0.496E-04 0.159E-08
CGA: 171    -0.223904226053E+03   -0.78518E-04   -0.78496E-04  5760   0.207E-03 0.614E-06
 gam= 1.166 trial= 0.846  step= 1.155 mean= 0.846
 gam= 0.000 g(H,U,f)=  0.127E-03 0.184E-03 0.441E-07 ort(H,U,f) =-0.667E-04 0.659E-04-0.215E-07
SDA: 172    -0.223904345756E+03   -0.11970E-03   -0.11987E-03  5760   0.311E-03-0.819E-06
 gam= 0.000 trial= 0.862  step= 0.361 mean= 0.862
 gam= 0.529 g(H,U,f)=  0.582E-04 0.106E-03 0.205E-07 ort(H,U,f) = 0.365E-04-0.370E-04-0.300E-07
CGA: 173    -0.223904401967E+03   -0.56211E-04   -0.56089E-04  5760   0.164E-03-0.539E-06
 gam= 0.529 trial= 0.837  step= 0.959 mean= 0.837
 gam= 1.112 g(H,U,f)=  0.675E-04 0.115E-03 0.185E-08 ort(H,U,f) =-0.284E-04 0.282E-04-0.142E-08
CGA: 174    -0.223904480675E+03   -0.78709E-04   -0.78726E-04  5760   0.183E-03-0.295E-06
 gam= 1.112 trial= 0.843  step= 0.787 mean= 0.843
 gam= 0.805 g(H,U,f)=  0.803E-04 0.667E-04 0.372E-08 ort(H,U,f) =-0.559E-04 0.571E-04 0.162E-09
CGA: 175    -0.223904552455E+03   -0.71780E-04   -0.71811E-04  5760   0.147E-03 0.113E-05
 gam= 0.805 trial= 0.840  step= 1.050 mean= 0.840
 gam= 1.394 g(H,U,f)=  0.892E-04 0.116E-03 0.270E-08 ort(H,U,f) =-0.433E-04 0.424E-04-0.285E-08
CGA: 176    -0.223904630049E+03   -0.77594E-04   -0.77690E-04  5760   0.205E-03-0.936E-06
 gam= 1.394 trial= 0.851  step= 0.729 mean= 0.851
 gam= 0.788 g(H,U,f)=  0.881E-04 0.735E-04 0.346E-09 ort(H,U,f) =-0.622E-04 0.621E-04-0.408E-09
CGA: 177    -0.223904704334E+03   -0.74285E-04   -0.74277E-04  5760   0.162E-03-0.140E-06
 gam= 0.788 trial= 0.844  step= 0.870 mean= 0.844
 gam= 1.323 g(H,U,f)=  0.926E-04 0.121E-03 0.514E-08 ort(H,U,f) =-0.296E-04 0.309E-04-0.273E-09
CGA: 178    -0.223904774556E+03   -0.70222E-04   -0.70206E-04  5760   0.214E-03 0.133E-05
 gam= 1.323 trial= 0.846  step= 0.748 mean= 0.846
 gam= 0.677 g(H,U,f)=  0.867E-04 0.580E-04 0.556E-08 ort(H,U,f) =-0.515E-04 0.509E-04-0.587E-08
CGA: 179    -0.223904855198E+03   -0.80642E-04   -0.80621E-04  5760   0.145E-03-0.570E-06
 gam= 0.677 trial= 0.841  step= 1.190 mean= 0.841
 gam= 1.094 g(H,U,f)=  0.816E-04 0.767E-04 0.278E-08 ort(H,U,f) =-0.285E-04 0.274E-04 0.705E-09
CGA: 180    -0.223904940880E+03   -0.85681E-04   -0.85870E-04  5760   0.158E-03-0.112E-05
 gam= 1.094 trial= 0.858  step= 0.749 mean= 0.858
 gam= 0.777 g(H,U,f)=  0.657E-04 0.573E-04 0.925E-08 ort(H,U,f) =-0.268E-04 0.279E-04-0.747E-08
CGA: 181    -0.223904999659E+03   -0.58779E-04   -0.58824E-04  5760   0.123E-03 0.100E-05
 gam= 0.777 trial= 0.853  step= 0.964 mean= 0.853
 gam= 1.073 g(H,U,f)=  0.543E-04 0.778E-04 0.229E-08 ort(H,U,f) =-0.238E-04 0.231E-04-0.151E-08
CGA: 182    -0.223905059311E+03   -0.59652E-04   -0.59688E-04  5760   0.132E-03-0.732E-06
 gam= 1.073 trial= 0.858  step= 0.553 mean= 0.858
 gam= 0.867 g(H,U,f)=  0.479E-04 0.666E-04 0.217E-07 ort(H,U,f) =-0.220E-04 0.215E-04-0.217E-08
CGA: 183    -0.223905095697E+03   -0.36386E-04   -0.36320E-04  5760   0.114E-03-0.429E-06
 gam= 0.867 trial= 0.843  step= 0.871 mean= 0.843
 gam= 0.881 g(H,U,f)=  0.508E-04 0.500E-04 0.305E-07 ort(H,U,f) =-0.315E-04 0.323E-04-0.223E-07
CGA: 184    -0.223905145400E+03   -0.49703E-04   -0.49692E-04  5760   0.101E-03 0.769E-06
 gam= 0.881 trial= 0.845  step= 1.011 mean= 0.845
 gam= 1.258 g(H,U,f)=  0.608E-04 0.660E-04 0.265E-08 ort(H,U,f) =-0.257E-04 0.259E-04-0.280E-08
CGA: 185    -0.223905196722E+03   -0.51322E-04   -0.51296E-04  5760   0.127E-03 0.266E-06
 gam= 1.258 trial= 0.853  step= 0.983 mean= 0.853
 gam= 0.980 g(H,U,f)=  0.716E-04 0.526E-04 0.219E-08 ort(H,U,f) =-0.431E-04 0.421E-04-0.818E-09
CGA: 186    -0.223905259142E+03   -0.62420E-04   -0.62492E-04  5760   0.124E-03-0.103E-05
 gam= 0.980 trial= 0.859  step= 1.136 mean= 0.859
 gam= 1.382 g(H,U,f)=  0.845E-04 0.872E-04 0.813E-08 ort(H,U,f) =-0.320E-04 0.340E-04 0.231E-08
CGA: 187    -0.223905329401E+03   -0.70259E-04   -0.70001E-04  5760   0.172E-03 0.193E-05
 gam= 1.382 trial= 0.873  step= 1.014 mean= 0.873
 gam= 0.955 g(H,U,f)=  0.967E-04 0.673E-04 0.268E-07 ort(H,U,f) =-0.587E-04 0.568E-04-0.220E-07
CGA: 188    -0.223905417647E+03   -0.88246E-04   -0.88383E-04  5760   0.164E-03-0.190E-05
 gam= 0.955 trial= 0.880  step= 1.113 mean= 0.880
 gam= 1.702 g(H,U,f)=  0.108E-03 0.171E-03 0.127E-07 ort(H,U,f) =-0.338E-04 0.332E-04-0.464E-08
CGA: 189    -0.223905507823E+03   -0.90176E-04   -0.90289E-04  5760   0.279E-03-0.581E-06
 gam= 1.702 trial= 0.892  step= 0.618 mean= 0.892
 gam= 0.813 g(H,U,f)=  0.108E-03 0.119E-03 0.591E-08 ort(H,U,f) =-0.643E-04 0.644E-04-0.372E-08
CGA: 190    -0.223905594125E+03   -0.86302E-04   -0.86058E-04  5760   0.227E-03 0.115E-06
 gam= 0.813 trial= 0.878  step= 0.783 mean= 0.878
 gam= 1.120 g(H,U,f)=  0.113E-03 0.141E-03 0.428E-07 ort(H,U,f) =-0.411E-04 0.391E-04-0.901E-08
CGA: 191    -0.223905683176E+03   -0.89051E-04   -0.88925E-04  5760   0.254E-03-0.198E-05
 gam= 1.120 trial= 0.873  step= 0.860 mean= 0.873
 gam= 0.781 g(H,U,f)=  0.107E-03 0.917E-04 0.495E-08 ort(H,U,f) =-0.673E-04 0.645E-04-0.959E-08
CGA: 192    -0.223905791540E+03   -0.10836E-03   -0.10833E-03  5760   0.199E-03-0.279E-05
 gam= 0.781 trial= 0.873  step= 1.066 mean= 0.873
 gam= 1.136 g(H,U,f)=  0.107E-03 0.119E-03 0.191E-07 ort(H,U,f) =-0.433E-04 0.410E-04-0.563E-08
CGA: 193    -0.223905895862E+03   -0.10432E-03   -0.10464E-03  5760   0.226E-03-0.231E-05
 gam= 1.136 trial= 0.882  step= 0.803 mean= 0.882
 gam= 0.833 g(H,U,f)=  0.948E-04 0.931E-04 0.131E-07 ort(H,U,f) =-0.449E-04 0.412E-04-0.127E-07
CGA: 194    -0.223905985594E+03   -0.89732E-04   -0.89507E-04  5760   0.188E-03-0.373E-05
 gam= 0.833 trial= 0.878  step= 0.819 mean= 0.878
 gam= 1.003 g(H,U,f)=  0.760E-04 0.113E-03 0.111E-07 ort(H,U,f) =-0.250E-04 0.238E-04-0.203E-08
CGA: 195    -0.223906061342E+03   -0.75748E-04   -0.75690E-04  5760   0.189E-03-0.117E-05
 gam= 1.003 trial= 0.875  step= 0.536 mean= 0.875
 gam= 0.649 g(H,U,f)=  0.597E-04 0.626E-04 0.111E-07 ort(H,U,f) =-0.174E-04 0.173E-04-0.853E-08
CGA: 196    -0.223906111767E+03   -0.50425E-04   -0.50250E-04  5760   0.122E-03-0.165E-06
 gam= 0.649 trial= 0.859  step= 0.737 mean= 0.859
 gam= 0.757 g(H,U,f)=  0.418E-04 0.508E-04 0.223E-08 ort(H,U,f) =-0.888E-05 0.740E-05-0.190E-08
CGA: 197    -0.223906156957E+03   -0.45190E-04   -0.45080E-04  5760   0.926E-04-0.148E-05
 gam= 0.757 trial= 0.852  step= 0.649 mean= 0.852
 gam= 0.566 g(H,U,f)=  0.273E-04 0.251E-04 0.101E-08 ort(H,U,f) =-0.738E-05 0.703E-05-0.195E-09
CGA: 198    -0.223906186710E+03   -0.29753E-04   -0.29705E-04  5760   0.525E-04-0.357E-06
 gam= 0.566 trial= 0.842  step= 0.746 mean= 0.842
 gam= 0.961 g(H,U,f)=  0.193E-04 0.311E-04 0.144E-09 ort(H,U,f) =-0.138E-05 0.146E-05 0.359E-09
CGA: 199    -0.223906206197E+03   -0.19487E-04   -0.19491E-04  5760   0.504E-04 0.843E-07
 gam= 0.961 trial= 0.837  step= 0.584 mean= 0.837
 gam= 0.537 g(H,U,f)=  0.124E-04 0.146E-04 0.155E-08 ort(H,U,f) =-0.689E-05 0.632E-05 0.174E-08
CGA: 200    -0.223906221011E+03   -0.14814E-04   -0.14740E-04  5760   0.271E-04-0.573E-06
 gam= 0.537 trial= 0.825  step= 0.802 mean= 0.825
 gam= 1.062 g(H,U,f)=  0.110E-04 0.178E-04 0.510E-08 ort(H,U,f) =-0.410E-05 0.379E-05-0.471E-08
CGA: 201    -0.223906231746E+03   -0.10734E-04   -0.10731E-04  5760   0.288E-04-0.313E-06
 gam= 1.062 trial= 0.824  step= 0.746 mean= 0.824
 gam= 0.878 g(H,U,f)=  0.986E-05 0.154E-04 0.109E-08 ort(H,U,f) =-0.661E-05 0.668E-05 0.212E-10
CGA: 202    -0.223906242339E+03   -0.10594E-04   -0.10597E-04  5760   0.253E-04 0.700E-07
 gam= 0.878 trial= 0.820  step= 0.703 mean= 0.820
 gam= 0.000 g(H,U,f)=  0.106E-04 0.167E-04 0.299E-09 ort(H,U,f) =-0.610E-05 0.577E-05-0.559E-09
SDA: 203    -0.223906251260E+03   -0.89202E-05   -0.89011E-05  5760   0.273E-04-0.332E-06
 gam= 0.000 trial= 0.814  step= 0.480 mean= 0.814
 gam= 0.840 g(H,U,f)=  0.577E-05 0.171E-04 0.199E-08 ort(H,U,f) = 0.234E-05-0.239E-05-0.574E-09
CGA: 204    -0.223906257815E+03   -0.65551E-05   -0.65472E-05  5760   0.229E-04-0.487E-07
 gam= 0.840 trial= 0.797  step= 1.009 mean= 0.797
 gam= 1.343 g(H,U,f)=  0.973E-05 0.210E-04 0.594E-08 ort(H,U,f) =-0.545E-05 0.540E-05-0.258E-08
CGA: 205    -0.223906269351E+03   -0.11536E-04   -0.11542E-04  5760   0.308E-04-0.544E-07
 gam= 1.343 trial= 0.808  step= 0.835 mean= 0.808
 gam= 0.921 g(H,U,f)=  0.153E-04 0.130E-04 0.153E-08 ort(H,U,f) =-0.116E-04 0.118E-04-0.118E-08
CGA: 206    -0.223906282170E+03   -0.12819E-04   -0.12817E-04  5760   0.283E-04 0.174E-06
 gam= 0.921 trial= 0.809  step= 1.132 mean= 0.809
 gam= 1.830 g(H,U,f)=  0.174E-04 0.345E-04 0.370E-08 ort(H,U,f) =-0.760E-05 0.750E-05-0.580E-09
CGA: 207    -0.223906298277E+03   -0.16107E-04   -0.16122E-04  5760   0.518E-04-0.946E-07
 gam= 1.830 trial= 0.825  step= 0.692 mean= 0.825
 gam= 0.752 g(H,U,f)=  0.216E-04 0.173E-04 0.398E-08 ort(H,U,f) =-0.171E-04 0.171E-04-0.280E-08
CGA: 208    -0.223906316146E+03   -0.17869E-04   -0.17870E-04  5760   0.390E-04 0.700E-08
 gam= 0.752 trial= 0.819  step= 0.955 mean= 0.819
 gam= 1.392 g(H,U,f)=  0.252E-04 0.290E-04 0.412E-09 ort(H,U,f) =-0.580E-05 0.641E-05 0.509E-09
CGA: 209    -0.223906334804E+03   -0.18658E-04   -0.18615E-04  5760   0.543E-04 0.617E-06
 gam= 1.392 trial= 0.825  step= 0.877 mean= 0.825
 gam= 0.679 g(H,U,f)=  0.228E-04 0.140E-04 0.382E-09 ort(H,U,f) =-0.120E-04 0.121E-04-0.101E-08
CGA: 210    -0.223906358980E+03   -0.24176E-04   -0.24173E-04  5760   0.368E-04 0.818E-07
 gam= 0.679 trial= 0.828  step= 0.885 mean= 0.828
 gam= 0.889 g(H,U,f)=  0.168E-04 0.160E-04 0.129E-08 ort(H,U,f) =-0.343E-05 0.353E-05-0.110E-08
CGA: 211    -0.223906375320E+03   -0.16341E-04   -0.16338E-04  5760   0.328E-04 0.922E-07
 gam= 0.889 trial= 0.831  step= 0.792 mean= 0.831
 gam= 0.584 g(H,U,f)=  0.105E-04 0.863E-05 0.266E-09 ort(H,U,f) =-0.414E-05 0.448E-05 0.118E-09
CGA: 212    -0.223906388316E+03   -0.12996E-04   -0.13003E-04  5760   0.191E-04 0.342E-06
 gam= 0.584 trial= 0.829  step= 0.739 mean= 0.829
 gam= 0.919 g(H,U,f)=  0.702E-05 0.105E-04 0.711E-08 ort(H,U,f) =-0.133E-05 0.122E-05-0.184E-08
CGA: 213    -0.223906395460E+03   -0.71439E-05   -0.71390E-05  5760   0.176E-04-0.113E-06
 gam= 0.919 trial= 0.824  step= 0.556 mean= 0.824
 gam= 0.592 g(H,U,f)=  0.505E-05 0.535E-05 0.542E-09 ort(H,U,f) =-0.193E-05 0.201E-05-0.142E-08
CGA: 214    -0.223906400308E+03   -0.48472E-05   -0.48591E-05  5760   0.104E-04 0.781E-07
 gam= 0.592 trial= 0.811  step= 0.770 mean= 0.811
 gam= 0.794 g(H,U,f)=  0.379E-05 0.446E-05 0.103E-09 ort(H,U,f) =-0.164E-05 0.184E-05-0.130E-09
CGA: 215    -0.223906404325E+03   -0.40171E-05   -0.40211E-05  5760   0.825E-05 0.193E-06
 gam= 0.794 trial= 0.809  step= 0.659 mean= 0.809
 gam= 0.826 g(H,U,f)=  0.320E-05 0.362E-05 0.825E-09 ort(H,U,f) =-0.149E-05 0.143E-05-0.175E-09
CGA: 216    -0.223906407100E+03   -0.27755E-05   -0.27711E-05  5760   0.682E-05-0.590E-07
 gam= 0.826 trial= 0.801  step= 0.869 mean= 0.801
 gam= 1.036 g(H,U,f)=  0.293E-05 0.413E-05 0.110E-08 ort(H,U,f) =-0.155E-05 0.151E-05-0.764E-09
CGA: 217    -0.223906410043E+03   -0.29425E-05   -0.29437E-05  5760   0.706E-05-0.360E-07
 gam= 1.036 trial= 0.805  step= 0.616 mean= 0.805
 gam= 0.805 g(H,U,f)=  0.285E-05 0.284E-05 0.341E-09 ort(H,U,f) =-0.145E-05 0.149E-05 0.128E-09
CGA: 218    -0.223906412205E+03   -0.21620E-05   -0.21661E-05  5760   0.569E-05 0.430E-07
 gam= 0.805 trial= 0.795  step= 0.984 mean= 0.795
 gam= 1.019 g(H,U,f)=  0.290E-05 0.290E-05 0.741E-10 ort(H,U,f) =-0.143E-05 0.150E-05-0.204E-09
CGA: 219    -0.223906415027E+03   -0.28225E-05   -0.28155E-05  5760   0.580E-05 0.732E-07
 gam= 1.019 trial= 0.805  step= 0.860 mean= 0.805
 gam= 0.837 g(H,U,f)=  0.286E-05 0.199E-05 0.507E-09 ort(H,U,f) =-0.142E-05 0.139E-05-0.371E-09
CGA: 220    -0.223906417550E+03   -0.25233E-05   -0.25239E-05  5760   0.485E-05-0.239E-07
 gam= 0.837 trial= 0.808  step= 1.120 mean= 0.808
 gam= 0.959 g(H,U,f)=  0.239E-05 0.227E-05 0.314E-10 ort(H,U,f) =-0.108E-05 0.114E-05 0.373E-10
CGA: 221    -0.223906420267E+03   -0.27169E-05   -0.27070E-05  5760   0.465E-05 0.626E-07
 gam= 0.959 trial= 0.823  step= 0.667 mean= 0.823
 gam= 0.916 g(H,U,f)=  0.190E-05 0.236E-05 0.126E-08 ort(H,U,f) =-0.478E-06 0.524E-06-0.486E-09
CGA: 222    -0.223906421837E+03   -0.15697E-05   -0.15733E-05  5760   0.426E-05 0.457E-07
 gam= 0.916 trial= 0.815  step= 0.730 mean= 0.815
 gam= 0.848 g(H,U,f)=  0.153E-05 0.208E-05 0.118E-09 ort(H,U,f) =-0.577E-06 0.610E-06-0.175E-09
CGA: 223    -0.223906423406E+03   -0.15692E-05   -0.15706E-05  5760   0.362E-05 0.331E-07
 gam= 0.848 trial= 0.811  step= 0.649 mean= 0.811
 gam= 0.698 g(H,U,f)=  0.133E-05 0.119E-05 0.953E-10 ort(H,U,f) =-0.665E-06 0.717E-06-0.136E-09
CGA: 224    -0.223906424585E+03   -0.11789E-05   -0.11831E-05  5760   0.252E-05 0.517E-07
 gam= 0.698 trial= 0.803  step= 0.903 mean= 0.803
 gam= 1.067 g(H,U,f)=  0.115E-05 0.154E-05 0.239E-09 ort(H,U,f) =-0.463E-06 0.532E-06-0.102E-10
CGA: 225    -0.223906425745E+03   -0.11596E-05   -0.11561E-05  5760   0.269E-05 0.694E-07
 gam= 1.067 trial= 0.808  step= 0.629 mean= 0.808
 gam= 0.786 g(H,U,f)=  0.964E-06 0.115E-05 0.440E-09 ort(H,U,f) =-0.487E-06 0.579E-06-0.311E-09
CGA: 226    -0.223906426606E+03   -0.86167E-06   -0.86995E-06  5760   0.212E-05 0.918E-07
 gam= 0.786 trial= 0.799  step= 0.787 mean= 0.799
 final diagonalization
   1 F= -.23292634E+03 E0= -.23292634E+03  d E =-.255744E-12  mag=     6.0000
