 vasp.5.4.4.18Apr17-6-g9f103f2a35 (build Nov 22 2021 14:44:17) complex          
  
 executed on             LinuxIFC date 2022.08.06  11:40:08
 running on   64 total cores
 distrk:  each k-point on   64 cores,    1 groups
 distr:  one band on NCORES_PER_BAND=   4 cores,   16 groups


--------------------------------------------------------------------------------------------------------


 INCAR:
 POTCAR:    PAW_PBE Li 17Jan2003                  
 POTCAR:    PAW_PBE Co 02Aug2007                  
 POTCAR:    PAW_PBE O 08Apr2002                   
 POTCAR:    PAW_PBE Li 17Jan2003                  
   VRHFIN =Li: s1p0                                                             
   LEXCH  = PE                                                                  
   EATOM  =     5.3001 eV,    0.3895 Ry                                         
                                                                                
   TITEL  = PAW_PBE Li 17Jan2003                                                
   LULTRA =        F    use ultrasoft PP ?                                      
   IUNSCR =        1    unscreen: 0-lin 1-nonlin 2-no                           
   RPACOR =    1.500    partial core radius                                     
   POMASS =    7.010; ZVAL   =    1.000    mass and valenz                      
   RCORE  =    2.050    outmost cutoff radius                                   
   RWIGS  =    2.600; RWIGS  =    1.376    wigner-seitz radius (au A)           
   ENMAX  =  140.000; ENMIN  =  100.000 eV                                      
   ICORE  =        2    local potential                                         
   LCOR   =        T    correct aug charges                                     
   LPAW   =        T    paw PP                                                  
   EAUG   =  331.638                                                            
   DEXC   =    0.000                                                            
   RMAX   =    2.098    core radius for proj-oper                               
   RAUG   =    1.300    factor for augmentation sphere                          
   RDEP   =    2.094    radius for radial grids                                 
   RDEPT  =    1.810    core radius for aug-charge                              
                                                                                
   Atomic configuration                                                         
    4 entries                                                                   
     n  l   j            E        occ.                                          
     1  0  0.50       -51.8549   2.0000                                         
     2  0  0.50        -2.8742   1.0000                                         
     2  1  0.50        -1.3606   0.0000                                         
     3  2  1.50        -1.3606   0.0000                                         
   Description                                                                  
     l       E           TYP  RCUT    TYP  RCUT                                 
     0     -2.8742052     23  2.050                                             
     0     27.2116520     23  2.050                                             
     1     -1.3605826     23  2.050                                             
     2     -1.3605826     23  2.050                                             
  local pseudopotential read in
  partial core-charges read in
  partial kinetic energy density read in
  atomic valenz-charges read in
  non local Contribution for L=           0  read in
    real space projection operators read in
  non local Contribution for L=           0  read in
    real space projection operators read in
  non local Contribution for L=           1  read in
    real space projection operators read in
    PAW grid and wavefunctions read in
 
   number of l-projection  operators is LMAX  =           3
   number of lm-projection operators is LMMAX =           5
 
 POTCAR:    PAW_PBE Co 02Aug2007                  
   VRHFIN =Co: d8 s1                                                            
   LEXCH  = PE                                                                  
   EATOM  =   813.3670 eV,   59.7808 Ry                                         
                                                                                
   TITEL  = PAW_PBE Co 02Aug2007                                                
   LULTRA =        F    use ultrasoft PP ?                                      
   IUNSCR =        1    unscreen: 0-lin 1-nonlin 2-no                           
   RPACOR =    2.000    partial core radius                                     
   POMASS =   58.933; ZVAL   =    9.000    mass and valenz                      
   RCORE  =    2.300    outmost cutoff radius                                   
   RWIGS  =    2.460; RWIGS  =    1.302    wigner-seitz radius (au A)           
   ENMAX  =  267.968; ENMIN  =  200.976 eV                                      
   RCLOC  =    1.203    cutoff for local pot                                    
   LCOR   =        T    correct aug charges                                     
   LPAW   =        T    paw PP                                                  
   EAUG   =  477.818                                                            
   DEXC   =    0.000                                                            
   RMAX   =    2.360    core radius for proj-oper                               
   RAUG   =    1.300    factor for augmentation sphere                          
   RDEP   =    2.393    radius for radial grids                                 
   RDEPT  =    1.864    core radius for aug-charge                              
                                                                                
   Atomic configuration                                                         
    9 entries                                                                   
     n  l   j            E        occ.                                          
     1  0  0.50     -7587.6674   2.0000                                         
     2  0  0.50      -893.6084   2.0000                                         
     2  1  1.50      -764.5805   6.0000                                         
     3  0  0.50       -97.5973   2.0000                                         
     3  1  1.50       -60.9648   6.0000                                         
     3  2  2.50        -4.2382   8.0000                                         
     4  0  0.50        -4.3746   1.0000                                         
     4  1  1.50        -4.0817   0.0000                                         
     4  3  2.50        -1.3606   0.0000                                         
   Description                                                                  
     l       E           TYP  RCUT    TYP  RCUT                                 
     2     -4.2382362     23  2.300                                             
     2     -5.5988188     23  2.300                                             
     0     -4.3745797     23  2.300                                             
     0      5.7660125     23  2.300                                             
     1     -2.7211652     23  2.300                                             
     1     16.9860234     23  2.300                                             
  local pseudopotential read in
  partial core-charges read in
  partial kinetic energy density read in
  atomic valenz-charges read in
  non local Contribution for L=           2  read in
    real space projection operators read in
  non local Contribution for L=           2  read in
    real space projection operators read in
  non local Contribution for L=           0  read in
    real space projection operators read in
  non local Contribution for L=           0  read in
    real space projection operators read in
  non local Contribution for L=           1  read in
    real space projection operators read in
  non local Contribution for L=           1  read in
    real space projection operators read in
    PAW grid and wavefunctions read in
 
   number of l-projection  operators is LMAX  =           6
   number of lm-projection operators is LMMAX =          18
 
 POTCAR:    PAW_PBE O 08Apr2002                   
   VRHFIN =O: s2p4                                                              
   LEXCH  = PE                                                                  
   EATOM  =   432.3788 eV,   31.7789 Ry                                         
                                                                                
   TITEL  = PAW_PBE O 08Apr2002                                                 
   LULTRA =        F    use ultrasoft PP ?                                      
   IUNSCR =        1    unscreen: 0-lin 1-nonlin 2-no                           
   RPACOR =    1.200    partial core radius                                     
   POMASS =   16.000; ZVAL   =    6.000    mass and valenz                      
   RCORE  =    1.520    outmost cutoff radius                                   
   RWIGS  =    1.550; RWIGS  =    0.820    wigner-seitz radius (au A)           
   ENMAX  =  400.000; ENMIN  =  300.000 eV                                      
   ICORE  =        2    local potential                                         
   LCOR   =        T    correct aug charges                                     
   LPAW   =        T    paw PP                                                  
   EAUG   =  605.392                                                            
   DEXC   =    0.000                                                            
   RMAX   =    1.553    core radius for proj-oper                               
   RAUG   =    1.300    factor for augmentation sphere                          
   RDEP   =    1.550    radius for radial grids                                 
   RDEPT  =    1.329    core radius for aug-charge                              
                                                                                
   Atomic configuration                                                         
    4 entries                                                                   
     n  l   j            E        occ.                                          
     1  0  0.50      -514.6923   2.0000                                         
     2  0  0.50       -23.9615   2.0000                                         
     2  1  0.50        -9.0305   4.0000                                         
     3  2  1.50        -9.5241   0.0000                                         
   Description                                                                  
     l       E           TYP  RCUT    TYP  RCUT                                 
     0    -23.9615318     23  1.200                                             
     0     -9.5240782     23  1.200                                             
     1     -9.0304911     23  1.520                                             
     1      8.1634956     23  1.520                                             
     2     -9.5240782      7  1.500                                             
  local pseudopotential read in
  partial core-charges read in
  partial kinetic energy density read in
  kinetic energy density of atom read in
  atomic valenz-charges read in
  non local Contribution for L=           0  read in
    real space projection operators read in
  non local Contribution for L=           0  read in
    real space projection operators read in
  non local Contribution for L=           1  read in
    real space projection operators read in
  non local Contribution for L=           1  read in
    real space projection operators read in
    PAW grid and wavefunctions read in
 
   number of l-projection  operators is LMAX  =           4
   number of lm-projection operators is LMMAX =           8
 
 Optimization of the real space projectors (new method)

 maximal supplied QI-value         = 18.33
 optimisation between [QCUT,QGAM] = [ 12.46, 24.93] = [ 43.51,174.03] Ry 
 Optimized for a Real-space Cutoff    1.13 Angstroem

   l    n(q)    QCUT    max X(q) W(low)/X(q) W(high)/X(q)  e(spline) 
   0      8    12.465    33.825    0.12E-03    0.29E-03    0.99E-07
   0      8    12.465     8.944    0.86E-04    0.22E-03    0.72E-07
   1      8    12.465     4.214    0.27E-03    0.11E-03    0.82E-07
 Optimization of the real space projectors (new method)

 maximal supplied QI-value         = 16.25
 optimisation between [QCUT,QGAM] = [ 12.51, 25.03] = [ 43.85,175.40] Ry 
 Optimized for a Real-space Cutoff    1.31 Angstroem

   l    n(q)    QCUT    max X(q) W(low)/X(q) W(high)/X(q)  e(spline) 
   2      9    12.514    65.824    0.30E-03    0.46E-03    0.43E-06
   2      9    12.514    61.429    0.31E-03    0.46E-03    0.44E-06
   0     10    12.514    56.174    0.90E-04    0.33E-03    0.30E-06
   0     10    12.514    31.263    0.81E-04    0.30E-03    0.28E-06
   1      9    12.514    19.828    0.38E-03    0.65E-04    0.24E-06
   1      9    12.514    15.139    0.32E-03    0.60E-04    0.20E-06
 Optimization of the real space projectors (new method)

 maximal supplied QI-value         = 24.76
 optimisation between [QCUT,QGAM] = [ 12.38, 25.00] = [ 42.90,175.06] Ry 
 Optimized for a Real-space Cutoff    1.13 Angstroem

   l    n(q)    QCUT    max X(q) W(low)/X(q) W(high)/X(q)  e(spline) 
   0      8    12.378    20.381    0.16E-03    0.54E-05    0.27E-06
   0      8    12.378    15.268    0.17E-03    0.61E-05    0.29E-06
   1      8    12.378     5.964    0.38E-03    0.23E-03    0.28E-06
   1      8    12.378     5.382    0.33E-03    0.20E-03    0.25E-06
  PAW_PBE Li 17Jan2003                  :
 energy of atom  1       EATOM=   -5.3001
 kinetic energy error for atom=    0.0000 (will be added to EATOM!!)
  PAW_PBE Co 02Aug2007                  :
 energy of atom  2       EATOM= -813.3670
 kinetic energy error for atom=    0.0018 (will be added to EATOM!!)
  PAW_PBE O 08Apr2002                   :
 energy of atom  3       EATOM= -432.3788
 kinetic energy error for atom=    0.0168 (will be added to EATOM!!)
 
 
 POSCAR: Li6 Co12 O24                            
  positions in cartesian coordinates
  No initial velocities read in
 exchange correlation table for  LEXCH =        8
   RHO(1)=    0.500       N(1)  =     2000
   RHO(2)=  100.500       N(2)  =     4000
 


--------------------------------------------------------------------------------------------------------


 ion  position               nearest neighbor table
   1  0.017  0.138  0.994-  35 1.93  23 2.07  38 2.08  25 2.15  36 2.45   7 2.71   2 2.77   2 2.87
                            17 2.88  15 3.00  18 3.04
   2  0.496  0.079  0.998-  23 2.10  25 2.12  36 2.15  37 2.18  38 2.21   9 2.74   1 2.77   1 2.87
                            15 3.01  17 3.04  16 3.05
   3  0.820  0.153  0.328-  19 1.82  33 1.89  20 2.10  34 2.22  21 2.35  31 2.56   7 2.60  10 2.78
                             4 2.82  13 2.84   4 2.89  12 2.96   9 2.99
   4  0.881  0.691  0.345-  34 1.86  20 1.99  32 2.03  19 2.24  33 2.36   8 2.65  14 2.71  11 2.73
                             3 2.82   3 2.89  12 3.06
   5  0.751  0.367  0.662-  30 1.82  41 2.05  40 2.07  29 2.14  27 2.23  42 2.33  17 2.66  12 2.78
                             6 2.79  14 2.90   6 2.92  15 2.94  13 3.02  18 3.08
   6  0.677  0.842  0.653-  29 1.89  28 1.98  42 2.08  41 2.20  30 2.25  39 2.28  13 2.58   5 2.79
                            11 2.79  14 2.88   5 2.92  16 2.93  17 3.06  18 3.15
   7  0.093  0.304  0.171-  22 1.74  19 1.84  24 1.87  23 1.88  25 1.92  20 1.93   3 2.60   1 2.71
                             9 2.77   8 2.78  10 2.79   9 2.83  10 2.83   8 2.88
   8  0.091  0.812  0.175-  19 1.84  23 1.87  21 1.90  20 1.91  26 1.92  24 2.00   4 2.65  10 2.72
                             9 2.78   7 2.78   9 2.85  10 2.88   7 2.88
   9  0.595  0.297  0.172-  25 1.78  20 1.88  21 1.93  26 1.93  22 1.97  23 2.06  10 2.70   2 2.74
                             7 2.77   8 2.78   7 2.83   8 2.85  10 2.96   3 2.99
  10  0.577  0.812  0.178-  21 1.76  24 1.83  25 1.91  22 1.92  26 1.92  19 1.97   9 2.70   8 2.72
                             3 2.78   7 2.79   7 2.83   8 2.88   9 2.96
  11  0.060  0.977  0.506-  31 1.90  29 1.90  27 1.91  32 1.92  34 1.96  30 2.00   4 2.73  13 2.76
                            12 2.77  14 2.78   6 2.79  13 2.84  14 2.84  12 2.89
  12  0.060  0.466  0.498-  33 1.87  28 1.88  31 1.91  29 1.95  32 1.97  30 1.99  14 2.74  11 2.77
                             5 2.78  13 2.79  13 2.83  14 2.87  11 2.89   3 2.96   4 3.06
  13  0.549  0.968  0.502-  34 1.81  28 1.85  27 1.88  29 1.90  33 1.91  32 2.03   6 2.58  11 2.76
                            12 2.79  14 2.80  12 2.83  11 2.84   3 2.84  14 2.86   5 3.02
  14  0.553  0.475  0.498-  28 1.83  27 1.87  31 1.89  30 1.91  33 1.92  34 2.05   4 2.71  12 2.74
                            11 2.78  13 2.80  11 2.84  13 2.86  12 2.87   6 2.88   5 2.90
  15  0.352  0.213  0.819-  35 1.87  41 1.88  39 1.89  36 1.92  42 1.94  37 1.94  18 2.75  17 2.76
                            16 2.79  17 2.85  16 2.87  18 2.89   5 2.94   1 3.00   2 3.01
  16  0.360  0.712  0.828-  40 1.86  35 1.90  42 1.90  36 1.93  41 2.02  38 2.03  15 2.79  18 2.80
                            17 2.81  18 2.81  17 2.82  15 2.87   6 2.93   2 3.05
  17  0.848  0.222  0.821-  40 1.88  38 1.92  35 1.93  39 1.94  41 1.95  37 1.95   5 2.66  15 2.76
                            18 2.80  16 2.81  16 2.82  15 2.85  18 2.88   1 2.88   2 3.04   6 3.06
  18  0.865  0.724  0.837-  36 1.82  37 1.83  42 1.92  39 1.93  38 1.95  40 1.96  15 2.75  17 2.80
                            16 2.80  16 2.81  17 2.88  15 2.89   1 3.04   5 3.08   6 3.15
  19  0.932  0.990  0.239-   3 1.82   7 1.84   8 1.84  10 1.97   4 2.24
  20  0.915  0.475  0.240-   9 1.88   8 1.91   7 1.93   4 1.99   3 2.10
  21  0.420  0.968  0.243-  10 1.76   8 1.90   9 1.93   3 2.35
  22  0.390  0.460  0.234-   7 1.74  10 1.92   9 1.97
  23  0.237  0.117  0.100-   8 1.87   7 1.88   9 2.06   1 2.07   2 2.10
  24  0.275  0.631  0.107-  10 1.83   7 1.87   8 2.00
  25  0.755  0.138  0.107-   9 1.78  10 1.91   7 1.92   2 2.12   1 2.15
  26  0.755  0.643  0.110-  10 1.92   8 1.92   9 1.93
  27  0.399  0.158  0.568-  14 1.87  13 1.88  11 1.91   5 2.23
  28  0.387  0.639  0.563-  14 1.83  13 1.85  12 1.88   6 1.98
  29  0.873  0.136  0.572-   6 1.89  11 1.90  13 1.90  12 1.95   5 2.14
  30  0.867  0.624  0.574-   5 1.82  14 1.91  12 1.99  11 2.00   6 2.25
  31  0.228  0.290  0.430-  14 1.89  11 1.90  12 1.91   3 2.56
  32  0.207  0.801  0.426-  11 1.92  12 1.97  13 2.03   4 2.03
  33  0.733  0.299  0.435-  12 1.87   3 1.89  13 1.91  14 1.92   4 2.36
  34  0.735  0.840  0.431-  13 1.81   4 1.86  11 1.96  14 2.05   3 2.22
  35  0.180  0.372  0.889-  15 1.87  16 1.90   1 1.93  17 1.93
  36  0.192  0.896  0.894-  18 1.82  15 1.92  16 1.93   2 2.15   1 2.45
  37  0.674  0.394  0.894-  18 1.83  15 1.94  17 1.95   2 2.18
  38  0.703  0.920  0.903-  17 1.92  18 1.95  16 2.03   1 2.08   2 2.21
  39  0.017  0.033  0.756-  15 1.89  18 1.93  17 1.94   6 2.28
  40  0.043  0.560  0.761-  16 1.86  17 1.88  18 1.96   5 2.07
  41  0.519  0.046  0.749-  15 1.88  17 1.95  16 2.02   5 2.05   6 2.20
  42  0.554  0.565  0.759-  16 1.90  18 1.92  15 1.94   6 2.08   5 2.33
 

IMPORTANT INFORMATION: All symmetrisations will be switched off!
NOSYMM: (Re-)initialisation of all symmetry stuff for point group C_1.

 
 

Automatic generation of k-mesh.
 generate k-points for:    6    6    2
Space group operators:
 irot       det(A)        alpha          n_x          n_y          n_z        tau_x        tau_y        tau_z
    1     1.000000     0.000000     1.000000     0.000000     0.000000     0.000000     0.000000     0.000000
 
 Subroutine IBZKPT returns following result:
 ===========================================
 
 Found     36 irreducible k-points:
 
 Following reciprocal coordinates:
            Coordinates               Weight
  0.083333  0.083333  0.250000      2.000000
  0.250000  0.083333  0.250000      2.000000
  0.416667  0.083333  0.250000      2.000000
 -0.416667  0.083333  0.250000      2.000000
 -0.250000  0.083333  0.250000      2.000000
 -0.083333  0.083333  0.250000      2.000000
  0.083333  0.250000  0.250000      2.000000
  0.250000  0.250000  0.250000      2.000000
  0.416667  0.250000  0.250000      2.000000
 -0.416667  0.250000  0.250000      2.000000
 -0.250000  0.250000  0.250000      2.000000
 -0.083333  0.250000  0.250000      2.000000
  0.083333  0.416667  0.250000      2.000000
  0.250000  0.416667  0.250000      2.000000
  0.416667  0.416667  0.250000      2.000000
 -0.416667  0.416667  0.250000      2.000000
 -0.250000  0.416667  0.250000      2.000000
 -0.083333  0.416667  0.250000      2.000000
  0.083333 -0.416667  0.250000      2.000000
  0.250000 -0.416667  0.250000      2.000000
  0.416667 -0.416667  0.250000      2.000000
 -0.416667 -0.416667  0.250000      2.000000
 -0.250000 -0.416667  0.250000      2.000000
 -0.083333 -0.416667  0.250000      2.000000
  0.083333 -0.250000  0.250000      2.000000
  0.250000 -0.250000  0.250000      2.000000
  0.416667 -0.250000  0.250000      2.000000
 -0.416667 -0.250000  0.250000      2.000000
 -0.250000 -0.250000  0.250000      2.000000
 -0.083333 -0.250000  0.250000      2.000000
  0.083333 -0.083333  0.250000      2.000000
  0.250000 -0.083333  0.250000      2.000000
  0.416667 -0.083333  0.250000      2.000000
 -0.416667 -0.083333  0.250000      2.000000
 -0.250000 -0.083333  0.250000      2.000000
 -0.083333 -0.083333  0.250000      2.000000
 
 Following cartesian coordinates:
            Coordinates               Weight
  0.014876  0.025659  0.016679      2.000000
  0.044628  0.042915  0.015321      2.000000
  0.074380  0.060171  0.013963      2.000000
 -0.074380 -0.026110  0.020754      2.000000
 -0.044628 -0.008854  0.019396      2.000000
 -0.014876  0.008402  0.018037      2.000000
  0.014876  0.059720  0.017122      2.000000
  0.044628  0.076976  0.015764      2.000000
  0.074380  0.094232  0.014406      2.000000
 -0.074380  0.007951  0.021197      2.000000
 -0.044628  0.025207  0.019839      2.000000
 -0.014876  0.042463  0.018481      2.000000
  0.014876  0.093780  0.017566      2.000000
  0.044628  0.111037  0.016207      2.000000
  0.074380  0.128293  0.014849      2.000000
 -0.074380  0.042012  0.021640      2.000000
 -0.044628  0.059268  0.020282      2.000000
 -0.014876  0.076524  0.018924      2.000000
  0.014876 -0.076524  0.015350      2.000000
  0.044628 -0.059268  0.013992      2.000000
  0.074380 -0.042012  0.012634      2.000000
 -0.074380 -0.128293  0.019424      2.000000
 -0.044628 -0.111037  0.018066      2.000000
 -0.014876 -0.093780  0.016708      2.000000
  0.014876 -0.042463  0.015793      2.000000
  0.044628 -0.025207  0.014435      2.000000
  0.074380 -0.007951  0.013077      2.000000
 -0.074380 -0.094232  0.019867      2.000000
 -0.044628 -0.076976  0.018509      2.000000
 -0.014876 -0.059720  0.017151      2.000000
  0.014876 -0.008402  0.016236      2.000000
  0.044628  0.008854  0.014878      2.000000
  0.074380  0.026110  0.013520      2.000000
 -0.074380 -0.060171  0.020311      2.000000
 -0.044628 -0.042915  0.018952      2.000000
 -0.014876 -0.025659  0.017594      2.000000
 


--------------------------------------------------------------------------------------------------------




 Dimension of arrays:
   k-points           NKPTS =     36   k-points in BZ     NKDIM =     36   number of bands    NBANDS=    160
   number of dos      NEDOS =    301   number of ions     NIONS =     42
   non local maximal  LDIM  =      6   non local SUM 2l+1 LMDIM =     18
   total plane-waves  NPLWV = 116640
   max r-space proj   IRMAX =   2776   max aug-charges    IRDMAX=  11702
   dimension x,y,z NGX =    36 NGY =   36 NGZ =   90
   dimension x,y,z NGXF=    72 NGYF=   72 NGZF=  180
   support grid    NGXF=    72 NGYF=   72 NGZF=  180
   ions per type =               6  12  24
   NGX,Y,Z   is equivalent  to a cutoff of  10.68, 10.58, 10.24 a.u.
   NGXF,Y,Z  is equivalent  to a cutoff of  21.37, 21.16, 20.48 a.u.

 SYSTEM =  LiCoO2                                  
 POSCAR =  Li6 Co12 O24                            

 Startparameter for this run:
   NWRITE =      2    write-flag & timer
   PREC   = normal    normal or accurate (medium, high low for compatibility)
   ISTART =      0    job   : 0-new  1-cont  2-samecut
   ICHARG =      2    charge: 1-file 2-atom 10-const
   ISPIN  =      2    spin polarized calculation?
   LNONCOLLINEAR =      F non collinear calculations
   LSORBIT =      F    spin-orbit coupling
   INIWAV =      1    electr: 0-lowe 1-rand  2-diag
   LASPH  =      F    aspherical Exc in radial PAW
   METAGGA=      F    non-selfconsistent MetaGGA calc.

 Electronic Relaxation 1
   ENCUT  =  600.0 eV  44.10 Ry    6.64 a.u.  11.19 11.30 29.18*2*pi/ulx,y,z
   ENINI  =  600.0     initial cutoff
   ENAUG  =  605.4 eV  augmentation charge cutoff
   NELM   =    600;   NELMIN=  2; NELMDL= -5     # of ELM steps 
   EDIFF  = 0.1E-05   stopping-criterion for ELM
   LREAL  =      T    real-space projection
   NLSPLINE    = F    spline interpolate recip. space projectors
   LCOMPAT=      F    compatible to vasp.4.4
   GGA_COMPAT  = T    GGA compatible to vasp.4.4-vasp.4.6
   LMAXPAW     = -100 max onsite density
   LMAXMIX     =    2 max onsite mixed and CHGCAR
   VOSKOWN=      0    Vosko Wilk Nusair interpolation
   ROPT   =   -0.00050  -0.00050  -0.00050
 Ionic relaxation
   EDIFFG = 0.1E-04   stopping-criterion for IOM
   NSW    =      0    number of steps for IOM
   NBLOCK =      1;   KBLOCK =      1    inner block; outer block 
   IBRION =     -1    ionic relax: 0-MD 1-quasi-New 2-CG
   NFREE  =      0    steps in history (QN), initial steepest desc. (CG)
   ISIF   =      2    stress and relaxation
   IWAVPR =     10    prediction:  0-non 1-charg 2-wave 3-comb
   ISYM   =      0    0-nonsym 1-usesym 2-fastsym
   LCORR  =      T    Harris-Foulkes like correction to forces

   POTIM  = 0.5000    time-step for ionic-motion
   TEIN   =    0.0    initial temperature
   TEBEG  =    0.0;   TEEND  =   0.0 temperature during run
   SMASS  =  -3.00    Nose mass-parameter (am)
   estimated Nose-frequenzy (Omega)   =  0.10E-29 period in steps =****** mass=  -0.717E-27a.u.
   SCALEE = 1.0000    scale energy and forces
   NPACO  =    256;   APACO  = 16.0  distance and # of slots for P.C.
   PSTRESS=    0.0 pullay stress

  Mass of Ions in am
   POMASS =   7.01 58.93 16.00
  Ionic Valenz
   ZVAL   =   1.00  9.00  6.00
  Atomic Wigner-Seitz radii
   RWIGS  =  -1.00 -1.00 -1.00
  virtual crystal weights 
   VCA    =   1.00  1.00  1.00
   NELECT =     258.0000    total number of electrons
   NUPDOWN=       6.0000    fix difference up-down

 DOS related values:
   EMIN   =  10.00;   EMAX   =-10.00  energy-range for DOS
   EFERMI =   0.00
   ISMEAR =     0;   SIGMA  =   0.05  broadening in eV -4-tet -1-fermi 0-gaus

 Electronic relaxation 2 (details)
   IALGO  =     58    algorithm
   LDIAG  =      T    sub-space diagonalisation (order eigenvalues)
   LSUBROT=      F    optimize rotation matrix (better conditioning)
   TURBO    =      0    0=normal 1=particle mesh
   IRESTART =      0    0=no restart 2=restart with 2 vectors
   NREBOOT  =      0    no. of reboots
   NMIN     =      0    reboot dimension
   EREF     =   0.00    reference energy to select bands
   IMIX   =      4    mixing-type and parameters
     AMIX     =   0.40;   BMIX     =  1.00
     AMIX_MAG =   1.60;   BMIX_MAG =  1.00
     AMIN     =   0.10
     WC   =   100.;   INIMIX=   1;  MIXPRE=   1;  MAXMIX= -45

 Intra band minimization:
   WEIMIN = 0.0000     energy-eigenvalue tresh-hold
   EBREAK =  0.16E-08  absolut break condition
   DEPER  =   0.30     relativ break condition  

   TIME   =   0.40     timestep for ELM

  volume/ion in A,a.u.               =       9.52        64.25
  Fermi-wavevector in a.u.,A,eV,Ry     =   1.414613  2.673231 27.227028  2.001130
  Thomas-Fermi vector in A             =   2.536137
 
 Write flags
   LWAVE        =      F    write WAVECAR
   LDOWNSAMPLE  =      F    k-point downsampling of WAVECAR
   LCHARG       =      F    write CHGCAR
   LVTOT        =      F    write LOCPOT, total local potential
   LVHAR        =      F    write LOCPOT, Hartree potential only
   LELF         =      F    write electronic localiz. function (ELF)
   LORBIT       =     11    0 simple, 1 ext, 2 COOP (PROOUT), +10 PAW based schemes


 Dipole corrections
   LMONO  =      F    monopole corrections only (constant potential shift)
   LDIPOL =      F    correct potential (dipole corrections)
   IDIPOL =      0    1-x, 2-y, 3-z, 4-all directions 
   EPSILON=  1.0000000 bulk dielectric constant

 LDA+U is selected, type is set to LDAUTYPE =  2
   angular momentum for each species LDAUL =    -1    2   -1
   U (eV)           for each species LDAUU =   0.0  5.1  0.0
   J (eV)           for each species LDAUJ =   0.0  0.0  0.0
 Exchange correlation treatment:
   GGA     =    --    GGA type
   LEXCH   =     8    internal setting for exchange type
   VOSKOWN=      0    Vosko Wilk Nusair interpolation
   LHFCALC =     F    Hartree Fock is set to
   LHFONE  =     F    Hartree Fock one center treatment
   AEXX    =    0.0000 exact exchange contribution

 Linear response parameters
   LEPSILON=     F    determine dielectric tensor
   LRPA    =     F    only Hartree local field effects (RPA)
   LNABLA  =     F    use nabla operator in PAW spheres
   LVEL    =     F    velocity operator in full k-point grid
   LINTERFAST=   F  fast interpolation
   KINTER  =     0    interpolate to denser k-point grid
   CSHIFT  =0.1000    complex shift for real part using Kramers Kronig
   OMEGAMAX=  -1.0    maximum frequency
   DEG_THRESHOLD= 0.2000000E-02 threshold for treating states as degnerate
   RTIME   =   -0.100 relaxation time in fs
  (WPLASMAI=    0.000 imaginary part of plasma frequency in eV, 0.658/RTIME)
   DFIELD  = 0.0000000 0.0000000 0.0000000 field for delta impulse in time
 
 Orbital magnetization related:
   ORBITALMAG=     F  switch on orbital magnetization
   LCHIMAG   =     F  perturbation theory with respect to B field
   DQ        =  0.001000  dq finite difference perturbation B field
   LLRAUG    =     F  two centre corrections for induced B field



--------------------------------------------------------------------------------------------------------


 Static calculation
 charge density and potential will be updated during run
 spin polarized calculation
 Conjugate gradient for all bands (Freysoldt, et al. PRB 79, 241103 (2009))
 preconditioned conjugated gradient                                        
 perform sub-space diagonalisation
    before iterative eigenvector-optimisation
 modified Broyden-mixing scheme, WC =      100.0
 initial mixing is a Kerker type mixing with AMIX =  0.4000 and BMIX =      1.0000
 Hartree-type preconditioning will be used
 using additional bands           31
 real space projection scheme for non local part
 use partial core corrections
 no Harris-corrections to forces 
 use gradient corrections 
 use of overlap-Matrix (Vanderbilt PP)
 Gauss-broadening in eV      SIGMA  =   0.05


--------------------------------------------------------------------------------------------------------


  energy-cutoff  :      600.00
  volume of cell :      399.88
      direct lattice vectors                 reciprocal lattice vectors
     5.601827145  0.000000000  0.000000000     0.178513184  0.103537336 -0.008148642
    -2.838042736  4.893191814  0.000000000     0.000000000  0.204365583  0.002658571
     0.775995195 -0.189779744 14.588454247     0.000000000  0.000000000  0.068547358

  length of vectors
     5.601827145  5.656660915 14.610310818     0.206526844  0.204382875  0.068547358


 
 k-points in units of 2pi/SCALE and weight: read from INCAR                         
   0.01487610  0.02565858  0.01667933       0.028
   0.04462830  0.04291480  0.01532123       0.028
   0.07438049  0.06017102  0.01396312       0.028
  -0.07438049 -0.02611009  0.02075365       0.028
  -0.04462830 -0.00885387  0.01939555       0.028
  -0.01487610  0.00840235  0.01803744       0.028
   0.01487610  0.05971951  0.01712243       0.028
   0.04462830  0.07697573  0.01576432       0.028
   0.07438049  0.09423195  0.01440622       0.028
  -0.07438049  0.00795084  0.02119675       0.028
  -0.04462830  0.02520706  0.01983864       0.028
  -0.01487610  0.04246328  0.01848054       0.028
   0.01487610  0.09378044  0.01756552       0.028
   0.04462830  0.11103666  0.01620742       0.028
   0.07438049  0.12829288  0.01484931       0.028
  -0.07438049  0.04201177  0.02163984       0.028
  -0.04462830  0.05926799  0.02028174       0.028
  -0.01487610  0.07652422  0.01892363       0.028
   0.01487610 -0.07652422  0.01535005       0.028
   0.04462830 -0.05926799  0.01399194       0.028
   0.07438049 -0.04201177  0.01263383       0.028
  -0.07438049 -0.12829288  0.01942437       0.028
  -0.04462830 -0.11103666  0.01806626       0.028
  -0.01487610 -0.09378044  0.01670815       0.028
   0.01487610 -0.04246328  0.01579314       0.028
   0.04462830 -0.02520706  0.01443504       0.028
   0.07438049 -0.00795084  0.01307693       0.028
  -0.07438049 -0.09423195  0.01986746       0.028
  -0.04462830 -0.07697573  0.01850936       0.028
  -0.01487610 -0.05971951  0.01715125       0.028
   0.01487610 -0.00840235  0.01623624       0.028
   0.04462830  0.00885387  0.01487813       0.028
   0.07438049  0.02611009  0.01352002       0.028
  -0.07438049 -0.06017102  0.02031056       0.028
  -0.04462830 -0.04291480  0.01895245       0.028
  -0.01487610 -0.02565858  0.01759435       0.028
 
 k-points in reciprocal lattice and weights: read from INCAR                         
   0.08333333  0.08333333  0.25000000       0.028
   0.25000000  0.08333333  0.25000000       0.028
   0.41666667  0.08333333  0.25000000       0.028
  -0.41666667  0.08333333  0.25000000       0.028
  -0.25000000  0.08333333  0.25000000       0.028
  -0.08333333  0.08333333  0.25000000       0.028
   0.08333333  0.25000000  0.25000000       0.028
   0.25000000  0.25000000  0.25000000       0.028
   0.41666667  0.25000000  0.25000000       0.028
  -0.41666667  0.25000000  0.25000000       0.028
  -0.25000000  0.25000000  0.25000000       0.028
  -0.08333333  0.25000000  0.25000000       0.028
   0.08333333  0.41666667  0.25000000       0.028
   0.25000000  0.41666667  0.25000000       0.028
   0.41666667  0.41666667  0.25000000       0.028
  -0.41666667  0.41666667  0.25000000       0.028
  -0.25000000  0.41666667  0.25000000       0.028
  -0.08333333  0.41666667  0.25000000       0.028
   0.08333333 -0.41666667  0.25000000       0.028
   0.25000000 -0.41666667  0.25000000       0.028
   0.41666667 -0.41666667  0.25000000       0.028
  -0.41666667 -0.41666667  0.25000000       0.028
  -0.25000000 -0.41666667  0.25000000       0.028
  -0.08333333 -0.41666667  0.25000000       0.028
   0.08333333 -0.25000000  0.25000000       0.028
   0.25000000 -0.25000000  0.25000000       0.028
   0.41666667 -0.25000000  0.25000000       0.028
  -0.41666667 -0.25000000  0.25000000       0.028
  -0.25000000 -0.25000000  0.25000000       0.028
  -0.08333333 -0.25000000  0.25000000       0.028
   0.08333333 -0.08333333  0.25000000       0.028
   0.25000000 -0.08333333  0.25000000       0.028
   0.41666667 -0.08333333  0.25000000       0.028
  -0.41666667 -0.08333333  0.25000000       0.028
  -0.25000000 -0.08333333  0.25000000       0.028
  -0.08333333 -0.08333333  0.25000000       0.028
 
 position of ions in fractional coordinates (direct lattice) 
   0.01694577  0.13763367  0.99377287
   0.49560076  0.07905719  0.99785142
   0.82047153  0.15288194  0.32785721
   0.88127695  0.69091181  0.34547388
   0.75056595  0.36725654  0.66201326
   0.67717795  0.84206756  0.65285192
   0.09268675  0.30375119  0.17137183
   0.09098830  0.81227673  0.17549769
   0.59467811  0.29711465  0.17150891
   0.57674581  0.81185901  0.17795237
   0.06025106  0.97748968  0.50619071
   0.05997723  0.46577557  0.49846817
   0.54893862  0.96820817  0.50215122
   0.55298144  0.47454305  0.49810487
   0.35193834  0.21334891  0.81872345
   0.36048127  0.71156246  0.82807333
   0.84821700  0.22214298  0.82088955
   0.86463083  0.72444912  0.83675144
   0.93231781  0.98963443  0.23923028
   0.91498540  0.47531692  0.23952436
   0.41962718  0.96836590  0.24259801
   0.39040968  0.46025353  0.23442373
   0.23714606  0.11719275  0.09957121
   0.27526990  0.63107479  0.10680843
   0.75521261  0.13794319  0.10713747
   0.75534414  0.64283596  0.10965110
   0.39920066  0.15835287  0.56797931
   0.38689436  0.63863368  0.56326940
   0.87250079  0.13623967  0.57169871
   0.86659138  0.62402192  0.57360632
   0.22840128  0.28968752  0.43048082
   0.20656126  0.80051599  0.42632755
   0.73288891  0.29896913  0.43473215
   0.73523721  0.83962120  0.43127735
   0.17993722  0.37221782  0.88941638
   0.19201599  0.89593454  0.89429691
   0.67396869  0.39405719  0.89386507
   0.70274743  0.92008656  0.90278310
   0.01718959  0.03295030  0.75625627
   0.04274271  0.56008944  0.76085583
   0.51935137  0.04605927  0.74864064
   0.55444081  0.56492369  0.75882682
 
 position of ions in cartesian coordinates  (Angst):
   0.47547999  0.48486999 14.49761009
   3.32623005  0.19746999 14.55710983
   4.41666985  0.68585998  4.78292990
   3.24400997  3.31520009  5.03992987
   3.67597008  1.67141998  9.65775013
   1.91022003  3.99650002  9.52410030
  -0.20986000  1.45378995  2.50005007
  -1.65938997  3.94131994  2.56024003
   2.62115002  1.42129004  2.50204992
   1.06482995  3.93881011  2.59605002
  -2.04383993  4.68697977  7.38454008
  -0.59909999  2.18453002  7.27188015
   0.71691000  4.64233017  7.32561016
   2.13745999  2.22749996  7.26658010
   2.00132990  0.88858002 11.94390965
   0.64249003  3.32466006 12.08030987
   4.75812006  0.93120003 11.97550964
   3.43681002  3.38607001 12.20691013
   2.59969997  4.79707003  3.49000001
   3.96249008  2.28035998  3.49429011
  -0.20933001  4.69235992  3.53912997
   1.06270003  2.20761991  3.41987991
   1.07312000  0.55454999  1.45258999
  -0.16611999  3.06769991  1.55816996
   3.92221999  0.65464997  1.56297004
   2.49200010  3.12471008  1.59964001
   2.22759008  0.66706002  8.28594017
   0.79193997  3.01805997  8.21722984
   4.94458008  0.55814999  8.34020042
   3.52860999  2.94460011  8.36802959
   0.79136997  1.33580005  6.28004980
  -0.78394997  3.83616996  6.21946001
   3.59437990  1.38040996  6.34207010
   2.07046008  4.02657986  6.29166985
   0.64178997  1.65253997 12.97521019
  -0.77309000  4.21426010 13.04640961
   3.35073996  1.75855994 13.04010963
   2.02598000  4.33083010 13.17020988
   0.58963001  0.01771000 11.03260994
  -0.75970000  2.59623003 11.09971046
   3.35953999  0.08330000 10.92150974
   2.09144998  2.62027001 11.07011032
 


--------------------------------------------------------------------------------------------------------


 k-point  1 :   0.0833 0.0833 0.2500  plane waves:   13365
 k-point  2 :   0.2500 0.0833 0.2500  plane waves:   13353
 k-point  3 :   0.4167 0.0833 0.2500  plane waves:   13361
 k-point  4 :  -0.4167 0.0833 0.2500  plane waves:   13357
 k-point  5 :  -0.2500 0.0833 0.2500  plane waves:   13334
 k-point  6 :  -0.0833 0.0833 0.2500  plane waves:   13355
 k-point  7 :   0.0833 0.2500 0.2500  plane waves:   13326
 k-point  8 :   0.2500 0.2500 0.2500  plane waves:   13347
 k-point  9 :   0.4167 0.2500 0.2500  plane waves:   13359
 k-point 10 :  -0.4167 0.2500 0.2500  plane waves:   13340
 k-point 11 :  -0.2500 0.2500 0.2500  plane waves:   13338
 k-point 12 :  -0.0833 0.2500 0.2500  plane waves:   13342
 k-point 13 :   0.0833 0.4167 0.2500  plane waves:   13352
 k-point 14 :   0.2500 0.4167 0.2500  plane waves:   13358
 k-point 15 :   0.4167 0.4167 0.2500  plane waves:   13359
 k-point 16 :  -0.4167 0.4167 0.2500  plane waves:   13334
 k-point 17 :  -0.2500 0.4167 0.2500  plane waves:   13333
 k-point 18 :  -0.0833 0.4167 0.2500  plane waves:   13332
 k-point 19 :   0.0833-0.4167 0.2500  plane waves:   13326
 k-point 20 :   0.2500-0.4167 0.2500  plane waves:   13343
 k-point 21 :   0.4167-0.4167 0.2500  plane waves:   13334
 k-point 22 :  -0.4167-0.4167 0.2500  plane waves:   13344
 k-point 23 :  -0.2500-0.4167 0.2500  plane waves:   13348
 k-point 24 :  -0.0833-0.4167 0.2500  plane waves:   13349
 k-point 25 :   0.0833-0.2500 0.2500  plane waves:   13330
 k-point 26 :   0.2500-0.2500 0.2500  plane waves:   13335
 k-point 27 :   0.4167-0.2500 0.2500  plane waves:   13347
 k-point 28 :  -0.4167-0.2500 0.2500  plane waves:   13337
 k-point 29 :  -0.2500-0.2500 0.2500  plane waves:   13351
 k-point 30 :  -0.0833-0.2500 0.2500  plane waves:   13349
 k-point 31 :   0.0833-0.0833 0.2500  plane waves:   13369
 k-point 32 :   0.2500-0.0833 0.2500  plane waves:   13342
 k-point 33 :   0.4167-0.0833 0.2500  plane waves:   13342
 k-point 34 :  -0.4167-0.0833 0.2500  plane waves:   13355
 k-point 35 :  -0.2500-0.0833 0.2500  plane waves:   13330
 k-point 36 :  -0.0833-0.0833 0.2500  plane waves:   13329

 maximum and minimum number of plane-waves per node :      3379     3287

 maximum number of plane-waves:     13369
 maximum index in each direction: 
   IXMAX=   11   IYMAX=   11   IZMAX=   28
   IXMIN=  -11   IYMIN=  -11   IZMIN=  -29


 real space projection operators:
  total allocation   :       7410.45 KBytes
  max/ min on nodes  :       1855.86       1851.26


 parallel 3D FFT for wavefunctions:
    minimum data exchange during FFTs selected (reduces bandwidth)
 parallel 3D FFT for charge:
    minimum data exchange during FFTs selected (reduces bandwidth)


 total amount of memory used by VASP MPI-rank0   160351. kBytes
=======================================================================

   base      :      30000. kBytes
   nonlr-proj:       4236. kBytes
   fftplans  :       1690. kBytes
   grid      :       4644. kBytes
   one-center:        342. kBytes
   wavefun   :     119439. kBytes
 
     INWAV:  cpu time    0.0000: real time    0.0003
 Broyden mixing: mesh for mixing (old mesh)
   NGX = 23   NGY = 23   NGZ = 59
  (NGX  = 72   NGY  = 72   NGZ  =180)
  gives a total of  31211 points

 initial charge density was supplied:
 charge density of overlapping atoms calculated
 number of electron     258.0000000 magnetization       6.0000000
 keeping initial charge density in first step


--------------------------------------------------------------------------------------------------------


 Maximum index for non-local projection operator          680
 Maximum index for augmentation-charges          868 (set IRDMAX)


--------------------------------------------------------------------------------------------------------


 First call to EWALD:  gamma=   0.241
 Maximum number of real-space cells 4x 4x 2
 Maximum number of reciprocal cells 2x 2x 5

    FEWALD:  cpu time    0.0056: real time    0.0056


--------------------------------------- Iteration      1(   1)  ---------------------------------------


    POTLOK:  cpu time    0.0680: real time    0.0799
    SETDIJ:  cpu time    0.0195: real time    0.0202
    TRIAL :  cpu time   20.9666: real time   21.0546
    CORREC:  cpu time    0.0041: real time    0.0041
    --------------------------------------------
      LOOP:  cpu time   21.2681: real time   21.3698

 eigenvalue-minimisations  : 23040
 total energy-change (2. order) : 0.3469405E+04  (-0.1390038E+05)
 number of electron     258.0000000 magnetization       6.0000000
 augmentation part      258.0000000 magnetization       6.0000000

 Free energy of the ion-electron system (eV)
  ---------------------------------------------------
  alpha Z        PSCENC =       733.13421112
  Ewald energy   TEWEN  =    -13537.61500344
  -Hartree energ DENC   =     -7426.79688309
  -exchange      EXHF   =         0.00000000
  -V(xc)+E(xc)   XCENC  =       842.03033555
  PAW double counting   =     17015.18481625   -17491.61297812
  entropy T*S    EENTRO =        -0.00669199
  eigenvalues    EBANDS =      3166.21653772
  atomic energy  EATOM  =     20168.87094289
  ---------------------------------------------------
  free energy    TOTEN  =      3469.40528688 eV

  energy without entropy =     3469.41197888  energy(sigma->0) =     3469.40863288


--------------------------------------------------------------------------------------------------------




--------------------------------------- Iteration      1(   2)  ---------------------------------------


    TRIAL :  cpu time   21.9072: real time   21.9613
    CORREC:  cpu time    0.0041: real time    0.0041
    --------------------------------------------
      LOOP:  cpu time   21.9159: real time   21.9700

 eigenvalue-minimisations  : 24880
 total energy-change (2. order) :-0.3060593E+04  (-0.2821852E+04)
 number of electron     258.0000000 magnetization       6.0000000
 augmentation part      258.0000000 magnetization       6.0000000

 Free energy of the ion-electron system (eV)
  ---------------------------------------------------
  alpha Z        PSCENC =       733.13421112
  Ewald energy   TEWEN  =    -13537.61500344
  -Hartree energ DENC   =     -7426.79688309
  -exchange      EXHF   =         0.00000000
  -V(xc)+E(xc)   XCENC  =       842.03033555
  PAW double counting   =     17015.18481625   -17491.61297812
  entropy T*S    EENTRO =        -0.01964122
  eigenvalues    EBANDS =       105.63679712
  atomic energy  EATOM  =     20168.87094289
  ---------------------------------------------------
  free energy    TOTEN  =       408.81259706 eV

  energy without entropy =      408.83223828  energy(sigma->0) =      408.82241767


--------------------------------------------------------------------------------------------------------




--------------------------------------- Iteration      1(   3)  ---------------------------------------


    TRIAL :  cpu time   23.1667: real time   23.2020
    CORREC:  cpu time    0.0043: real time    0.0043
    --------------------------------------------
      LOOP:  cpu time   23.1750: real time   23.2103

 eigenvalue-minimisations  : 26352
 total energy-change (2. order) :-0.6286617E+03  (-0.5762911E+03)
 number of electron     258.0000000 magnetization       6.0000000
 augmentation part      258.0000000 magnetization       6.0000000

 Free energy of the ion-electron system (eV)
  ---------------------------------------------------
  alpha Z        PSCENC =       733.13421112
  Ewald energy   TEWEN  =    -13537.61500344
  -Hartree energ DENC   =     -7426.79688309
  -exchange      EXHF   =         0.00000000
  -V(xc)+E(xc)   XCENC  =       842.03033555
  PAW double counting   =     17015.18481625   -17491.61297812
  entropy T*S    EENTRO =        -0.03970610
  eigenvalues    EBANDS =      -523.00483101
  atomic energy  EATOM  =     20168.87094289
  ---------------------------------------------------
  free energy    TOTEN  =      -219.84909595 eV

  energy without entropy =     -219.80938985  energy(sigma->0) =     -219.82924290


--------------------------------------------------------------------------------------------------------




--------------------------------------- Iteration      1(   4)  ---------------------------------------


    TRIAL :  cpu time   22.1933: real time   22.2268
    CORREC:  cpu time    0.0028: real time    0.0092
    --------------------------------------------
      LOOP:  cpu time   22.2001: real time   22.2400

 eigenvalue-minimisations  : 25216
 total energy-change (2. order) :-0.5076443E+02  (-0.4953933E+02)
 number of electron     258.0000000 magnetization       6.0000000
 augmentation part      258.0000000 magnetization       6.0000000

 Free energy of the ion-electron system (eV)
  ---------------------------------------------------
  alpha Z        PSCENC =       733.13421112
  Ewald energy   TEWEN  =    -13537.61500344
  -Hartree energ DENC   =     -7426.79688309
  -exchange      EXHF   =         0.00000000
  -V(xc)+E(xc)   XCENC  =       842.03033555
  PAW double counting   =     17015.18481625   -17491.61297812
  entropy T*S    EENTRO =        -0.05595563
  eigenvalues    EBANDS =      -573.75300980
  atomic energy  EATOM  =     20168.87094289
  ---------------------------------------------------
  free energy    TOTEN  =      -270.61352428 eV

  energy without entropy =     -270.55756864  energy(sigma->0) =     -270.58554646


--------------------------------------------------------------------------------------------------------




--------------------------------------- Iteration      1(   5)  ---------------------------------------


    TRIAL :  cpu time   24.1599: real time   24.4255
    CORREC:  cpu time    0.0037: real time    0.0037
    CHARGE:  cpu time    0.4135: real time    0.4169
    --------------------------------------------
      LOOP:  cpu time   24.5812: real time   24.8502

 eigenvalue-minimisations  : 28240
 total energy-change (2. order) :-0.1776741E+01  (-0.1773301E+01)
 number of electron     257.9999982 magnetization       5.9999998
 augmentation part       68.0236540 magnetization       4.3398038

 Free energy of the ion-electron system (eV)
  ---------------------------------------------------
  alpha Z        PSCENC =       733.13421112
  Ewald energy   TEWEN  =    -13537.61500344
  -Hartree energ DENC   =     -7426.79688309
  -exchange      EXHF   =         0.00000000
  -V(xc)+E(xc)   XCENC  =       842.03033555
  PAW double counting   =     17015.18481625   -17491.61297812
  entropy T*S    EENTRO =        -0.05618362
  eigenvalues    EBANDS =      -575.52952293
  atomic energy  EATOM  =     20168.87094289
  ---------------------------------------------------
  free energy    TOTEN  =      -272.39026539 eV

  energy without entropy =     -272.33408177  energy(sigma->0) =     -272.36217358


--------------------------------------------------------------------------------------------------------




--------------------------------------- Iteration      1(   6)  ---------------------------------------


    POTLOK:  cpu time    0.0463: real time    0.0466
    SETDIJ:  cpu time    0.0125: real time    0.0126
    TRIAL :  cpu time   11.8049: real time   11.9233
    CORREC:  cpu time    4.1601: real time    4.1812
    CHARGE:  cpu time    0.4408: real time    0.4412
    --------------------------------------------
      LOOP:  cpu time   16.4689: real time   16.6091

 eigenvalue-minimisations  :     0
 total energy-change (2. order) : 0.3619101E+03  (-0.2081584E+03)
 number of electron     257.9999982 magnetization       5.9999999
 augmentation part       70.3116320 magnetization       4.4019413

 Free energy of the ion-electron system (eV)
  ---------------------------------------------------
  alpha Z        PSCENC =       733.13421112
  Ewald energy   TEWEN  =    -13537.61500344
  -Hartree energ DENC   =     -7138.22033292
  -exchange      EXHF   =         0.00000000
  -V(xc)+E(xc)   XCENC  =       876.21204798
  PAW double counting   =     23599.65216689   -23807.07387781
  entropy T*S    EENTRO =        -0.02624793
  eigenvalues    EBANDS =      -805.38410206
  atomic energy  EATOM  =     20168.87094289
  ---------------------------------------------------
  free energy    TOTEN  =        89.51986903 eV

  energy without entropy =       89.54611697  energy(sigma->0) =       89.53299300


--------------------------------------------------------------------------------------------------------




--------------------------------------- Iteration      1(   7)  ---------------------------------------


    POTLOK:  cpu time    0.0456: real time    0.0457
    SETDIJ:  cpu time    0.0125: real time    0.0125
    TRIAL :  cpu time   11.8608: real time   11.8786
    CORREC:  cpu time    4.1814: real time    4.1875
    CHARGE:  cpu time    0.4179: real time    0.4185
    --------------------------------------------
      LOOP:  cpu time   16.5226: real time   16.5471

 eigenvalue-minimisations  :     0
 total energy-change (2. order) :-0.6754542E+02  (-0.2763956E+03)
 number of electron     257.9999988 magnetization       5.9999995
 augmentation part       73.7177745 magnetization       4.2547087

 Free energy of the ion-electron system (eV)
  ---------------------------------------------------
  alpha Z        PSCENC =       733.13421112
  Ewald energy   TEWEN  =    -13537.61500344
  -Hartree energ DENC   =     -7077.22118580
  -exchange      EXHF   =         0.00000000
  -V(xc)+E(xc)   XCENC  =       868.50470094
  PAW double counting   =     23591.57126772   -23888.19739553
  entropy T*S    EENTRO =        -0.02045905
  eigenvalues    EBANDS =      -837.04684486
  atomic energy  EATOM  =     20168.87094289
  ---------------------------------------------------
  free energy    TOTEN  =        21.97444510 eV

  energy without entropy =       21.99490415  energy(sigma->0) =       21.98467463


--------------------------------------------------------------------------------------------------------




--------------------------------------- Iteration      1(   8)  ---------------------------------------


    POTLOK:  cpu time    0.0460: real time    0.0460
    SETDIJ:  cpu time    0.0127: real time    0.0127
    TRIAL :  cpu time   11.8884: real time   11.9074
    CORREC:  cpu time    4.1533: real time    4.1594
    CHARGE:  cpu time    0.4194: real time    0.4198
    --------------------------------------------
      LOOP:  cpu time   16.5240: real time   16.5496

 eigenvalue-minimisations  :     0
 total energy-change (2. order) :-0.7238134E+02  (-0.1764061E+02)
 number of electron     257.9999984 magnetization       5.9999999
 augmentation part       74.3010148 magnetization       4.0756469

 Free energy of the ion-electron system (eV)
  ---------------------------------------------------
  alpha Z        PSCENC =       733.13421112
  Ewald energy   TEWEN  =    -13537.61500344
  -Hartree energ DENC   =     -7293.70243710
  -exchange      EXHF   =         0.00000000
  -V(xc)+E(xc)   XCENC  =       855.06158920
  PAW double counting   =     23429.88653062   -23867.57253927
  entropy T*S    EENTRO =        -0.03465036
  eigenvalues    EBANDS =      -538.44972577
  atomic energy  EATOM  =     20168.87094289
  ---------------------------------------------------
  free energy    TOTEN  =       -50.40689081 eV

  energy without entropy =      -50.37224046  energy(sigma->0) =      -50.38956563


--------------------------------------------------------------------------------------------------------




--------------------------------------- Iteration      1(   9)  ---------------------------------------


    POTLOK:  cpu time    0.0455: real time    0.0455
    SETDIJ:  cpu time    0.0127: real time    0.0127
    TRIAL :  cpu time   11.8546: real time   11.8725
    CORREC:  cpu time    4.1676: real time    4.1732
    CHARGE:  cpu time    0.4234: real time    0.4239
    --------------------------------------------
      LOOP:  cpu time   16.5080: real time   16.5320

 eigenvalue-minimisations  :     0
 total energy-change (2. order) :-0.1224324E+03  (-0.3400054E+02)
 number of electron     257.9999982 magnetization       6.0000001
 augmentation part       74.6292312 magnetization       4.0468758

 Free energy of the ion-electron system (eV)
  ---------------------------------------------------
  alpha Z        PSCENC =       733.13421112
  Ewald energy   TEWEN  =    -13537.61500344
  -Hartree energ DENC   =     -7204.22142963
  -exchange      EXHF   =         0.00000000
  -V(xc)+E(xc)   XCENC  =       851.99400870
  PAW double counting   =     23413.86927019   -23869.33028211
  entropy T*S    EENTRO =        -0.03179888
  eigenvalues    EBANDS =      -729.50633282
  atomic energy  EATOM  =     20168.87094289
  ---------------------------------------------------
  free energy    TOTEN  =      -172.83926545 eV

  energy without entropy =     -172.80746656  energy(sigma->0) =     -172.82336600


--------------------------------------------------------------------------------------------------------




--------------------------------------- Iteration      1(  10)  ---------------------------------------


    POTLOK:  cpu time    0.0453: real time    0.0454
    SETDIJ:  cpu time    0.0126: real time    0.0126
    TRIAL :  cpu time   11.9188: real time   11.9373
    CORREC:  cpu time    4.1607: real time    4.1667
    CHARGE:  cpu time    0.4264: real time    0.4272
    --------------------------------------------
      LOOP:  cpu time   16.5681: real time   16.5934

 eigenvalue-minimisations  :     0
 total energy-change (2. order) :-0.1141174E+02  (-0.3242958E+02)
 number of electron     257.9999986 magnetization       5.9999999
 augmentation part       75.7950132 magnetization       4.0005435

 Free energy of the ion-electron system (eV)
  ---------------------------------------------------
  alpha Z        PSCENC =       733.13421112
  Ewald energy   TEWEN  =    -13537.61500344
  -Hartree energ DENC   =     -7177.89113187
  -exchange      EXHF   =         0.00000000
  -V(xc)+E(xc)   XCENC  =       851.54260159
  PAW double counting   =     23488.93296559   -23956.68813020
  entropy T*S    EENTRO =        -0.03660000
  eigenvalues    EBANDS =      -754.50566146
  atomic energy  EATOM  =     20168.87094289
  ---------------------------------------------------
  free energy    TOTEN  =      -184.25100465 eV

  energy without entropy =     -184.21440465  energy(sigma->0) =     -184.23270465


--------------------------------------------------------------------------------------------------------




--------------------------------------- Iteration      1(  11)  ---------------------------------------


    POTLOK:  cpu time    0.0458: real time    0.0458
    SETDIJ:  cpu time    0.0126: real time    0.0126
    TRIAL :  cpu time   11.8119: real time   11.8424
    CORREC:  cpu time    4.1257: real time    4.1376
    CHARGE:  cpu time    0.4139: real time    0.4171
    --------------------------------------------
      LOOP:  cpu time   16.4143: real time   16.4600

 eigenvalue-minimisations  :     0
 total energy-change (2. order) :-0.9331371E+01  (-0.3638329E+02)
 number of electron     257.9999989 magnetization       5.9999997
 augmentation part       77.0863699 magnetization       3.9124233

 Free energy of the ion-electron system (eV)
  ---------------------------------------------------
  alpha Z        PSCENC =       733.13421112
  Ewald energy   TEWEN  =    -13537.61500344
  -Hartree energ DENC   =     -7364.39590575
  -exchange      EXHF   =         0.00000000
  -V(xc)+E(xc)   XCENC  =       850.88513163
  PAW double counting   =     23771.44920741   -24282.28511704
  entropy T*S    EENTRO =        -0.02548057
  eigenvalues    EBANDS =      -533.58924250
  atomic energy  EATOM  =     20168.87094289
  ---------------------------------------------------
  free energy    TOTEN  =      -193.58237569 eV

  energy without entropy =     -193.55689512  energy(sigma->0) =     -193.56963540


--------------------------------------------------------------------------------------------------------




--------------------------------------- Iteration      1(  12)  ---------------------------------------


    POTLOK:  cpu time    0.0451: real time    0.0453
    SETDIJ:  cpu time    0.0126: real time    0.0127
    TRIAL :  cpu time   11.9115: real time   12.0060
    CORREC:  cpu time    4.1647: real time    4.1738
    CHARGE:  cpu time    0.5482: real time    0.5491
    --------------------------------------------
      LOOP:  cpu time   16.6864: real time   16.7912

 eigenvalue-minimisations  :     0
 total energy-change (2. order) : 0.1227938E+01  (-0.1965283E+02)
 number of electron     257.9999986 magnetization       5.9999999
 augmentation part       77.1688542 magnetization       3.8546183

 Free energy of the ion-electron system (eV)
  ---------------------------------------------------
  alpha Z        PSCENC =       733.13421112
  Ewald energy   TEWEN  =    -13537.61500344
  -Hartree energ DENC   =     -7468.53225334
  -exchange      EXHF   =         0.00000000
  -V(xc)+E(xc)   XCENC  =       849.97019415
  PAW double counting   =     24153.91571731   -24710.41992465
  entropy T*S    EENTRO =        -0.02575029
  eigenvalues    EBANDS =      -381.65284112
  atomic energy  EATOM  =     20168.87094289
  ---------------------------------------------------
  free energy    TOTEN  =      -192.35443764 eV

  energy without entropy =     -192.32868735  energy(sigma->0) =     -192.34156250


--------------------------------------------------------------------------------------------------------




--------------------------------------- Iteration      1(  13)  ---------------------------------------


    POTLOK:  cpu time    0.0454: real time    0.0454
    SETDIJ:  cpu time    0.0126: real time    0.0126
    TRIAL :  cpu time   11.7087: real time   11.7401
    CORREC:  cpu time    4.3130: real time    4.3216
    CHARGE:  cpu time    0.4247: real time    0.4255
    --------------------------------------------
      LOOP:  cpu time   16.5084: real time   16.5492

 eigenvalue-minimisations  :     0
 total energy-change (2. order) :-0.1331421E+02  (-0.1089738E+02)
 number of electron     257.9999986 magnetization       5.9999999
 augmentation part       76.2451078 magnetization       3.8926858

 Free energy of the ion-electron system (eV)
  ---------------------------------------------------
  alpha Z        PSCENC =       733.13421112
  Ewald energy   TEWEN  =    -13537.61500344
  -Hartree energ DENC   =     -7517.35724713
  -exchange      EXHF   =         0.00000000
  -V(xc)+E(xc)   XCENC  =       849.35412779
  PAW double counting   =     24188.79852741   -24738.54398425
  entropy T*S    EENTRO =        -0.02552015
  eigenvalues    EBANDS =      -352.28446862
  atomic energy  EATOM  =     20168.87094289
  ---------------------------------------------------
  free energy    TOTEN  =      -205.66864452 eV

  energy without entropy =     -205.64312438  energy(sigma->0) =     -205.65588445


--------------------------------------------------------------------------------------------------------




--------------------------------------- Iteration      1(  14)  ---------------------------------------


    POTLOK:  cpu time    0.0457: real time    0.0458
    SETDIJ:  cpu time    0.0133: real time    0.0133
    TRIAL :  cpu time   11.7937: real time   11.8234
    CORREC:  cpu time    4.2483: real time    4.2741
    CHARGE:  cpu time    0.4248: real time    0.4283
    --------------------------------------------
      LOOP:  cpu time   16.5302: real time   16.5894

 eigenvalue-minimisations  :     0
 total energy-change (2. order) :-0.9250918E+01  (-0.4916040E+01)
 number of electron     257.9999985 magnetization       6.0000000
 augmentation part       75.4482489 magnetization       3.9189258

 Free energy of the ion-electron system (eV)
  ---------------------------------------------------
  alpha Z        PSCENC =       733.13421112
  Ewald energy   TEWEN  =    -13537.61500344
  -Hartree energ DENC   =     -7456.84401343
  -exchange      EXHF   =         0.00000000
  -V(xc)+E(xc)   XCENC  =       849.34172367
  PAW double counting   =     23990.43610196   -24494.46503007
  entropy T*S    EENTRO =        -0.02162499
  eigenvalues    EBANDS =      -467.75297557
  atomic energy  EATOM  =     20168.87094289
  ---------------------------------------------------
  free energy    TOTEN  =      -214.91956301 eV

  energy without entropy =     -214.89793802  energy(sigma->0) =     -214.90875052


--------------------------------------------------------------------------------------------------------




--------------------------------------- Iteration      1(  15)  ---------------------------------------


    POTLOK:  cpu time    0.0454: real time    0.0457
    SETDIJ:  cpu time    0.0123: real time    0.0127
    TRIAL :  cpu time   11.8280: real time   11.9548
    CORREC:  cpu time    4.1401: real time    4.1716
    CHARGE:  cpu time    0.4273: real time    0.4307
    --------------------------------------------
      LOOP:  cpu time   16.4574: real time   16.6197

 eigenvalue-minimisations  :     0
 total energy-change (2. order) :-0.3733764E+01  (-0.1422071E+01)
 number of electron     257.9999986 magnetization       6.0000000
 augmentation part       75.2399607 magnetization       3.9144207

 Free energy of the ion-electron system (eV)
  ---------------------------------------------------
  alpha Z        PSCENC =       733.13421112
  Ewald energy   TEWEN  =    -13537.61500344
  -Hartree energ DENC   =     -7390.13338644
  -exchange      EXHF   =         0.00000000
  -V(xc)+E(xc)   XCENC  =       849.60847291
  PAW double counting   =     23815.91084215   -24281.99121546
  entropy T*S    EENTRO =        -0.02335242
  eigenvalues    EBANDS =      -576.41656564
  atomic energy  EATOM  =     20168.87094289
  ---------------------------------------------------
  free energy    TOTEN  =      -218.65332689 eV

  energy without entropy =     -218.62997448  energy(sigma->0) =     -218.64165069


--------------------------------------------------------------------------------------------------------




--------------------------------------- Iteration      1(  16)  ---------------------------------------


    POTLOK:  cpu time    0.0506: real time    0.0518
    SETDIJ:  cpu time    0.0127: real time    0.0127
    TRIAL :  cpu time   11.7419: real time   11.8719
    CORREC:  cpu time    4.0871: real time    4.1184
    CHARGE:  cpu time    0.4220: real time    0.4252
    --------------------------------------------
      LOOP:  cpu time   16.3148: real time   16.4806

 eigenvalue-minimisations  :     0
 total energy-change (2. order) :-0.1457561E+01  (-0.4881389E+00)
 number of electron     257.9999986 magnetization       5.9999999
 augmentation part       75.4629864 magnetization       3.8893499

 Free energy of the ion-electron system (eV)
  ---------------------------------------------------
  alpha Z        PSCENC =       733.13421112
  Ewald energy   TEWEN  =    -13537.61500344
  -Hartree energ DENC   =     -7378.06499627
  -exchange      EXHF   =         0.00000000
  -V(xc)+E(xc)   XCENC  =       849.84712858
  PAW double counting   =     23747.12568809   -24201.52624237
  entropy T*S    EENTRO =        -0.02187728
  eigenvalues    EBANDS =      -601.85926392
  atomic energy  EATOM  =     20168.87094289
  ---------------------------------------------------
  free energy    TOTEN  =      -220.11088774 eV

  energy without entropy =     -220.08901046  energy(sigma->0) =     -220.09994910


--------------------------------------------------------------------------------------------------------




--------------------------------------- Iteration      1(  17)  ---------------------------------------


    POTLOK:  cpu time    0.0451: real time    0.0454
    SETDIJ:  cpu time    0.0126: real time    0.0127
    TRIAL :  cpu time   11.6714: real time   11.7850
    CORREC:  cpu time    4.1520: real time    4.1603
    CHARGE:  cpu time    0.4143: real time    0.4150
    --------------------------------------------
      LOOP:  cpu time   16.2998: real time   16.4227

 eigenvalue-minimisations  :     0
 total energy-change (2. order) :-0.4642160E+00  (-0.4542307E+00)
 number of electron     257.9999986 magnetization       5.9999999
 augmentation part       75.8125928 magnetization       3.8510264

 Free energy of the ion-electron system (eV)
  ---------------------------------------------------
  alpha Z        PSCENC =       733.13421112
  Ewald energy   TEWEN  =    -13537.61500344
  -Hartree energ DENC   =     -7380.03036385
  -exchange      EXHF   =         0.00000000
  -V(xc)+E(xc)   XCENC  =       850.26641589
  PAW double counting   =     23722.19278097   -24181.48825494
  entropy T*S    EENTRO =        -0.02190520
  eigenvalues    EBANDS =      -595.88395508
  atomic energy  EATOM  =     20168.87094289
  ---------------------------------------------------
  free energy    TOTEN  =      -220.57510372 eV

  energy without entropy =     -220.55319852  energy(sigma->0) =     -220.56415112


--------------------------------------------------------------------------------------------------------




--------------------------------------- Iteration      1(  18)  ---------------------------------------


    POTLOK:  cpu time    0.0453: real time    0.0454
    SETDIJ:  cpu time    0.0126: real time    0.0126
    TRIAL :  cpu time   11.8202: real time   11.8495
    CORREC:  cpu time    4.1531: real time    4.1630
    CHARGE:  cpu time    0.4165: real time    0.4174
    --------------------------------------------
      LOOP:  cpu time   16.4519: real time   16.4920

 eigenvalue-minimisations  :     0
 total energy-change (2. order) :-0.4768590E+00  (-0.3322545E+00)
 number of electron     257.9999985 magnetization       6.0000000
 augmentation part       76.0514872 magnetization       3.8182549

 Free energy of the ion-electron system (eV)
  ---------------------------------------------------
  alpha Z        PSCENC =       733.13421112
  Ewald energy   TEWEN  =    -13537.61500344
  -Hartree energ DENC   =     -7394.34798891
  -exchange      EXHF   =         0.00000000
  -V(xc)+E(xc)   XCENC  =       850.83632470
  PAW double counting   =     23699.21401661   -24167.01470635
  entropy T*S    EENTRO =        -0.02098189
  eigenvalues    EBANDS =      -574.10785411
  atomic energy  EATOM  =     20168.87094289
  ---------------------------------------------------
  free energy    TOTEN  =      -221.05196270 eV

  energy without entropy =     -221.03098081  energy(sigma->0) =     -221.04147175


--------------------------------------------------------------------------------------------------------




--------------------------------------- Iteration      1(  19)  ---------------------------------------


    POTLOK:  cpu time    0.0455: real time    0.0455
    SETDIJ:  cpu time    0.0126: real time    0.0126
    TRIAL :  cpu time   11.8253: real time   11.8556
    CORREC:  cpu time    4.1498: real time    4.1786
    CHARGE:  cpu time    0.4207: real time    0.4237
    --------------------------------------------
      LOOP:  cpu time   16.4583: real time   16.5204

 eigenvalue-minimisations  :     0
 total energy-change (2. order) :-0.3200897E+00  (-0.1340915E+00)
 number of electron     257.9999985 magnetization       6.0000000
 augmentation part       76.0314477 magnetization       3.8084049

 Free energy of the ion-electron system (eV)
  ---------------------------------------------------
  alpha Z        PSCENC =       733.13421112
  Ewald energy   TEWEN  =    -13537.61500344
  -Hartree energ DENC   =     -7400.26330831
  -exchange      EXHF   =         0.00000000
  -V(xc)+E(xc)   XCENC  =       851.27690989
  PAW double counting   =     23667.33929687   -24139.53807658
  entropy T*S    EENTRO =        -0.01958174
  eigenvalues    EBANDS =      -564.55604297
  atomic energy  EATOM  =     20168.87094289
  ---------------------------------------------------
  free energy    TOTEN  =      -221.37205242 eV

  energy without entropy =     -221.35247068  energy(sigma->0) =     -221.36226155


--------------------------------------------------------------------------------------------------------




--------------------------------------- Iteration      1(  20)  ---------------------------------------


    POTLOK:  cpu time    0.0498: real time    0.0501
    SETDIJ:  cpu time    0.0126: real time    0.0127
    TRIAL :  cpu time   11.6822: real time   11.8158
    CORREC:  cpu time    4.1462: real time    4.1583
    CHARGE:  cpu time    0.4135: real time    0.4166
    --------------------------------------------
      LOOP:  cpu time   16.3048: real time   16.4539

 eigenvalue-minimisations  :     0
 total energy-change (2. order) :-0.1273989E+00  (-0.1911480E+00)
 number of electron     257.9999985 magnetization       6.0000000
 augmentation part       75.9514222 magnetization       3.7968262

 Free energy of the ion-electron system (eV)
  ---------------------------------------------------
  alpha Z        PSCENC =       733.13421112
  Ewald energy   TEWEN  =    -13537.61500344
  -Hartree energ DENC   =     -7393.67710608
  -exchange      EXHF   =         0.00000000
  -V(xc)+E(xc)   XCENC  =       851.33998665
  PAW double counting   =     23637.16203212   -24106.26164946
  entropy T*S    EENTRO =        -0.01929333
  eigenvalues    EBANDS =      -574.43328338
  atomic energy  EATOM  =     20168.87094289
  ---------------------------------------------------
  free energy    TOTEN  =      -221.49945133 eV

  energy without entropy =     -221.48015801  energy(sigma->0) =     -221.48980467


--------------------------------------------------------------------------------------------------------




--------------------------------------- Iteration      1(  21)  ---------------------------------------


    POTLOK:  cpu time    0.0454: real time    0.0457
    SETDIJ:  cpu time    0.0125: real time    0.0126
    TRIAL :  cpu time   11.6866: real time   11.8104
    CORREC:  cpu time    4.1299: real time    4.1620
    CHARGE:  cpu time    0.4154: real time    0.4185
    --------------------------------------------
      LOOP:  cpu time   16.2941: real time   16.4534

 eigenvalue-minimisations  :     0
 total energy-change (2. order) :-0.1878482E+00  (-0.2020503E+00)
 number of electron     257.9999985 magnetization       6.0000000
 augmentation part       75.9783079 magnetization       3.7815785

 Free energy of the ion-electron system (eV)
  ---------------------------------------------------
  alpha Z        PSCENC =       733.13421112
  Ewald energy   TEWEN  =    -13537.61500344
  -Hartree energ DENC   =     -7390.67405470
  -exchange      EXHF   =         0.00000000
  -V(xc)+E(xc)   XCENC  =       851.34860275
  PAW double counting   =     23592.68846563   -24055.31964604
  entropy T*S    EENTRO =        -0.01762811
  eigenvalues    EBANDS =      -584.10152441
  atomic energy  EATOM  =     20168.87094289
  ---------------------------------------------------
  free energy    TOTEN  =      -221.68729951 eV

  energy without entropy =     -221.66967141  energy(sigma->0) =     -221.67848546


--------------------------------------------------------------------------------------------------------




--------------------------------------- Iteration      1(  22)  ---------------------------------------


    POTLOK:  cpu time    0.0452: real time    0.0455
    SETDIJ:  cpu time    0.0125: real time    0.0126
    TRIAL :  cpu time   11.6609: real time   11.7858
    CORREC:  cpu time    4.1168: real time    4.1489
    CHARGE:  cpu time    0.6080: real time    0.6113
    --------------------------------------------
      LOOP:  cpu time   16.4477: real time   16.6084

 eigenvalue-minimisations  :     0
 total energy-change (2. order) :-0.2015118E+00  (-0.1487210E+00)
 number of electron     257.9999985 magnetization       6.0000000
 augmentation part       76.0524565 magnetization       3.7907859

 Free energy of the ion-electron system (eV)
  ---------------------------------------------------
  alpha Z        PSCENC =       733.13421112
  Ewald energy   TEWEN  =    -13537.61500344
  -Hartree energ DENC   =     -7395.47502448
  -exchange      EXHF   =         0.00000000
  -V(xc)+E(xc)   XCENC  =       851.24264535
  PAW double counting   =     23585.27857619   -24046.03156405
  entropy T*S    EENTRO =        -0.01587317
  eigenvalues    EBANDS =      -581.27596676
  atomic energy  EATOM  =     20168.87094289
  ---------------------------------------------------
  free energy    TOTEN  =      -221.88881129 eV

  energy without entropy =     -221.87293811  energy(sigma->0) =     -221.88087470


--------------------------------------------------------------------------------------------------------




--------------------------------------- Iteration      1(  23)  ---------------------------------------


    POTLOK:  cpu time    0.0455: real time    0.0457
    SETDIJ:  cpu time    0.0126: real time    0.0126
    TRIAL :  cpu time   11.5197: real time   11.6437
    CORREC:  cpu time    4.2766: real time    4.3094
    CHARGE:  cpu time    0.4178: real time    0.4211
    --------------------------------------------
      LOOP:  cpu time   16.2763: real time   16.4368

 eigenvalue-minimisations  :     0
 total energy-change (2. order) :-0.1462450E+00  (-0.1098856E+00)
 number of electron     257.9999985 magnetization       6.0000000
 augmentation part       76.0739219 magnetization       3.8145227

 Free energy of the ion-electron system (eV)
  ---------------------------------------------------
  alpha Z        PSCENC =       733.13421112
  Ewald energy   TEWEN  =    -13537.61500344
  -Hartree energ DENC   =     -7406.71988725
  -exchange      EXHF   =         0.00000000
  -V(xc)+E(xc)   XCENC  =       851.23047577
  PAW double counting   =     23598.67563841   -24061.01249967
  entropy T*S    EENTRO =        -0.01499599
  eigenvalues    EBANDS =      -568.58306092
  atomic energy  EATOM  =     20168.87094289
  ---------------------------------------------------
  free energy    TOTEN  =      -222.03505626 eV

  energy without entropy =     -222.02006027  energy(sigma->0) =     -222.02755826


--------------------------------------------------------------------------------------------------------




--------------------------------------- Iteration      1(  24)  ---------------------------------------


    POTLOK:  cpu time    0.0455: real time    0.0458
    SETDIJ:  cpu time    0.0125: real time    0.0126
    TRIAL :  cpu time   11.4996: real time   11.6027
    CORREC:  cpu time    4.2788: real time    4.2872
    CHARGE:  cpu time    0.4209: real time    0.4216
    --------------------------------------------
      LOOP:  cpu time   16.2617: real time   16.3744

 eigenvalue-minimisations  :     0
 total energy-change (2. order) :-0.1120345E+00  (-0.2008200E+00)
 number of electron     257.9999984 magnetization       6.0000001
 augmentation part       75.9543072 magnetization       3.9312164

 Free energy of the ion-electron system (eV)
  ---------------------------------------------------
  alpha Z        PSCENC =       733.13421112
  Ewald energy   TEWEN  =    -13537.61500344
  -Hartree energ DENC   =     -7407.08532942
  -exchange      EXHF   =         0.00000000
  -V(xc)+E(xc)   XCENC  =       851.25846312
  PAW double counting   =     23603.93929252   -24066.91846137
  entropy T*S    EENTRO =        -0.01242543
  eigenvalues    EBANDS =      -567.71621018
  atomic energy  EATOM  =     20168.87094289
  ---------------------------------------------------
  free energy    TOTEN  =      -222.14709075 eV

  energy without entropy =     -222.13466532  energy(sigma->0) =     -222.14087803


--------------------------------------------------------------------------------------------------------




--------------------------------------- Iteration      1(  25)  ---------------------------------------


    POTLOK:  cpu time    0.0454: real time    0.0455
    SETDIJ:  cpu time    0.0126: real time    0.0126
    TRIAL :  cpu time   11.6683: real time   11.7092
    CORREC:  cpu time    4.2907: real time    4.3242
    CHARGE:  cpu time    0.4192: real time    0.4224
    --------------------------------------------
      LOOP:  cpu time   16.4405: real time   16.5180

 eigenvalue-minimisations  :     0
 total energy-change (2. order) :-0.2140605E+00  (-0.2548236E+00)
 number of electron     257.9999984 magnetization       6.0000002
 augmentation part       75.8547382 magnetization       4.0921731

 Free energy of the ion-electron system (eV)
[...]
   20        1.559   3.457   0.000   5.016
   21        1.573   3.431   0.000   5.004
   22        1.579   3.390   0.000   4.969
   23        1.561   3.434   0.000   4.994
   24        1.578   3.374   0.000   4.952
   25        1.563   3.469   0.000   5.033
   26        1.575   3.365   0.000   4.940
   27        1.577   3.385   0.000   4.962
   28        1.572   3.440   0.000   5.011
   29        1.565   3.442   0.000   5.007
   30        1.565   3.424   0.000   4.989
   31        1.578   3.369   0.000   4.947
   32        1.573   3.361   0.000   4.934
   33        1.567   3.441   0.000   5.008
   34        1.567   3.439   0.000   5.007
   35        1.567   3.427   0.000   4.995
   36        1.568   3.420   0.000   4.989
   37        1.572   3.394   0.000   4.967
   38        1.562   3.406   0.000   4.968
   39        1.577   3.366   0.000   4.943
   40        1.572   3.400   0.000   4.972
   41        1.564   3.413   0.000   4.978
   42        1.568   3.408   0.000   4.976
--------------------------------------------------
tot         43.528  91.407  87.495 222.431
 


 magnetization (x)
 
# of ion       s       p       d       tot
------------------------------------------
    1        0.001   0.000   0.000   0.001
    2        0.000  -0.001   0.000  -0.001
    3        0.000  -0.001   0.000  -0.000
    4       -0.001  -0.003   0.000  -0.004
    5        0.001   0.001   0.000   0.001
    6        0.001  -0.001   0.000  -0.000
    7        0.008   0.010   1.165   1.183
    8        0.003   0.005  -0.001   0.007
    9        0.004   0.006   0.004   0.014
   10        0.011   0.013   1.251   1.274
   11        0.004   0.005  -0.002   0.007
   12        0.004   0.005  -0.008   0.001
   13        0.012   0.014   1.334   1.360
   14        0.012   0.013   1.385   1.410
   15        0.012   0.015   1.362   1.389
   16        0.002   0.003  -0.010  -0.004
   17        0.005   0.006  -0.005   0.006
   18        0.012   0.016   1.371   1.399
   19        0.000  -0.051   0.000  -0.051
   20       -0.000  -0.041   0.000  -0.042
   21        0.001  -0.002   0.000  -0.001
   22        0.001  -0.078   0.000  -0.077
   23       -0.000  -0.049   0.000  -0.049
   24        0.000  -0.115   0.000  -0.114
   25        0.000  -0.051   0.000  -0.051
   26        0.000  -0.049   0.000  -0.048
   27        0.000  -0.148   0.000  -0.148
   28        0.000  -0.098   0.000  -0.097
   29       -0.000  -0.076   0.000  -0.076
   30        0.000  -0.052   0.000  -0.052
   31        0.001  -0.058   0.000  -0.057
   32        0.000  -0.067   0.000  -0.066
   33       -0.000  -0.093   0.000  -0.093
   34        0.001  -0.069   0.000  -0.068
   35       -0.000  -0.056   0.000  -0.056
   36       -0.000  -0.098   0.000  -0.098
   37        0.001  -0.096   0.000  -0.096
   38        0.000  -0.055   0.000  -0.055
   39        0.000  -0.121   0.000  -0.120
   40       -0.000  -0.107   0.000  -0.107
   41        0.000  -0.036   0.000  -0.036
   42       -0.000  -0.121   0.000  -0.121
--------------------------------------------------
tot          0.097  -1.680   7.846   6.262
 
    FORLOC:  cpu time    0.0085: real time    0.0086
    FORNL :  cpu time    3.9600: real time    3.9763
    STRESS:  cpu time   11.5819: real time   11.7841
    FORCOR:  cpu time    0.0482: real time    0.0486
    OFIELD:  cpu time    0.0003: real time    0.0003

  DFT-D2 method for vdW energy calculation
  -------------------------------------------------------------------

  Parameters of vdW forcefield:
         C6(Jnm^6/mol)     R0(A)
   -----------------------------
   Li       1.610          0.825
   Co      10.800          1.562
   O        0.700          1.342

  IVDW =   1
  VDW_RADIUS =    50.000 A
  VDW_S6 =     0.750
  VDW_SR =     1.000
  VDW_D =    20.000
  LVDW_EWALD = F

  Number of pair interactions contributing to vdW energy: 1182751
  Edisp (eV):   -9.16423
    FORVDW:  cpu time    0.1747: real time    0.1756

  FORCE on cell =-STRESS in cart. coord.  units (eV):
  Direction    XX          YY          ZZ          XY          YZ          ZX
  --------------------------------------------------------------------------------------
  Alpha Z   733.13421   733.13421   733.13421
  Ewald   -1267.32401 -1292.26016-10978.10043   -55.90398    47.98502   -30.69639
  Hartree  4925.67691  4924.14700 -2461.86985   -16.62828    11.97214   -13.13767
  E(xc)   -1283.94087 -1284.49566 -1285.65679     0.02353     0.25575     0.12755
  Local   -8584.27935 -8585.04620  8466.89427    70.39900   -47.83347    45.75206
  n-local  -592.00632  -598.25503  -601.09489    -1.25764     2.04985    -1.44917
  augment  2011.67294  2031.44361  2001.61180    -0.53456    -6.10936    -0.87694
  Kinetic  4060.98271  4073.04638  4129.86804     4.11320    -9.26011    -4.66015
  Fock        0.00000     0.00000     0.00000     0.00000     0.00000     0.00000
  vdW        -6.09023    -5.96890   -12.36530     0.07480    -0.14649     0.18366
  -------------------------------------------------------------------------------------
  Total      -2.17402    -4.25476    -7.57894     0.28607    -1.08666    -4.75704
  in kB      -8.71048   -17.04727   -30.36601     1.14619    -4.35385   -19.05970
  external pressure =      -18.71 kB  Pullay stress =        0.00 kB


 VOLUME and BASIS-vectors are now :
 -----------------------------------------------------------------------------
  energy-cutoff  :      600.00
  volume of cell :      399.88
      direct lattice vectors                 reciprocal lattice vectors
     5.601827145  0.000000000  0.000000000     0.178513184  0.103537336 -0.008148642
    -2.838042736  4.893191814  0.000000000     0.000000000  0.204365583  0.002658571
     0.775995195 -0.189779744 14.588454247     0.000000000  0.000000000  0.068547358

  length of vectors
     5.601827145  5.656660915 14.610310818     0.206526844  0.204382875  0.068547358


 FORCES acting on ions:
    Electron-Ion                     Ewald-Force                    Non-Local-Force
 -----------------------------------------------------------------------------------------------
   -.335E+00 -.140E+00 -.763E+01   0.367E+00 0.187E+00 0.732E+01   0.429E-02 -.414E+00 0.569E+00
   -.171E+00 0.647E+00 -.104E+01   0.115E+00 -.634E+00 0.106E+01   0.455E-01 -.151E+00 -.492E-01
   0.192E+01 -.788E+00 -.396E+01   -.192E+01 0.818E+00 0.388E+01   -.358E+00 0.134E+00 0.488E+00
   0.259E+01 0.450E+01 0.149E+02   -.218E+01 -.423E+01 -.149E+02   0.131E+00 -.327E+00 -.670E+00
   -.442E+00 0.764E+00 -.108E+02   0.529E+00 -.305E+00 0.105E+02   -.871E-01 -.798E+00 0.802E+00
   -.120E+01 0.311E+01 -.187E+02   0.126E+01 -.309E+01 0.188E+02   0.248E+00 -.403E+00 0.942E+00
   0.288E+02 -.606E+01 0.140E+03   -.289E+02 0.680E+01 -.141E+03   -.796E+00 -.130E+00 -.218E+00
   -.843E+01 0.343E+02 0.102E+03   0.769E+01 -.355E+02 -.104E+03   0.976E+00 -.505E+00 0.404E+00
   0.552E+02 -.334E+02 0.108E+03   -.570E+02 0.362E+02 -.108E+03   -.169E+01 -.915E+00 0.142E+00
   -.587E+02 0.205E+02 0.607E+02   0.609E+02 -.229E+02 -.626E+02   0.713E+00 0.277E+00 0.350E+00
   -.186E+02 0.419E+02 -.564E+02   0.192E+02 -.420E+02 0.555E+02   -.844E+00 -.543E+00 0.873E-01
   0.171E+01 -.379E+02 0.159E+02   -.250E+01 0.388E+02 -.166E+02   -.367E+00 -.247E+00 0.108E+01
   0.521E+02 0.229E+02 0.641E+01   -.530E+02 -.221E+02 -.819E+01   -.132E+00 0.457E+00 0.600E+00
   -.168E+02 -.344E+02 0.791E+02   0.174E+02 0.335E+02 -.791E+02   0.477E+00 0.600E+00 -.769E+00
   -.594E+01 -.154E+02 -.505E+02   0.582E+01 0.156E+02 0.500E+02   0.320E+00 0.153E+00 0.681E+00
   -.273E+02 -.192E+02 -.145E+03   0.269E+02 0.192E+02 0.144E+03   0.374E+00 0.143E+01 0.128E+00
   0.117E+02 0.267E+01 -.682E+02   -.104E+02 -.306E+01 0.689E+02   -.152E+00 0.706E-01 0.238E+00
   0.171E+02 0.514E+01 -.183E+03   -.180E+02 -.494E+01 0.182E+03   -.172E+00 0.275E+00 -.923E+00
   0.847E+01 0.240E+02 -.272E+03   -.679E+01 -.254E+02 0.288E+03   -.268E+01 0.603E+00 -.153E+02
   0.102E+02 -.102E+02 -.266E+03   -.915E+01 0.114E+02 0.282E+03   -.843E+00 -.166E+01 -.151E+02
   0.260E+02 -.209E+02 -.295E+03   -.318E+02 0.229E+02 0.319E+03   0.521E+01 -.103E+01 -.237E+02
   -.533E+02 -.126E+02 -.279E+03   0.587E+02 0.128E+02 0.303E+03   -.387E+01 0.602E+00 -.227E+02
   -.238E+02 -.101E+02 0.410E+03   0.257E+02 0.964E+01 -.426E+03   -.978E+00 0.130E+01 0.161E+02
   0.259E+02 -.267E+01 0.427E+03   -.279E+02 0.325E+01 -.451E+03   0.775E+00 -.152E+00 0.237E+02
   -.128E+02 0.177E+01 0.420E+03   0.154E+02 -.362E+01 -.438E+03   -.122E+01 0.126E+01 0.167E+02
   -.195E+01 0.113E+02 0.394E+03   0.114E+01 -.110E+02 -.416E+03   0.116E+01 -.291E+00 0.220E+02
   0.145E+02 0.135E+02 -.328E+03   -.162E+02 -.138E+02 0.352E+03   0.150E+01 -.400E+00 -.235E+02
   0.223E+02 0.428E+01 -.330E+03   -.266E+02 -.740E+01 0.353E+03   0.396E+01 0.341E+01 -.218E+02
   -.131E+02 -.150E+02 -.329E+03   0.156E+02 0.192E+02 0.346E+03   -.272E+01 -.391E+01 -.169E+02
   -.217E+02 -.213E+02 -.306E+03   0.250E+02 0.236E+02 0.321E+03   -.362E+01 -.118E+01 -.169E+02
   -.815E+01 -.783E+01 0.352E+03   0.879E+01 0.579E+01 -.377E+03   -.663E+00 0.266E+01 0.251E+02
   -.848E+01 0.545E+01 0.322E+03   0.111E+02 -.388E+01 -.342E+03   -.160E+01 -.173E+01 0.225E+02
   0.201E+02 -.122E+02 0.336E+03   -.217E+02 0.118E+02 -.353E+03   0.919E+00 0.649E+00 0.170E+02
   -.159E+02 0.350E+02 0.338E+03   0.172E+02 -.345E+02 -.355E+03   -.449E+00 -.208E+01 0.172E+02
   0.422E+01 -.165E+02 -.398E+03   -.539E+01 0.181E+02 0.416E+03   0.113E+01 -.122E+01 -.188E+02
   -.291E+02 -.151E+01 -.404E+03   0.327E+02 0.191E+01 0.424E+03   -.311E+01 -.561E-01 -.192E+02
   0.172E+01 0.157E+02 -.406E+03   -.235E+01 -.176E+02 0.427E+03   0.908E+00 0.742E+00 -.211E+02
   0.206E+02 0.146E+02 -.389E+03   -.222E+02 -.158E+02 0.405E+03   0.122E+01 0.218E+00 -.175E+02
   0.669E+01 0.176E+01 0.260E+03   -.707E+01 -.368E+01 -.282E+03   0.430E+00 0.213E+01 0.222E+02
   0.410E+00 -.757E+01 0.258E+03   -.107E+00 0.118E+02 -.279E+03   -.125E+01 -.460E+01 0.211E+02
   -.570E+01 0.237E+02 0.244E+03   0.410E+01 -.293E+02 -.261E+03   0.227E+01 0.572E+01 0.187E+02
   0.476E+01 -.101E+01 0.246E+03   -.447E+01 0.147E+01 -.265E+03   -.414E+00 -.844E+00 0.185E+02
 -----------------------------------------------------------------------------------------------
   0.530E+01 0.913E+00 -.121E+02   0.613E-13 0.653E-13 0.398E-12   -.526E+01 -.899E+00 0.121E+02
 
 
 POSITION                                       TOTAL-FORCE (eV/Angst)
 -----------------------------------------------------------------------------------
      0.47548      0.48487     14.49761         0.092428     -0.325298      0.098220
      3.32623      0.19747     14.55711         0.021539     -0.132347     -0.021593
      4.41667      0.68586      4.78293        -0.299746      0.063494      0.315514
      3.24401      3.31520      5.03993         0.444539     -0.042895     -0.462002
      3.67597      1.67142      9.65775        -0.082614     -0.196194      0.367929
      1.91022      3.99650      9.52410         0.349204     -0.252712      0.818308
     -0.20986      1.45379      2.50005        -0.589676      0.613069     -0.882552
     -1.65939      3.94132      2.56024         0.060837     -1.549808     -1.410886
      2.62115      1.42129      2.50205        -2.990398      1.744572      0.697477
      1.06483      3.93881      2.59605         2.487935     -1.972946     -1.458060
     -2.04384      4.68698      7.38454        -0.239347     -0.588194     -0.942804
     -0.59910      2.18453      7.27188        -1.166960      0.497076      0.223860
      0.71691      4.64233      7.32561        -0.792506      1.334803     -1.087216
      2.13746      2.22750      7.26658         0.976538     -0.408364     -0.501503
      2.00133      0.88858     11.94391         0.174520      0.315653      0.250141
      0.64249      3.32466     12.08031        -0.107560      1.265443     -0.079247
      4.75812      0.93120     11.97551         1.124601     -0.298443      0.899461
      3.43681      3.38607     12.20691        -0.918989      0.452583     -1.728099
      2.59970      4.79707      3.49000        -0.986271     -0.851524      0.778522
      3.96249      2.28036      3.49429         0.250134     -0.382038      0.456723
     -0.20933      4.69236      3.53913        -0.558754      1.042261      0.412633
      1.06270      2.20762      3.41988         1.555993      0.781311      0.918643
      1.07312      0.55455      1.45259         0.927178      0.814887      0.205001
     -0.16612      3.06770      1.55817        -1.240874      0.444401     -0.136648
      3.92222      0.65465      1.56297         1.359284     -0.574803     -1.109737
      2.49200      3.12471      1.59964         0.357086     -0.006081      0.308783
      2.22759      0.66706      8.28594        -0.304100     -0.739922     -0.033283
      0.79194      3.01806      8.21723        -0.364398      0.239154      0.417895
      4.94458      0.55815      8.34020        -0.167923      0.290091     -0.059700
      3.52861      2.94460      8.36803        -0.278509      1.191705     -1.379466
      0.79137      1.33580      6.28005        -0.062069      0.619185      0.753358
     -0.78395      3.83617      6.21946         1.142640     -0.133048      1.873868
      3.59438      1.38041      6.34207        -0.698376      0.291385      0.017273
      2.07046      4.02658      6.29167         0.770811     -1.653435      0.397973
      0.64179      1.65254     12.97521        -0.045658      0.475113     -0.159721
     -0.77309      4.21426     13.04641         0.325123      0.329839      0.291431
      3.35074      1.75856     13.04011         0.291950     -1.126016     -0.222609
      2.02598      4.33083     13.17021        -0.517097     -1.067220     -1.013822
      0.58963      0.01771     11.03261         0.040288      0.229165      0.643760
     -0.75970      2.59623     11.09971        -0.869355     -0.319770     -0.004960
      3.35954      0.08330     10.92151         0.628084      0.076972      1.139466
      2.09145      2.62027     11.07011        -0.099533     -0.491104      0.407667
 -----------------------------------------------------------------------------------
    total drift:                                0.030631      0.013898      0.027234


--------------------------------------------------------------------------------------------------------



  FREE ENERGIE OF THE ION-ELECTRON SYSTEM (eV)
  ---------------------------------------------------
  free  energy   TOTEN  =      -233.71709050 eV

  energy  without entropy=     -233.71709050  energy(sigma->0) =     -233.71709050
 


--------------------------------------------------------------------------------------------------------


    POTLOK:  cpu time    0.0702: real time    0.0703


--------------------------------------------------------------------------------------------------------


     LOOP+:  cpu time 2352.4777: real time 2365.8673
    4ORBIT:  cpu time    0.0000: real time    0.0000
 


 total charge     
 
# of ion       s       p       d       tot
------------------------------------------
    1        0.082   0.163   0.000   0.245
    2        0.067   0.129   0.000   0.196
    3        0.101   0.212   0.000   0.313
    4        0.090   0.186   0.000   0.276
    5        0.098   0.206   0.000   0.303
    6        0.092   0.193   0.000   0.286
    7        0.492   0.810   7.285   8.587
    8        0.435   0.682   7.377   8.494
    9        0.433   0.665   7.384   8.483
   10        0.474   0.766   7.266   8.506
   11        0.418   0.644   7.344   8.407
   12        0.421   0.649   7.346   8.417
   13        0.465   0.746   7.223   8.434
   14        0.454   0.711   7.211   8.376
   15        0.448   0.707   7.186   8.341
   16        0.412   0.623   7.312   8.347
   17        0.424   0.655   7.362   8.441
   18        0.457   0.725   7.197   8.379
   19        1.563   3.479   0.000   5.042
   20        1.559   3.457   0.000   5.016
   21        1.573   3.431   0.000   5.004
   22        1.579   3.390   0.000   4.969
   23        1.561   3.434   0.000   4.994
   24        1.578   3.374   0.000   4.952
   25        1.563   3.469   0.000   5.033
   26        1.575   3.365   0.000   4.940
   27        1.577   3.385   0.000   4.962
   28        1.572   3.440   0.000   5.011
   29        1.565   3.442   0.000   5.007
   30        1.565   3.424   0.000   4.989
   31        1.578   3.369   0.000   4.947
   32        1.573   3.361   0.000   4.934
   33        1.567   3.441   0.000   5.008
   34        1.567   3.439   0.000   5.007
   35        1.567   3.427   0.000   4.995
   36        1.568   3.420   0.000   4.989
   37        1.572   3.394   0.000   4.967
   38        1.562   3.406   0.000   4.968
   39        1.577   3.366   0.000   4.943
   40        1.572   3.400   0.000   4.972
   41        1.564   3.413   0.000   4.978
   42        1.568   3.408   0.000   4.976
--------------------------------------------------
tot         43.528  91.407  87.495 222.431
 


 magnetization (x)
 
# of ion       s       p       d       tot
------------------------------------------
    1        0.001   0.000   0.000   0.001
    2        0.000  -0.001   0.000  -0.001
    3        0.000  -0.001   0.000  -0.000
    4       -0.001  -0.003   0.000  -0.004
    5        0.001   0.001   0.000   0.001
    6        0.001  -0.001   0.000  -0.000
    7        0.008   0.010   1.165   1.183
    8        0.003   0.005  -0.001   0.007
    9        0.004   0.006   0.004   0.014
   10        0.011   0.013   1.251   1.274
   11        0.004   0.005  -0.002   0.007
   12        0.004   0.005  -0.008   0.001
   13        0.012   0.014   1.334   1.360
   14        0.012   0.013   1.385   1.410
   15        0.012   0.015   1.362   1.389
   16        0.002   0.003  -0.010  -0.004
   17        0.005   0.006  -0.005   0.006
   18        0.012   0.016   1.371   1.399
   19        0.000  -0.051   0.000  -0.051
   20       -0.000  -0.041   0.000  -0.042
   21        0.001  -0.002   0.000  -0.001
   22        0.001  -0.078   0.000  -0.077
   23       -0.000  -0.049   0.000  -0.049
   24        0.000  -0.115   0.000  -0.114
   25        0.000  -0.051   0.000  -0.051
   26        0.000  -0.049   0.000  -0.048
   27        0.000  -0.148   0.000  -0.148
   28        0.000  -0.098   0.000  -0.097
   29       -0.000  -0.076   0.000  -0.076
   30        0.000  -0.052   0.000  -0.052
   31        0.001  -0.058   0.000  -0.057
   32        0.000  -0.067   0.000  -0.066
   33       -0.000  -0.093   0.000  -0.093
   34        0.001  -0.069   0.000  -0.068
   35       -0.000  -0.056   0.000  -0.056
   36       -0.000  -0.098   0.000  -0.098
   37        0.001  -0.096   0.000  -0.096
   38        0.000  -0.055   0.000  -0.055
   39        0.000  -0.121   0.000  -0.120
   40       -0.000  -0.107   0.000  -0.107
   41        0.000  -0.036   0.000  -0.036
   42       -0.000  -0.121   0.000  -0.121
--------------------------------------------------
tot          0.097  -1.680   7.846   6.262
 

 total amount of memory used by VASP MPI-rank0   160351. kBytes
=======================================================================

   base      :      30000. kBytes
   nonlr-proj:       4236. kBytes
   fftplans  :       1690. kBytes
   grid      :       4644. kBytes
   one-center:        342. kBytes
   wavefun   :     119439. kBytes
 
  
  
 General timing and accounting informations for this job:
 ========================================================
  
                  Total CPU time used (sec):     2379.301
                            User time (sec):     2166.799
                          System time (sec):      212.502
                         Elapsed time (sec):     2393.141
  
                   Maximum memory used (kb):      726500.
                   Average memory used (kb):           0.
  
                          Minor page faults:        71196
                          Major page faults:           70
                 Voluntary context switches:          649
