       N       E                     dE             d eps       ncg     rms          ort
DAV:   1     0.349042207390E+04    0.34904E+04   -0.13946E+05  5760   0.218E+03
DAV:   2     0.415332655756E+03   -0.30751E+04   -0.28318E+04  5760   0.532E+02
DAV:   3    -0.218379051085E+03   -0.63371E+03   -0.58144E+03  5760   0.255E+02
DAV:   4    -0.269243836751E+03   -0.50865E+02   -0.49803E+02  5760   0.740E+01
DAV:   5    -0.271009384277E+03   -0.17655E+01   -0.17621E+01  5760   0.138E+01
SDA:   6     0.871569913680E+02    0.35817E+03   -0.17621E+01  5760   0.416E+04 0.000E+00
CGA:   7     0.102300903207E+03    0.15144E+02   -0.11425E+03  5760   0.104E+05-0.208E+04
CGA:   8     0.154774889209E+04    0.14454E+04   -0.54876E+03  5760   0.188E+06-0.484E+05
CGA:   9     0.100955526086E+05    0.85478E+04   -0.14871E+05  5760   0.336E+05-0.112E+05
CGA:  10     0.587362795779E+04   -0.42219E+04   -0.43043E+04  5760   0.524E+05-0.419E+04
CGA:  11     0.490448410828E+04   -0.96914E+03   -0.34159E+04  5760   0.111E+06-0.226E+05
CGA:  12     0.404953091392E+04   -0.85495E+03   -0.49879E+04  5760   0.509E+05-0.597E+04
CGA:  13     0.204660671317E+04   -0.20029E+04   -0.41702E+04  5760   0.109E+05-0.493E+04
CGA:  14     0.172135063262E+04   -0.32526E+03   -0.45653E+03  5760   0.652E+04-0.122E+04
CGA:  15     0.126224336942E+04   -0.45911E+03   -0.54474E+03  5760   0.610E+04-0.192E+02
CGA:  16     0.863076634421E+03   -0.39917E+03   -0.48323E+03  5760   0.260E+04-0.801E+02
CGA:  17     0.673009659346E+03   -0.19007E+03   -0.21621E+03  5760   0.272E+04 0.743E+01
CGA:  18     0.532150659567E+03   -0.14086E+03   -0.17714E+03  5760   0.199E+04-0.147E+03
CGA:  19     0.295763699365E+03   -0.23639E+03   -0.23968E+03  5760   0.131E+04 0.117E+03
CGA:  20     0.181760867325E+03   -0.11400E+03   -0.97575E+02  5760   0.110E+04 0.483E+03
CGA:  21     0.786702902129E+02   -0.10309E+03   -0.89702E+02  5760   0.149E+04 0.293E+02
CGA:  22     0.522973977500E+02   -0.26373E+02   -0.62674E+02  5760   0.217E+04 0.125E+03
CGA:  23     0.171438971690E+03    0.11914E+03   -0.94770E+02  5760   0.399E+04-0.939E+03
CGA:  24     0.152384297415E+04    0.13524E+04   -0.54882E+02  5760   0.302E+05-0.386E+03
CGA:  25     0.710997112056E+04    0.55861E+04   -0.98525E+03  5760   0.612E+05-0.756E+04
CGA:  26     0.833947358450E+04    0.12295E+04   -0.24277E+04  5760   0.297E+05 0.734E+04
CGA:  27     0.648208337958E+04   -0.18574E+04   -0.17460E+04  5760   0.306E+05 0.612E+04
CGA:  28     0.726818230833E+04    0.78610E+03   -0.16887E+04  5760   0.397E+05 0.237E+05
CGA:  29     0.564460133025E+04   -0.16236E+04   -0.18619E+04  5760   0.669E+04 0.705E+03
CGA:  30     0.346157329071E+04   -0.21830E+04   -0.22414E+04  5760   0.445E+04 0.656E+03
CGA:  31     0.296889584647E+04   -0.49268E+03   -0.50147E+03  5760   0.404E+04 0.287E+03
CGA:  32     0.166031960179E+04   -0.13086E+04   -0.11753E+04  5760   0.116E+04 0.108E+04
CGA:  33     0.220813842375E+04    0.54782E+03   -0.83722E+03  5760   0.213E+05-0.102E+04
CGA:  34     0.922175139557E+03   -0.12860E+04   -0.14890E+04  5760   0.779E+03-0.417E+03
CGA:  35     0.676518741087E+03   -0.24566E+03   -0.23587E+03  5760   0.688E+03 0.991E+02
CGA:  36     0.514537909711E+03   -0.16198E+03   -0.16693E+03  5760   0.164E+04-0.869E+02
CGA:  37     0.442132944542E+03   -0.72405E+02   -0.53109E+02  5760   0.241E+04 0.100E+04
CGA:  38     0.291119365160E+03   -0.15101E+03   -0.15617E+03  5760   0.323E+03-0.268E+02
CGA:  39     0.178820854692E+03   -0.11230E+03   -0.14228E+03  5760   0.915E+03-0.145E+03
CGA:  40     0.121799490022E+03   -0.57021E+02   -0.39394E+02  5760   0.105E+04 0.170E+03
CGA:  41     0.141564919569E+02   -0.10764E+03   -0.76180E+02  5760   0.117E+04 0.326E+03
CGA:  42    -0.362027526103E+02   -0.50359E+02   -0.63211E+02  5760   0.109E+04-0.665E+03
CGA:  43    -0.715729931026E+02   -0.35370E+02   -0.30588E+02  5760   0.208E+03 0.139E+03
CGA:  44    -0.983670824000E+02   -0.26794E+02   -0.26729E+02  5760   0.402E+03-0.615E+00
CGA:  45    -0.113251126343E+03   -0.14884E+02   -0.15057E+02  5760   0.103E+03 0.182E+01
CGA:  46    -0.119498360673E+03   -0.62472E+01   -0.64028E+01  5760   0.186E+03-0.760E+00
CGA:  47    -0.135753348560E+03   -0.16255E+02   -0.16058E+02  5760   0.223E+03-0.190E+01
CGA:  48    -0.150481493619E+03   -0.14728E+02   -0.14790E+02  5760   0.400E+03 0.236E+01
CGA:  49    -0.169921847368E+03   -0.19440E+02   -0.19663E+02  5760   0.195E+03 0.132E+01
CGA:  50    -0.175696449634E+03   -0.57746E+01   -0.66147E+01  5760   0.668E+02-0.194E+02
CGA:  51    -0.181459073304E+03   -0.57626E+01   -0.57684E+01  5760   0.105E+03-0.685E+00
CGA:  52    -0.188124238651E+03   -0.66652E+01   -0.61936E+01  5760   0.757E+02 0.424E+01
CGA:  53    -0.194137916341E+03   -0.60137E+01   -0.56803E+01  5760   0.838E+02-0.159E+01
CGA:  54    -0.198182427565E+03   -0.40445E+01   -0.40847E+01  5760   0.520E+02-0.951E+00
CGA:  55    -0.200768128182E+03   -0.25857E+01   -0.25339E+01  5760   0.527E+02 0.119E+01
CGA:  56    -0.203812005088E+03   -0.30439E+01   -0.29769E+01  5760   0.460E+02 0.165E+01
CGA:  57    -0.205346069019E+03   -0.15341E+01   -0.12517E+01  5760   0.266E+02 0.116E+02
CGA:  58    -0.206688016604E+03   -0.13419E+01   -0.12635E+01  5760   0.356E+02 0.185E+01
CGA:  59    -0.208319716607E+03   -0.16317E+01   -0.16446E+01  5760   0.674E+02-0.150E+00
CGA:  60    -0.210450367995E+03   -0.21307E+01   -0.19773E+01  5760   0.599E+02 0.694E+01
CGA:  61    -0.211583256425E+03   -0.11329E+01   -0.97620E+00  5760   0.353E+02 0.139E+02
CGA:  62    -0.212498673665E+03   -0.91542E+00   -0.92341E+00  5760   0.427E+02 0.153E+01
CGA:  63    -0.213176636818E+03   -0.67796E+00   -0.64752E+00  5760   0.442E+02 0.117E+02
CGA:  64    -0.213752407290E+03   -0.57577E+00   -0.66012E+00  5760   0.290E+02 0.936E+01
CGA:  65    -0.214101446756E+03   -0.34904E+00   -0.44754E+00  5760   0.220E+02 0.210E+00
CGA:  66    -0.214387483837E+03   -0.28604E+00   -0.30883E+00  5760   0.261E+02 0.116E+01
CGA:  67    -0.214828840840E+03   -0.44136E+00   -0.49901E+00  5760   0.433E+02-0.739E+00
CGA:  68    -0.215342890529E+03   -0.51405E+00   -0.69645E+00  5760   0.544E+02-0.233E+01
CGA:  69    -0.215759585032E+03   -0.41669E+00   -0.51676E+00  5760   0.340E+02 0.381E+01
CGA:  70    -0.216054180907E+03   -0.29460E+00   -0.38489E+00  5760   0.200E+02-0.225E+01
CGA:  71    -0.216233279765E+03   -0.17910E+00   -0.22299E+00  5760   0.204E+02-0.133E+00
CGA:  72    -0.216477704103E+03   -0.24442E+00   -0.28887E+00  5760   0.248E+02-0.102E+00
SDA:  73    -0.216764795317E+03   -0.28709E+00   -0.33616E+00  5760   0.230E+02-0.127E+01
CGA:  74    -0.217429484650E+03   -0.66469E+00   -0.67535E+00  5760   0.761E+01-0.192E+00
CGA:  75    -0.218524601922E+03   -0.10951E+01   -0.11039E+01  5760   0.864E+01-0.112E+00
CGA:  76    -0.219147990803E+03   -0.62339E+00   -0.61666E+00  5760   0.104E+02 0.179E+00
CGA:  77    -0.219831673685E+03   -0.68368E+00   -0.68533E+00  5760   0.299E+01-0.453E-01
CGA:  78    -0.220141024279E+03   -0.30935E+00   -0.29919E+00  5760   0.532E+01 0.169E+00
CGA:  79    -0.220503716454E+03   -0.36269E+00   -0.36154E+00  5760   0.224E+01 0.116E+00
CGA:  80    -0.220730591448E+03   -0.22687E+00   -0.22944E+00  5760   0.362E+01-0.636E-01
CGA:  81    -0.220937183709E+03   -0.20659E+00   -0.20686E+00  5760   0.111E+01 0.280E-01
CGA:  82    -0.221111511414E+03   -0.17433E+00   -0.16746E+00  5760   0.229E+01 0.698E-01
CGA:  83    -0.221270251953E+03   -0.15874E+00   -0.15884E+00  5760   0.108E+01 0.960E-01
CGA:  84    -0.221419457413E+03   -0.14921E+00   -0.17701E+00  5760   0.264E+01-0.265E+00
CGA:  85    -0.221516038584E+03   -0.96581E-01   -0.10008E+00  5760   0.203E+01 0.561E-01
CGA:  86    -0.221683599577E+03   -0.16756E+00   -0.16378E+00  5760   0.160E+01 0.285E+00
CGA:  87    -0.221847900321E+03   -0.16430E+00   -0.16294E+00  5760   0.139E+01 0.128E+00
CGA:  88    -0.222010419562E+03   -0.16252E+00   -0.15547E+00  5760   0.159E+01 0.255E+00
CGA:  89    -0.222171636688E+03   -0.16122E+00   -0.15902E+00  5760   0.158E+01 0.300E+00
CGA:  90    -0.222282800041E+03   -0.11116E+00   -0.11499E+00  5760   0.158E+01 0.393E+00
CGA:  91    -0.222398649055E+03   -0.11585E+00   -0.12035E+00  5760   0.172E+01 0.443E+00
CGA:  92    -0.222513978105E+03   -0.11533E+00   -0.12083E+00  5760   0.226E+01-0.116E+01
CGA:  93    -0.222771886445E+03   -0.25791E+00   -0.21964E+00  5760   0.886E+00 0.101E+01
CGA:  94    -0.223099742749E+03   -0.32786E+00   -0.25504E+00  5760   0.636E+00 0.500E+00
CGA:  95    -0.223245453344E+03   -0.14571E+00   -0.14343E+00  5760   0.638E+00 0.170E-01
CGA:  96    -0.223595516285E+03   -0.35006E+00   -0.17699E-01  5760   0.595E+00-0.260E-02
CGA:  97    -0.223717480287E+03   -0.12196E+00   -0.11907E+00  5760   0.173E+00 0.461E-01
CGA:  98    -0.223766701306E+03   -0.49221E-01   -0.49702E-01  5760   0.152E+00-0.378E-02
CGA:  99    -0.223836800420E+03   -0.70099E-01   -0.65813E-01  5760   0.100E+00 0.157E-01
CGA: 100    -0.223870301285E+03   -0.33501E-01   -0.33320E-01  5760   0.792E-01 0.132E-02
CGA: 101    -0.223898414381E+03   -0.28113E-01   -0.28226E-01  5760   0.698E-01-0.662E-03
CGA: 102    -0.223918688744E+03   -0.20274E-01   -0.20264E-01  5760   0.347E-01 0.310E-04
CGA: 103    -0.223930061223E+03   -0.11372E-01   -0.11374E-01  5760   0.287E-01-0.342E-05
CGA: 104    -0.223939311473E+03   -0.92502E-02   -0.92664E-02  5760   0.210E-01-0.137E-03
CGA: 105    -0.223947489789E+03   -0.81783E-02   -0.81807E-02  5760   0.215E-01-0.743E-06
CGA: 106    -0.223954429742E+03   -0.69400E-02   -0.69552E-02  5760   0.139E-01-0.116E-03
CGA: 107    -0.223958889726E+03   -0.44600E-02   -0.44575E-02  5760   0.120E-01 0.256E-04
CGA: 108    -0.223962587003E+03   -0.36973E-02   -0.36956E-02  5760   0.970E-02 0.310E-04
CGA: 109    -0.223966512280E+03   -0.39253E-02   -0.39231E-02  5760   0.134E-01 0.805E-05
CGA: 110    -0.223973079829E+03   -0.65675E-02   -0.65722E-02  5760   0.239E-01-0.906E-05
CGA: 111    -0.223983100069E+03   -0.10020E-01   -0.10084E-01  5760   0.266E-01-0.321E-03
CGA: 112    -0.223993919365E+03   -0.10819E-01   -0.10860E-01  5760   0.230E-01-0.207E-03
CGA: 113    -0.224001490094E+03   -0.75707E-02   -0.75711E-02  5760   0.141E-01 0.347E-04
CGA: 114    -0.224005646296E+03   -0.41562E-02   -0.41562E-02  5760   0.996E-02 0.180E-04
CGA: 115    -0.224008862958E+03   -0.32167E-02   -0.32154E-02  5760   0.617E-02 0.241E-04
CGA: 116    -0.224011067982E+03   -0.22050E-02   -0.22025E-02  5760   0.498E-02 0.327E-04
CGA: 117    -0.224012774625E+03   -0.17066E-02   -0.17064E-02  5760   0.411E-02 0.532E-05
CGA: 118    -0.224014193439E+03   -0.14188E-02   -0.14188E-02  5760   0.314E-02 0.179E-05
CGA: 119    -0.224015193509E+03   -0.10001E-02   -0.99980E-03  5760   0.245E-02 0.777E-05
CGA: 120    -0.224015974787E+03   -0.78128E-03   -0.78149E-03  5760   0.185E-02-0.680E-05
CGA: 121    -0.224016565872E+03   -0.59108E-03   -0.59118E-03  5760   0.127E-02-0.302E-05
CGA: 122    -0.224017012816E+03   -0.44694E-03   -0.44676E-03  5760   0.119E-02 0.318E-05
CGA: 123    -0.224017455579E+03   -0.44276E-03   -0.44300E-03  5760   0.886E-03-0.293E-05
CGA: 124    -0.224017821869E+03   -0.36629E-03   -0.36617E-03  5760   0.908E-03 0.113E-05
SDA: 125    -0.224018178937E+03   -0.35707E-03   -0.35664E-03  5760   0.869E-03 0.480E-05
CGA: 126    -0.224018375241E+03   -0.19630E-03   -0.19607E-03  5760   0.581E-03-0.261E-05
CGA: 127    -0.224018624316E+03   -0.24908E-03   -0.24887E-03  5760   0.497E-03 0.160E-05
CGA: 128    -0.224018834024E+03   -0.20971E-03   -0.20962E-03  5760   0.660E-03 0.831E-06
CGA: 129    -0.224019031771E+03   -0.19775E-03   -0.19772E-03  5760   0.520E-03-0.166E-05
CGA: 130    -0.224019249009E+03   -0.21724E-03   -0.21720E-03  5760   0.565E-03 0.343E-06
CGA: 131    -0.224019490048E+03   -0.24104E-03   -0.24062E-03  5760   0.584E-03 0.404E-05
CGA: 132    -0.224019765726E+03   -0.27568E-03   -0.27587E-03  5760   0.589E-03-0.141E-05
CGA: 133    -0.224019971563E+03   -0.20584E-03   -0.20584E-03  5760   0.448E-03-0.126E-06
CGA: 134    -0.224020121767E+03   -0.15020E-03   -0.15020E-03  5760   0.349E-03 0.151E-05
CGA: 135    -0.224020236183E+03   -0.11442E-03   -0.11440E-03  5760   0.273E-03-0.214E-05
CGA: 136    -0.224020361929E+03   -0.12575E-03   -0.12585E-03  5760   0.258E-03-0.755E-06
CGA: 137    -0.224020456741E+03   -0.94812E-04   -0.94751E-04  5760   0.261E-03 0.215E-05
CGA: 138    -0.224020547581E+03   -0.90840E-04   -0.90841E-04  5760   0.223E-03-0.307E-06
CGA: 139    -0.224020617186E+03   -0.69605E-04   -0.69602E-04  5760   0.130E-03-0.139E-06
CGA: 140    -0.224020669020E+03   -0.51834E-04   -0.51729E-04  5760   0.859E-04 0.182E-05
CGA: 141    -0.224020697241E+03   -0.28221E-04   -0.28205E-04  5760   0.472E-04-0.816E-06
CGA: 142    -0.224020714157E+03   -0.16916E-04   -0.16919E-04  5760   0.319E-04-0.188E-06
CGA: 143    -0.224020723864E+03   -0.97067E-05   -0.97191E-05  5760   0.216E-04 0.332E-06
CGA: 144    -0.224020731537E+03   -0.76735E-05   -0.76801E-05  5760   0.207E-04-0.609E-06
CGA: 145    -0.224020738456E+03   -0.69183E-05   -0.69191E-05  5760   0.143E-04-0.567E-06
CGA: 146    -0.224020745167E+03   -0.67110E-05   -0.66929E-05  5760   0.168E-04 0.128E-06
CGA: 147    -0.224020751122E+03   -0.59552E-05   -0.59559E-05  5760   0.166E-04-0.303E-06
CGA: 148    -0.224020757798E+03   -0.66760E-05   -0.66822E-05  5760   0.146E-04-0.103E-06
CGA: 149    -0.224020763939E+03   -0.61413E-05   -0.61078E-05  5760   0.132E-04 0.483E-06
CGA: 150    -0.224020768929E+03   -0.49896E-05   -0.49888E-05  5760   0.103E-04 0.791E-07
CGA: 151    -0.224020773325E+03   -0.43965E-05   -0.43985E-05  5760   0.102E-04-0.293E-07
CGA: 152    -0.224020777183E+03   -0.38578E-05   -0.38531E-05  5760   0.912E-05 0.234E-06
CGA: 153    -0.224020780209E+03   -0.30256E-05   -0.30240E-05  5760   0.881E-05-0.472E-07
CGA: 154    -0.224020784248E+03   -0.40395E-05   -0.40672E-05  5760   0.792E-05-0.263E-06
CGA: 155    -0.224020786641E+03   -0.23924E-05   -0.24082E-05  5760   0.443E-05 0.313E-06
SDA: 156    -0.224020788602E+03   -0.19617E-05   -0.19666E-05  5760   0.344E-05-0.749E-07
CGA: 157    -0.224020789243E+03   -0.64025E-06   -0.64003E-06  5760   0.159E-05-0.150E-08
   1 F= -.23305725E+03 E0= -.23305725E+03  d E =-.280748E-11  mag=     6.0000
