       N       E                     dE             d eps       ncg     rms          ort
DAV:   1     0.357081314572E+04    0.35708E+04   -0.14064E+05  5760   0.227E+03
DAV:   2     0.407027290535E+03   -0.31638E+04   -0.29113E+04  5760   0.559E+02
DAV:   3    -0.220001728666E+03   -0.62703E+03   -0.56447E+03  5760   0.260E+02
DAV:   4    -0.269744388827E+03   -0.49743E+02   -0.48771E+02  5760   0.753E+01
DAV:   5    -0.271243428085E+03   -0.14990E+01   -0.14970E+01  5760   0.130E+01
SDA:   6     0.876925070850E+02    0.35894E+03   -0.14970E+01  5760   0.322E+04 0.000E+00
CGA:   7     0.121102709423E+02   -0.75582E+02   -0.11073E+03  5760   0.475E+04-0.267E+03
CGA:   8    -0.156330845121E+03   -0.16844E+03   -0.16301E+03  5760   0.507E+03 0.165E+04
CGA:   9    -0.186106142481E+03   -0.29775E+02   -0.38890E+02  5760   0.621E+03-0.123E+03
CGA:  10    -0.195345691300E+03   -0.92395E+01   -0.10341E+02  5760   0.176E+03-0.346E+02
CGA:  11    -0.197179002475E+03   -0.18333E+01   -0.61383E+01  5760   0.244E+03-0.791E+02
CGA:  12    -0.204107717393E+03   -0.69287E+01   -0.68650E+01  5760   0.187E+03 0.208E+01
CGA:  13    -0.207481861936E+03   -0.33741E+01   -0.80830E+01  5760   0.254E+03-0.126E+03
CGA:  14    -0.212418105553E+03   -0.49362E+01   -0.99334E+01  5760   0.113E+03-0.844E+02
CGA:  15    -0.215745221291E+03   -0.33271E+01   -0.29000E+01  5760   0.996E+01 0.948E+01
CGA:  16    -0.216300528021E+03   -0.55531E+00   -0.50093E+00  5760   0.973E+01 0.707E+00
CGA:  17    -0.216758521179E+03   -0.45799E+00   -0.52012E+00  5760   0.485E+01-0.404E+00
CGA:  18    -0.217051077703E+03   -0.29256E+00   -0.31992E+00  5760   0.804E+01-0.314E+00
CGA:  19    -0.217417517936E+03   -0.36644E+00   -0.36367E+00  5760   0.202E+01 0.111E+00
CGA:  20    -0.217574181821E+03   -0.15666E+00   -0.15341E+00  5760   0.314E+01-0.127E-01
CGA:  21    -0.217710574906E+03   -0.13639E+00   -0.14330E+00  5760   0.102E+01-0.483E-01
CGA:  22    -0.217776496505E+03   -0.65922E-01   -0.68269E-01  5760   0.154E+01-0.857E-02
CGA:  23    -0.217889140147E+03   -0.11264E+00   -0.11155E+00  5760   0.103E+01-0.198E-01
CGA:  24    -0.217933799814E+03   -0.44660E-01   -0.49128E-01  5760   0.530E+00-0.270E-01
CGA:  25    -0.217984783577E+03   -0.50984E-01   -0.51119E-01  5760   0.106E+01-0.732E-02
CGA:  26    -0.218048002873E+03   -0.63219E-01   -0.65506E-01  5760   0.687E+00-0.336E-01
CGA:  27    -0.218139964499E+03   -0.91962E-01   -0.91981E-01  5760   0.990E+00 0.299E-03
CGA:  28    -0.218184283362E+03   -0.44319E-01   -0.51057E-01  5760   0.680E+00-0.718E-01
CGA:  29    -0.218258876024E+03   -0.74593E-01   -0.74794E-01  5760   0.625E+00-0.780E-02
CGA:  30    -0.218320192195E+03   -0.61316E-01   -0.61704E-01  5760   0.474E+00 0.262E-01
CGA:  31    -0.218404139653E+03   -0.83947E-01   -0.80365E-01  5760   0.809E+00 0.388E-01
CGA:  32    -0.218484090384E+03   -0.79951E-01   -0.81261E-01  5760   0.489E+00 0.223E-01
CGA:  33    -0.218562443979E+03   -0.78354E-01   -0.77085E-01  5760   0.499E+00 0.208E-01
CGA:  34    -0.218683175732E+03   -0.12073E+00   -0.11718E+00  5760   0.638E+00 0.334E-01
CGA:  35    -0.218798876858E+03   -0.11570E+00   -0.11514E+00  5760   0.592E+00-0.647E-01
CGA:  36    -0.218889811467E+03   -0.90935E-01   -0.96817E-01  5760   0.617E+00-0.134E+00
CGA:  37    -0.218966737894E+03   -0.76926E-01   -0.81763E-01  5760   0.627E+00-0.111E+00
CGA:  38    -0.219033781679E+03   -0.67044E-01   -0.67441E-01  5760   0.457E+00-0.634E-01
CGA:  39    -0.219102304279E+03   -0.68523E-01   -0.67545E-01  5760   0.529E+00 0.301E-01
CGA:  40    -0.219174159084E+03   -0.71855E-01   -0.71812E-01  5760   0.405E+00 0.775E-01
CGA:  41    -0.219251894306E+03   -0.77735E-01   -0.75647E-01  5760   0.316E+00 0.558E-01
CGA:  42    -0.219319286519E+03   -0.67392E-01   -0.63996E-01  5760   0.239E+00 0.448E-01
CGA:  43    -0.219369363443E+03   -0.50077E-01   -0.49176E-01  5760   0.206E+00 0.115E-01
SDA:  44    -0.219410415131E+03   -0.41052E-01   -0.41143E-01  5760   0.160E+00-0.579E-02
CGA:  45    -0.219439800240E+03   -0.29385E-01   -0.29008E-01  5760   0.196E+00-0.320E-02
CGA:  46    -0.219466114860E+03   -0.26315E-01   -0.26369E-01  5760   0.147E+00 0.176E-01
CGA:  47    -0.219502184357E+03   -0.36069E-01   -0.36745E-01  5760   0.774E-01-0.729E-02
CGA:  48    -0.219520629727E+03   -0.18445E-01   -0.18728E-01  5760   0.986E-01 0.110E-03
CGA:  49    -0.219530247011E+03   -0.96173E-02   -0.10921E-01  5760   0.410E-01 0.939E-02
CGA:  50    -0.219537705366E+03   -0.74584E-02   -0.74848E-02  5760   0.361E-01-0.210E-02
CGA:  51    -0.219543485111E+03   -0.57797E-02   -0.58109E-02  5760   0.218E-01-0.478E-03
CGA:  52    -0.219547378489E+03   -0.38934E-02   -0.38557E-02  5760   0.154E-01 0.404E-03
CGA:  53    -0.219549799934E+03   -0.24214E-02   -0.24222E-02  5760   0.140E-01-0.354E-04
CGA:  54    -0.219552179517E+03   -0.23796E-02   -0.23667E-02  5760   0.131E-01-0.344E-03
CGA:  55    -0.219555267468E+03   -0.30880E-02   -0.30483E-02  5760   0.208E-01 0.131E-03
CGA:  56    -0.219558867041E+03   -0.35996E-02   -0.35816E-02  5760   0.144E-01 0.694E-03
CGA:  57    -0.219561976436E+03   -0.31094E-02   -0.30834E-02  5760   0.219E-01-0.832E-03
CGA:  58    -0.219564759945E+03   -0.27835E-02   -0.28350E-02  5760   0.163E-01 0.646E-03
CGA:  59    -0.219567703844E+03   -0.29439E-02   -0.29442E-02  5760   0.139E-01-0.777E-04
CGA:  60    -0.219569452250E+03   -0.17484E-02   -0.17997E-02  5760   0.130E-01-0.415E-03
CGA:  61    -0.219571418013E+03   -0.19658E-02   -0.19666E-02  5760   0.104E-01 0.297E-03
CGA:  62    -0.219573319059E+03   -0.19010E-02   -0.18911E-02  5760   0.160E-01-0.455E-03
CGA:  63    -0.219575823998E+03   -0.25049E-02   -0.24980E-02  5760   0.152E-01 0.517E-03
CGA:  64    -0.219577961382E+03   -0.21374E-02   -0.21398E-02  5760   0.141E-01-0.263E-03
CGA:  65    -0.219581358586E+03   -0.33972E-02   -0.33403E-02  5760   0.237E-01 0.160E-03
CGA:  66    -0.219584566855E+03   -0.32083E-02   -0.32206E-02  5760   0.184E-01-0.113E-03
CGA:  67    -0.219587534580E+03   -0.29677E-02   -0.29676E-02  5760   0.148E-01 0.917E-05
CGA:  68    -0.219590449718E+03   -0.29151E-02   -0.28996E-02  5760   0.234E-01-0.978E-04
CGA:  69    -0.219593578716E+03   -0.31290E-02   -0.31341E-02  5760   0.119E-01 0.206E-04
CGA:  70    -0.219595443991E+03   -0.18653E-02   -0.18664E-02  5760   0.130E-01 0.146E-03
CGA:  71    -0.219597384032E+03   -0.19400E-02   -0.19458E-02  5760   0.937E-02-0.308E-04
CGA:  72    -0.219598614186E+03   -0.12302E-02   -0.12452E-02  5760   0.827E-02-0.106E-03
CGA:  73    -0.219599906995E+03   -0.12928E-02   -0.12932E-02  5760   0.636E-02 0.604E-03
CGA:  74    -0.219600725886E+03   -0.81889E-03   -0.84739E-03  5760   0.618E-02-0.552E-03
SDA:  75    -0.219601600923E+03   -0.87504E-03   -0.87515E-03  5760   0.507E-02 0.424E-04
CGA:  76    -0.219602199894E+03   -0.59897E-03   -0.60973E-03  5760   0.237E-02-0.150E-03
CGA:  77    -0.219602632624E+03   -0.43273E-03   -0.42154E-03  5760   0.285E-02 0.372E-04
CGA:  78    -0.219603270343E+03   -0.63772E-03   -0.62352E-03  5760   0.219E-02 0.127E-03
CGA:  79    -0.219603877996E+03   -0.60765E-03   -0.61002E-03  5760   0.305E-02-0.381E-04
CGA:  80    -0.219604509500E+03   -0.63150E-03   -0.63207E-03  5760   0.261E-02-0.308E-04
CGA:  81    -0.219605434896E+03   -0.92540E-03   -0.91541E-03  5760   0.289E-02 0.484E-04
CGA:  82    -0.219605928866E+03   -0.49397E-03   -0.49587E-03  5760   0.268E-02-0.114E-03
CGA:  83    -0.219606341968E+03   -0.41310E-03   -0.41845E-03  5760   0.237E-02 0.841E-04
CGA:  84    -0.219606890635E+03   -0.54867E-03   -0.54224E-03  5760   0.131E-02 0.105E-03
CGA:  85    -0.219607224652E+03   -0.33402E-03   -0.33147E-03  5760   0.156E-02-0.134E-04
CGA:  86    -0.219607508465E+03   -0.28381E-03   -0.28334E-03  5760   0.141E-02 0.263E-04
CGA:  87    -0.219607772697E+03   -0.26423E-03   -0.26403E-03  5760   0.127E-02 0.120E-04
CGA:  88    -0.219607982369E+03   -0.20967E-03   -0.21112E-03  5760   0.107E-02 0.470E-05
CGA:  89    -0.219608229695E+03   -0.24733E-03   -0.24838E-03  5760   0.120E-02-0.152E-04
CGA:  90    -0.219608566845E+03   -0.33715E-03   -0.33664E-03  5760   0.739E-03-0.908E-05
CGA:  91    -0.219608772394E+03   -0.20555E-03   -0.20615E-03  5760   0.123E-02-0.939E-06
CGA:  92    -0.219608981197E+03   -0.20880E-03   -0.21080E-03  5760   0.640E-03 0.534E-04
CGA:  93    -0.219609123700E+03   -0.14250E-03   -0.14179E-03  5760   0.648E-03-0.248E-04
CGA:  94    -0.219609247695E+03   -0.12400E-03   -0.12391E-03  5760   0.785E-03 0.720E-05
CGA:  95    -0.219609346222E+03   -0.98527E-04   -0.10727E-03  5760   0.390E-03 0.389E-04
CGA:  96    -0.219609475680E+03   -0.12946E-03   -0.13073E-03  5760   0.755E-03-0.361E-04
CGA:  97    -0.219609573219E+03   -0.97539E-04   -0.98004E-04  5760   0.510E-03 0.461E-05
CGA:  98    -0.219609683950E+03   -0.11073E-03   -0.10987E-03  5760   0.621E-03 0.124E-04
CGA:  99    -0.219609776843E+03   -0.92893E-04   -0.92505E-04  5760   0.436E-03-0.105E-04
CGA: 100    -0.219609902904E+03   -0.12606E-03   -0.12647E-03  5760   0.504E-03-0.347E-05
CGA: 101    -0.219609988706E+03   -0.85802E-04   -0.85926E-04  5760   0.435E-03-0.225E-05
CGA: 102    -0.219610060429E+03   -0.71723E-04   -0.71884E-04  5760   0.379E-03-0.777E-05
CGA: 103    -0.219610140596E+03   -0.80167E-04   -0.80054E-04  5760   0.440E-03-0.424E-05
CGA: 104    -0.219610202766E+03   -0.62170E-04   -0.64288E-04  5760   0.304E-03 0.790E-05
CGA: 105    -0.219610270158E+03   -0.67392E-04   -0.67493E-04  5760   0.253E-03-0.932E-05
SDA: 106    -0.219610306200E+03   -0.36042E-04   -0.36463E-04  5760   0.249E-03-0.472E-05
CGA: 107    -0.219610328600E+03   -0.22400E-04   -0.25466E-04  5760   0.123E-03-0.211E-04
CGA: 108    -0.219610348888E+03   -0.20288E-04   -0.20363E-04  5760   0.884E-04 0.347E-05
CGA: 109    -0.219610367862E+03   -0.18974E-04   -0.18898E-04  5760   0.101E-03 0.500E-06
CGA: 110    -0.219610390252E+03   -0.22390E-04   -0.22404E-04  5760   0.628E-04 0.104E-07
CGA: 111    -0.219610403971E+03   -0.13719E-04   -0.13640E-04  5760   0.566E-04 0.600E-06
CGA: 112    -0.219610418257E+03   -0.14285E-04   -0.14129E-04  5760   0.894E-04-0.951E-06
CGA: 113    -0.219610429619E+03   -0.11362E-04   -0.12199E-04  5760   0.522E-04-0.825E-07
CGA: 114    -0.219610443699E+03   -0.14081E-04   -0.14189E-04  5760   0.470E-04-0.125E-05
CGA: 115    -0.219610458567E+03   -0.14868E-04   -0.14767E-04  5760   0.831E-04 0.836E-06
CGA: 116    -0.219610468184E+03   -0.96172E-05   -0.10631E-04  5760   0.526E-04-0.474E-05
CGA: 117    -0.219610477224E+03   -0.90401E-05   -0.90306E-05  5760   0.337E-04-0.119E-05
CGA: 118    -0.219610488237E+03   -0.11013E-04   -0.11039E-04  5760   0.479E-04-0.727E-07
CGA: 119    -0.219610493551E+03   -0.53142E-05   -0.56451E-05  5760   0.311E-04-0.211E-05
CGA: 120    -0.219610500188E+03   -0.66368E-05   -0.66005E-05  5760   0.375E-04 0.614E-06
CGA: 121    -0.219610506475E+03   -0.62872E-05   -0.64034E-05  5760   0.243E-04 0.710E-06
CGA: 122    -0.219610511892E+03   -0.54172E-05   -0.54277E-05  5760   0.317E-04-0.192E-05
CGA: 123    -0.219610515729E+03   -0.38362E-05   -0.40514E-05  5760   0.272E-04-0.925E-06
CGA: 124    -0.219610519878E+03   -0.41493E-05   -0.42682E-05  5760   0.152E-04 0.247E-05
CGA: 125    -0.219610522702E+03   -0.28238E-05   -0.28492E-05  5760   0.220E-04-0.118E-05
CGA: 126    -0.219610525096E+03   -0.23943E-05   -0.25263E-05  5760   0.134E-04 0.228E-06
CGA: 127    -0.219610527641E+03   -0.25453E-05   -0.25445E-05  5760   0.207E-04-0.135E-05
CGA: 128    -0.219610529389E+03   -0.17480E-05   -0.18329E-05  5760   0.110E-04-0.379E-06
CGA: 129    -0.219610531107E+03   -0.17175E-05   -0.17235E-05  5760   0.172E-04 0.271E-06
CGA: 130    -0.219610532808E+03   -0.17010E-05   -0.19099E-05  5760   0.122E-04-0.376E-06
CGA: 131    -0.219610534494E+03   -0.16867E-05   -0.16496E-05  5760   0.146E-04-0.162E-05
CGA: 132    -0.219610535927E+03   -0.14331E-05   -0.13969E-05  5760   0.129E-04-0.112E-05
CGA: 133    -0.219610537460E+03   -0.15325E-05   -0.15416E-05  5760   0.147E-04 0.385E-06
CGA: 134    -0.219610538662E+03   -0.12024E-05   -0.14009E-05  5760   0.950E-05-0.718E-06
CGA: 135    -0.219610539547E+03   -0.88447E-06   -0.91822E-06  5760   0.789E-05 0.217E-06
   1 F= -.23073429E+03 E0= -.23073100E+03  d E =-.657218E-02  mag=     6.0000
