 running on   64 total cores
 distrk:  each k-point on   64 cores,    1 groups
 distr:  one band on    4 cores,   16 groups
 using from now: INCAR     
 vasp.5.4.4.18Apr17-6-g9f103f2a35 (build Nov 22 2021 14:44:17) complex          
  
 POSCAR found type information on POSCAR  Li Co O 
 POSCAR found :  3 types and      42 ions
 scaLAPACK will be used
 LDA part: xc-table for Pade appr. of Perdew
 generate k-points for:    6    6    2
 POSCAR, INCAR and KPOINTS ok, starting setup
 FFT: planning ...
 WAVECAR not read
 entering main loop
       N       E                     dE             d eps       ncg     rms          ort
DAV:   1     0.345463548167E+04    0.34546E+04   -0.13885E+05  5760   0.216E+03
DAV:   2     0.402824979063E+03   -0.30518E+04   -0.28125E+04  5760   0.525E+02
DAV:   3    -0.221403175496E+03   -0.62423E+03   -0.57203E+03  5760   0.251E+02
DAV:   4    -0.270976818345E+03   -0.49574E+02   -0.48484E+02  5760   0.730E+01
DAV:   5    -0.272798177937E+03   -0.18214E+01   -0.18178E+01  5760   0.139E+01
 gam= 0.000 g(H,U,f)=  0.199E+04 0.395E+04 0.647E+03 ort(H,U,f) = 0.000E+00 0.000E+00 0.000E+00
SDA:   6     0.188003818118E+03    0.46080E+03   -0.18178E+01  5760   0.659E+04 0.000E+00
 gam= 0.000 trial= 0.400  step= 0.089 mean= 0.400
 gam= 0.000 g(H,U,f)=  0.191E+04 0.253E+05 0.283E+05 ort(H,U,f) = 0.291E+03-0.894E+04-0.102E+05
CGA:   7     0.387598200548E+03    0.19959E+03   -0.29362E+03  5760   0.555E+05-0.189E+05
 gam= 0.000 trial= 0.384  step= 0.126 mean= 0.384
 gam= 0.293 g(H,U,f)=  0.755E+04 0.868E+04 0.253E+02 ort(H,U,f) =-0.325E+04-0.127E+04-0.125E+02
CGA:   8     0.396644270642E+04    0.35788E+04   -0.35027E+04  5760   0.163E+05-0.453E+04
 gam= 0.293 trial= 0.372  step= 0.075 mean= 0.372
 gam= 0.000 g(H,U,f)=  0.110E+05 0.726E+04 0.304E+02 ort(H,U,f) =-0.644E+04-0.360E+04-0.170E+02
CGA:   9     0.346700862139E+04   -0.49943E+03   -0.56296E+03  5760   0.183E+05-0.101E+05
 gam= 0.000 trial= 0.357  step= 0.068 mean= 0.357
 gam= 0.000 g(H,U,f)=  0.129E+05 0.225E+05 0.126E+05 ort(H,U,f) =-0.714E+04-0.380E+05-0.296E+05
CGA:  10     0.232440610471E+04   -0.11426E+04   -0.61912E+03  5760   0.480E+05-0.747E+05
 gam= 0.000 trial= 0.342  step= 0.099 mean= 0.342
 gam= 0.000 g(H,U,f)=  0.259E+05 0.289E+05 0.204E+05 ort(H,U,f) =-0.883E+04-0.195E+05-0.156E+05
CGA:  11     0.483869323644E+04    0.25143E+04   -0.23824E+04  5760   0.752E+05-0.440E+05
 gam= 0.000 trial= 0.330  step= 0.129 mean= 0.330
 gam= 0.876 g(H,U,f)=  0.258E+05 0.325E+05 0.746E+04 ort(H,U,f) =-0.101E+05-0.214E+05-0.395E+04
CGA:  12     0.350486190524E+04   -0.13338E+04   -0.48628E+04  5760   0.658E+05-0.354E+05
 gam= 0.876 trial= 0.320  step= 0.120 mean= 0.320
 gam= 1.239 g(H,U,f)=  0.247E+05 0.504E+05 0.645E+04 ort(H,U,f) = 0.365E+04-0.226E+05-0.492E+04
CGA:  13     0.350216343017E+04   -0.26985E+01   -0.20858E+04  5760   0.816E+05-0.238E+05
 gam= 1.239 trial= 0.310  step= 0.108 mean= 0.310
 gam= 0.176 g(H,U,f)=  0.455E+04 0.913E+04 0.637E+03 ort(H,U,f) = 0.648E+02 0.180E+05 0.143E+04
CGA:  14     0.811697632314E+03   -0.26905E+04   -0.28025E+04  5760   0.143E+05 0.195E+05
 gam= 0.176 trial= 0.300  step= 0.054 mean= 0.300
 gam= 0.000 g(H,U,f)=  0.333E+04 0.671E+04 0.220E+03 ort(H,U,f) =-0.210E+04-0.113E+05-0.558E+03
CGA:  15     0.534250549315E+03   -0.27745E+03   -0.48113E+03  5760   0.103E+05-0.139E+05
 gam= 0.000 trial= 0.288  step= 0.075 mean= 0.288
 gam= 0.000 g(H,U,f)=  0.154E+04 0.532E+04 0.570E+03 ort(H,U,f) =-0.897E+03-0.510E+04-0.639E+03
CGA:  16     0.387322768405E+03   -0.14693E+03   -0.38596E+03  5760   0.743E+04-0.663E+04
 gam= 0.000 trial= 0.277  step= 0.041 mean= 0.277
 gam= 0.106 g(H,U,f)=  0.489E+03 0.301E+03 0.142E+01 ort(H,U,f) = 0.274E+03 0.240E+03 0.462E+00
CGA:  17     0.229526505837E+03   -0.15780E+03   -0.15314E+03  5760   0.791E+03 0.515E+03
 gam= 0.106 trial= 0.265  step= 0.207 mean= 0.265
 gam= 2.639 g(H,U,f)=  0.575E+03 0.146E+04 0.534E+02 ort(H,U,f) = 0.282E+03-0.282E+03-0.168E+02
CGA:  18     0.138743688860E+03   -0.90783E+02   -0.87622E+02  5760   0.209E+04-0.171E+02
 gam= 2.639 trial= 0.262  step= 0.106 mean= 0.262
 gam= 0.609 g(H,U,f)=  0.355E+03 0.874E+03 0.418E+02 ort(H,U,f) = 0.721E+02-0.332E+03-0.233E+02
CGA:  19     0.642349521134E+02   -0.74509E+02   -0.10819E+03  5760   0.127E+04-0.283E+03
 gam= 0.609 trial= 0.255  step= 0.124 mean= 0.255
 gam= 0.750 g(H,U,f)=  0.352E+03 0.585E+03 0.169E+02 ort(H,U,f) = 0.699E+02-0.290E+02-0.112E+02
CGA:  20     0.513556794436E+01   -0.59099E+02   -0.68131E+02  5760   0.953E+03 0.297E+02
 gam= 0.750 trial= 0.248  step= 0.193 mean= 0.248
 gam= 0.561 g(H,U,f)=  0.198E+03 0.324E+03 0.130E+02 ort(H,U,f) =-0.474E+02 0.109E+03-0.474E+01
CGA:  21    -0.852823077592E+02   -0.90418E+02   -0.94090E+02  5760   0.535E+03 0.571E+02
 gam= 0.561 trial= 0.245  step= 0.189 mean= 0.245
 gam= 0.302 g(H,U,f)=  0.910E+02 0.682E+02 0.237E+01 ort(H,U,f) =-0.387E+02 0.427E+02-0.169E+01
CGA:  22    -0.138073467787E+03   -0.52791E+02   -0.53570E+02  5760   0.162E+03 0.231E+01
 gam= 0.302 trial= 0.242  step= 0.205 mean= 0.242
 gam= 1.263 g(H,U,f)=  0.684E+02 0.127E+03 0.846E+01 ort(H,U,f) = 0.317E+02-0.273E+02-0.171E+01
CGA:  23    -0.154535221435E+03   -0.16462E+02   -0.16628E+02  5760   0.204E+03 0.267E+01
 gam= 1.263 trial= 0.241  step= 0.207 mean= 0.241
 gam= 0.917 g(H,U,f)=  0.556E+02 0.125E+03 0.671E+01 ort(H,U,f) = 0.345E+02-0.297E+02-0.924E+00
CGA:  24    -0.175841332525E+03   -0.21306E+02   -0.21480E+02  5760   0.187E+03 0.384E+01
 gam= 0.917 trial= 0.239  step= 0.128 mean= 0.239
 gam= 0.485 g(H,U,f)=  0.280E+02 0.608E+02 0.199E+01 ort(H,U,f) = 0.178E+02-0.266E+02-0.183E+01
CGA:  25    -0.186670899515E+03   -0.10830E+02   -0.12221E+02  5760   0.908E+02-0.107E+02
 gam= 0.485 trial= 0.233  step= 0.185 mean= 0.233
 gam= 0.362 g(H,U,f)=  0.164E+02 0.158E+02 0.592E+00 ort(H,U,f) =-0.213E+01-0.360E+00-0.104E+00
CGA:  26    -0.194531785058E+03   -0.78609E+01   -0.78962E+01  5760   0.329E+02-0.259E+01
 gam= 0.362 trial= 0.231  step= 0.294 mean= 0.231
 gam= 1.470 g(H,U,f)=  0.143E+02 0.312E+02 0.289E+01 ort(H,U,f) = 0.119E+01-0.122E+01-0.111E+01
CGA:  27    -0.199232922805E+03   -0.47011E+01   -0.46976E+01  5760   0.483E+02-0.114E+01
 gam= 1.470 trial= 0.234  step= 0.210 mean= 0.234
 gam= 0.895 g(H,U,f)=  0.151E+02 0.267E+02 0.144E+01 ort(H,U,f) =-0.469E+01 0.399E+01-0.460E+00
CGA:  28    -0.204120190344E+03   -0.48873E+01   -0.48877E+01  5760   0.432E+02-0.116E+01
 gam= 0.895 trial= 0.233  step= 0.174 mean= 0.233
 gam= 0.535 g(H,U,f)=  0.102E+02 0.121E+02 0.839E+00 ort(H,U,f) =-0.904E+01 0.561E+01 0.448E+00
CGA:  29    -0.208085491591E+03   -0.39653E+01   -0.36708E+01  5760   0.231E+02-0.298E+01
 gam= 0.535 trial= 0.230  step= 0.245 mean= 0.230
 gam= 0.927 g(H,U,f)=  0.106E+02 0.103E+02 0.575E+00 ort(H,U,f) =-0.363E+01 0.171E+01 0.405E+00
CGA:  30    -0.210711083027E+03   -0.26256E+01   -0.26430E+01  5760   0.214E+02-0.151E+01
 gam= 0.927 trial= 0.231  step= 0.258 mean= 0.231
 gam= 0.946 g(H,U,f)=  0.852E+01 0.104E+02 0.141E+01 ort(H,U,f) =-0.137E+01-0.754E+00 0.390E+00
CGA:  31    -0.213246551658E+03   -0.25355E+01   -0.25863E+01  5760   0.203E+02-0.173E+01
 gam= 0.946 trial= 0.232  step= 0.127 mean= 0.232
 gam= 0.681 g(H,U,f)=  0.607E+01 0.712E+01 0.624E+00 ort(H,U,f) = 0.163E+01-0.844E+00-0.366E+00
CGA:  32    -0.214439781168E+03   -0.11932E+01   -0.11870E+01  5760   0.138E+02 0.424E+00
 gam= 0.681 trial= 0.227  step= 0.166 mean= 0.227
 gam= 0.496 g(H,U,f)=  0.374E+01 0.293E+01 0.190E+00 ort(H,U,f) = 0.105E+01-0.800E+00 0.258E+00
CGA:  33    -0.215618056905E+03   -0.11783E+01   -0.11704E+01  5760   0.686E+01 0.509E+00
 gam= 0.496 trial= 0.224  step= 0.202 mean= 0.224
 gam= 0.898 g(H,U,f)=  0.297E+01 0.310E+01 0.935E-01 ort(H,U,f) = 0.122E+01-0.839E+00-0.111E+00
CGA:  34    -0.216334002464E+03   -0.71595E+00   -0.71913E+00  5760   0.616E+01 0.274E+00
 gam= 0.898 trial= 0.223  step= 0.217 mean= 0.223
 gam= 1.054 g(H,U,f)=  0.220E+01 0.406E+01 0.237E+00 ort(H,U,f) = 0.580E+00-0.315E+00 0.350E-01
CGA:  35    -0.217030620165E+03   -0.69662E+00   -0.69669E+00  5760   0.649E+01 0.300E+00
 gam= 1.054 trial= 0.222  step= 0.148 mean= 0.222
 gam= 0.810 g(H,U,f)=  0.157E+01 0.337E+01 0.316E+00 ort(H,U,f) =-0.618E+00 0.107E+01 0.755E-02
CGA:  36    -0.217513782978E+03   -0.48316E+00   -0.50295E+00  5760   0.526E+01 0.461E+00
 gam= 0.810 trial= 0.219  step= 0.113 mean= 0.219
 gam= 0.795 g(H,U,f)=  0.142E+01 0.256E+01 0.195E+00 ort(H,U,f) =-0.794E+00 0.123E+01-0.182E+00
CGA:  37    -0.217821741155E+03   -0.30796E+00   -0.31949E+00  5760   0.418E+01 0.255E+00
 gam= 0.795 trial= 0.213  step= 0.159 mean= 0.213
 gam= 0.833 g(H,U,f)=  0.157E+01 0.187E+01 0.347E-01 ort(H,U,f) =-0.103E+01 0.128E+01 0.529E-01
CGA:  38    -0.218161233252E+03   -0.33949E+00   -0.34809E+00  5760   0.348E+01 0.307E+00
 gam= 0.833 trial= 0.211  step= 0.216 mean= 0.211
 gam= 1.141 g(H,U,f)=  0.176E+01 0.216E+01 0.537E-01 ort(H,U,f) =-0.716E+00 0.996E+00 0.335E-01
CGA:  39    -0.218565115088E+03   -0.40388E+00   -0.40316E+00  5760   0.397E+01 0.313E+00
 gam= 1.141 trial= 0.211  step= 0.167 mean= 0.211
 gam= 1.056 g(H,U,f)=  0.151E+01 0.246E+01 0.223E+00 ort(H,U,f) =-0.529E+00 0.813E+00-0.526E-01
CGA:  40    -0.218923136228E+03   -0.35802E+00   -0.36209E+00  5760   0.419E+01 0.232E+00
 gam= 1.056 trial= 0.209  step= 0.108 mean= 0.209
 gam= 0.611 g(H,U,f)=  0.113E+01 0.139E+01 0.419E-01 ort(H,U,f) =-0.373E+00 0.612E+00 0.780E-01
CGA:  41    -0.219161369103E+03   -0.23823E+00   -0.24024E+00  5760   0.256E+01 0.316E+00
 gam= 0.611 trial= 0.204  step= 0.137 mean= 0.204
 gam= 1.051 g(H,U,f)=  0.922E+00 0.163E+01 0.140E+00 ort(H,U,f) = 0.597E-02 0.131E+00 0.228E-01
CGA:  42    -0.219346802726E+03   -0.18543E+00   -0.18924E+00  5760   0.269E+01 0.160E+00
 gam= 1.051 trial= 0.200  step= 0.139 mean= 0.200
 gam= 1.092 g(H,U,f)=  0.944E+00 0.188E+01 0.112E+00 ort(H,U,f) =-0.863E-01 0.155E+00 0.102E+00
CGA:  43    -0.219538137718E+03   -0.19133E+00   -0.19920E+00  5760   0.294E+01 0.171E+00
 gam= 1.092 trial= 0.197  step= 0.166 mean= 0.197
 gam= 0.956 g(H,U,f)=  0.943E+00 0.175E+01 0.118E+00 ort(H,U,f) =-0.409E+00 0.385E+00 0.261E+00
CGA:  44    -0.219791859595E+03   -0.25372E+00   -0.25865E+00  5760   0.281E+01 0.237E+00
 gam= 0.956 trial= 0.196  step= 0.146 mean= 0.196
 gam= 0.817 g(H,U,f)=  0.862E+00 0.140E+01 0.307E-01 ort(H,U,f) =-0.455E+00 0.617E+00-0.878E-02
CGA:  45    -0.220006165890E+03   -0.21431E+00   -0.22237E+00  5760   0.230E+01 0.153E+00
 gam= 0.817 trial= 0.193  step= 0.159 mean= 0.193
 gam= 0.898 g(H,U,f)=  0.763E+00 0.128E+01 0.181E-01 ort(H,U,f) =-0.409E+00 0.496E+00-0.924E-03
CGA:  46    -0.220197502966E+03   -0.19134E+00   -0.19291E+00  5760   0.206E+01 0.860E-01
 gam= 0.898 trial= 0.192  step= 0.174 mean= 0.192
 gam= 0.000 g(H,U,f)=  0.841E+00 0.154E+01 0.384E-01 ort(H,U,f) =-0.403E+00 0.450E+00 0.142E-01
SDA:  47    -0.220382811563E+03   -0.18531E+00   -0.18575E+00  5760   0.242E+01 0.618E-01
 gam= 0.000 trial= 0.191  step= 0.410 mean= 0.191
 gam= 0.995 g(H,U,f)=  0.689E+00 0.147E+01 0.244E+00 ort(H,U,f) = 0.200E-01 0.218E+00-0.771E-01
CGA:  48    -0.220892370753E+03   -0.50956E+00   -0.49523E+00  5760   0.240E+01 0.161E+00
 gam= 0.995 trial= 0.202  step= 0.388 mean= 0.202
 gam= 3.508 g(H,U,f)=  0.854E+00 0.398E+01 0.359E+01 ort(H,U,f) =-0.292E+00 0.735E-01-0.863E+00
CGA:  49    -0.221290745591E+03   -0.39837E+00   -0.49799E+00  5760   0.843E+01-0.108E+01
 gam= 3.508 trial= 0.211  step= 0.104 mean= 0.211
 gam= 0.944 g(H,U,f)=  0.118E+01 0.316E+01 0.362E+01 ort(H,U,f) =-0.233E+01 0.198E+01 0.446E+00
CGA:  50    -0.221539385966E+03   -0.24864E+00   -0.24066E+00  5760   0.796E+01 0.951E-01
 gam= 0.944 trial= 0.206  step= 0.070 mean= 0.206
 gam= 0.217 g(H,U,f)=  0.975E+00 0.614E+00 0.137E+00 ort(H,U,f) =-0.237E+01 0.536E+00-0.433E+00
CGA:  51    -0.221727891050E+03   -0.18851E+00   -0.28230E+00  5760   0.173E+01-0.227E+01
 gam= 0.217 trial= 0.199  step= 0.219 mean= 0.199
 gam= 1.050 g(H,U,f)=  0.651E+00 0.449E+00 0.710E+00 ort(H,U,f) = 0.126E+00 0.243E+00-0.127E+00
CGA:  52    -0.221865612589E+03   -0.13772E+00   -0.13507E+00  5760   0.181E+01 0.242E+00
 gam= 1.050 trial= 0.200  step= 0.129 mean= 0.200
 gam= 0.461 g(H,U,f)=  0.442E+00 0.284E+00 0.108E+00 ort(H,U,f) = 0.307E+00-0.261E-01-0.209E+00
CGA:  53    -0.221998439850E+03   -0.13283E+00   -0.13285E+00  5760   0.834E+00 0.717E-01
 gam= 0.461 trial= 0.196  step= 0.462 mean= 0.196
 gam= 0.767 g(H,U,f)=  0.223E+00 0.311E+00 0.106E+00 ort(H,U,f) =-0.682E-01 0.567E-01 0.697E-02
CGA:  54    -0.222198285440E+03   -0.19985E+00   -0.20040E+00  5760   0.640E+00-0.459E-02
 gam= 0.767 trial= 0.210  step= 0.188 mean= 0.210
 gam= 0.935 g(H,U,f)=  0.191E+00 0.215E+00 0.192E+00 ort(H,U,f) =-0.402E-01 0.196E+00-0.124E+00
CGA:  55    -0.222257616078E+03   -0.59331E-01   -0.59908E-01  5760   0.598E+00 0.319E-01
 gam= 0.935 trial= 0.209  step= 0.192 mean= 0.209
 gam= 0.668 g(H,U,f)=  0.152E+00 0.214E+00 0.326E-01 ort(H,U,f) =-0.100E+00 0.130E+00-0.519E-01
CGA:  56    -0.222317635230E+03   -0.60019E-01   -0.60103E-01  5760   0.399E+00-0.216E-01
 gam= 0.668 trial= 0.208  step= 0.703 mean= 0.208
 gam= 0.000 g(H,U,f)=  0.409E+00 0.595E+00 0.167E+01 ort(H,U,f) =-0.225E+00-0.615E-01-0.184E+00
CGA:  57    -0.222395674163E+03   -0.78039E-01   -0.13523E+00  5760   0.267E+01-0.470E+00
 gam= 0.000 trial= 0.233  step= 0.127 mean= 0.233
 gam= 0.220 g(H,U,f)=  0.205E+00 0.269E+00 0.114E+00 ort(H,U,f) = 0.119E+00-0.786E-01-0.265E+00
CGA:  58    -0.222493783202E+03   -0.98109E-01   -0.17040E+00  5760   0.589E+00-0.224E+00
 gam= 0.220 trial= 0.227  step= 0.264 mean= 0.227
 gam= 0.725 g(H,U,f)=  0.729E-01 0.127E+00 0.227E+00 ort(H,U,f) = 0.391E-01-0.107E-01-0.973E-01
CGA:  59    -0.222563030703E+03   -0.69248E-01   -0.71235E-01  5760   0.427E+00-0.688E-01
 gam= 0.725 trial= 0.229  step= 0.272 mean= 0.229
 gam= 0.339 g(H,U,f)=  0.454E-01 0.856E-01 0.137E-01 ort(H,U,f) = 0.152E-02 0.919E-01 0.214E-01
CGA:  60    -0.222618050498E+03   -0.55020E-01   -0.51261E-01  5760   0.145E+00 0.115E+00
 gam= 0.339 trial= 0.231  step= 0.591 mean= 0.231
 gam= 1.080 g(H,U,f)=  0.498E-01 0.970E-01 0.942E-02 ort(H,U,f) =-0.320E-01 0.477E-01-0.226E-02
CGA:  61    -0.222676391194E+03   -0.58341E-01   -0.54223E-01  5760   0.156E+00 0.134E-01
 gam= 1.080 trial= 0.249  step= 0.535 mean= 0.249
 gam= 0.922 g(H,U,f)=  0.651E-01 0.776E-01 0.136E-02 ort(H,U,f) =-0.357E-01 0.621E-01-0.281E-03
CGA:  62    -0.222726152317E+03   -0.49761E-01   -0.45707E-01  5760   0.144E+00 0.262E-01
 gam= 0.922 trial= 0.263  step= 0.610 mean= 0.263
 gam= 1.132 g(H,U,f)=  0.853E-01 0.776E-01 0.159E-03 ort(H,U,f) =-0.332E-01 0.410E-01 0.181E-03
CGA:  63    -0.222779315434E+03   -0.53163E-01   -0.51307E-01  5760   0.163E+00 0.790E-02
 gam= 1.132 trial= 0.281  step= 0.498 mean= 0.281
 gam= 1.340 g(H,U,f)=  0.764E-01 0.119E+00 0.232E-01 ort(H,U,f) =-0.245E-01 0.196E-01-0.538E-02
CGA:  64    -0.222818137291E+03   -0.38822E-01   -0.42791E-01  5760   0.219E+00-0.102E-01
 gam= 1.340 trial= 0.292  step= 0.206 mean= 0.292
 gam= 0.780 g(H,U,f)=  0.649E-01 0.769E-01 0.286E-01 ort(H,U,f) =-0.968E-02 0.218E-01-0.189E-01
CGA:  65    -0.222839672649E+03   -0.21535E-01   -0.21069E-01  5760   0.170E+00-0.673E-02
 gam= 0.780 trial= 0.287  step= 0.290 mean= 0.287
 gam= 0.536 g(H,U,f)=  0.316E-01 0.550E-01 0.469E-02 ort(H,U,f) =-0.121E-01 0.169E-01 0.402E-02
CGA:  66    -0.222863638011E+03   -0.23965E-01   -0.23944E-01  5760   0.913E-01 0.886E-02
 gam= 0.536 trial= 0.287  step= 0.206 mean= 0.287
 gam= 1.085 g(H,U,f)=  0.208E-01 0.580E-01 0.203E-01 ort(H,U,f) =-0.170E-02 0.169E-01-0.157E-01
CGA:  67    -0.222873935641E+03   -0.10298E-01   -0.98683E-02  5760   0.990E-01-0.490E-03
 gam= 1.085 trial= 0.283  step= 0.333 mean= 0.283
 gam= 0.743 g(H,U,f)=  0.293E-01 0.403E-01 0.405E-02 ort(H,U,f) =-0.255E-01 0.218E-01 0.188E-02
CGA:  68    -0.222890253159E+03   -0.16318E-01   -0.16391E-01  5760   0.736E-01-0.174E-02
 gam= 0.743 trial= 0.286  step= 0.250 mean= 0.286
 gam= 1.274 g(H,U,f)=  0.239E-01 0.453E-01 0.247E-01 ort(H,U,f) =-0.292E-02 0.169E-01-0.137E-01
CGA:  69    -0.222899281164E+03   -0.90280E-02   -0.90601E-02  5760   0.938E-01 0.211E-03
 gam= 1.274 trial= 0.284  step= 0.250 mean= 0.284
 gam= 0.454 g(H,U,f)=  0.178E-01 0.230E-01 0.183E-02 ort(H,U,f) =-0.148E-01 0.130E-01 0.187E-02
CGA:  70    -0.222911029333E+03   -0.11748E-01   -0.11747E-01  5760   0.426E-01 0.235E-04
 gam= 0.454 trial= 0.282  step= 0.242 mean= 0.282
 gam= 1.095 g(H,U,f)=  0.150E-01 0.211E-01 0.106E-01 ort(H,U,f) = 0.120E-02 0.485E-02-0.639E-02
CGA:  71    -0.222916189931E+03   -0.51606E-02   -0.51519E-02  5760   0.467E-01-0.341E-03
 gam= 1.095 trial= 0.280  step= 0.207 mean= 0.280
 gam= 0.473 g(H,U,f)=  0.101E-01 0.119E-01 0.753E-04 ort(H,U,f) =-0.252E-02 0.252E-02 0.106E-03
CGA:  72    -0.222920965406E+03   -0.47755E-02   -0.47927E-02  5760   0.221E-01 0.104E-03
 gam= 0.473 trial= 0.277  step= 0.332 mean= 0.277
 gam= 1.601 g(H,U,f)=  0.790E-02 0.171E-01 0.103E-01 ort(H,U,f) =-0.314E-03 0.258E-02-0.218E-02
CGA:  73    -0.222924639584E+03   -0.36742E-02   -0.36705E-02  5760   0.353E-01 0.864E-04
 gam= 1.601 trial= 0.279  step= 0.189 mean= 0.279
 gam= 0.384 g(H,U,f)=  0.553E-02 0.797E-02 0.640E-04 ort(H,U,f) =-0.489E-02 0.515E-02-0.283E-03
CGA:  74    -0.222928020754E+03   -0.33812E-02   -0.33493E-02  5760   0.136E-01-0.233E-04
 gam= 0.384 trial= 0.275  step= 0.298 mean= 0.275
 gam= 1.171 g(H,U,f)=  0.400E-02 0.957E-02 0.231E-02 ort(H,U,f) =-0.745E-03 0.236E-02-0.529E-03
CGA:  75    -0.222930033796E+03   -0.20130E-02   -0.20176E-02  5760   0.159E-01 0.109E-02
 gam= 1.171 trial= 0.276  step= 0.225 mean= 0.276
 gam= 0.938 g(H,U,f)=  0.533E-02 0.744E-02 0.213E-02 ort(H,U,f) =-0.321E-02 0.373E-02-0.159E-02
CGA:  76    -0.222932045525E+03   -0.20117E-02   -0.19318E-02  5760   0.149E-01-0.106E-02
 gam= 0.938 trial= 0.273  step= 0.384 mean= 0.273
 gam= 1.223 g(H,U,f)=  0.733E-02 0.884E-02 0.205E-02 ort(H,U,f) =-0.323E-02 0.587E-02 0.300E-03
CGA:  77    -0.222934878517E+03   -0.28330E-02   -0.26732E-02  5760   0.182E-01 0.294E-02
 gam= 1.223 trial= 0.279  step= 0.198 mean= 0.279
 gam= 0.835 g(H,U,f)=  0.540E-02 0.710E-02 0.272E-02 ort(H,U,f) =-0.309E-02 0.552E-02-0.277E-02
CGA:  78    -0.222937090627E+03   -0.22121E-02   -0.21548E-02  5760   0.152E-01-0.343E-03
 gam= 0.835 trial= 0.275  step= 0.368 mean= 0.275
 gam= 1.016 g(H,U,f)=  0.746E-02 0.743E-02 0.580E-03 ort(H,U,f) =-0.438E-02 0.339E-02 0.240E-03
CGA:  79    -0.222939792710E+03   -0.27021E-02   -0.27458E-02  5760   0.155E-01-0.743E-03
 gam= 1.016 trial= 0.280  step= 0.309 mean= 0.280
 gam= 1.594 g(H,U,f)=  0.670E-02 0.121E-01 0.583E-02 ort(H,U,f) =-0.119E-02 0.407E-02-0.293E-02
CGA:  80    -0.222942050416E+03   -0.22577E-02   -0.22696E-02  5760   0.246E-01-0.535E-04
 gam= 1.594 trial= 0.281  step= 0.219 mean= 0.281
 gam= 0.552 g(H,U,f)=  0.633E-02 0.706E-02 0.228E-03 ort(H,U,f) =-0.527E-02 0.547E-02 0.549E-03
CGA:  81    -0.222944719240E+03   -0.26688E-02   -0.26946E-02  5760   0.136E-01 0.750E-03
 gam= 0.552 trial= 0.278  step= 0.331 mean= 0.278
 gam= 1.615 g(H,U,f)=  0.602E-02 0.122E-01 0.381E-02 ort(H,U,f) =-0.138E-02 0.303E-02-0.197E-02
CGA:  82    -0.222947059193E+03   -0.23400E-02   -0.23219E-02  5760   0.220E-01-0.321E-03
 gam= 1.615 trial= 0.281  step= 0.240 mean= 0.281
 gam= 0.591 g(H,U,f)=  0.550E-02 0.721E-02 0.281E-03 ort(H,U,f) =-0.561E-02 0.464E-02-0.294E-03
CGA:  83    -0.222949750214E+03   -0.26910E-02   -0.25723E-02  5760   0.130E-01-0.126E-02
 gam= 0.591 trial= 0.279  step= 0.565 mean= 0.279
 gam= 1.271 g(H,U,f)=  0.689E-02 0.860E-02 0.103E-02 ort(H,U,f) =-0.307E-02 0.396E-02 0.137E-03
CGA:  84    -0.222953348904E+03   -0.35987E-02   -0.34621E-02  5760   0.165E-01 0.103E-02
 gam= 1.271 trial= 0.293  step= 0.305 mean= 0.293
 gam= 1.045 g(H,U,f)=  0.540E-02 0.846E-02 0.340E-02 ort(H,U,f) =-0.214E-02 0.405E-02-0.208E-02
CGA:  85    -0.222956062603E+03   -0.27137E-02   -0.27149E-02  5760   0.173E-01-0.163E-03
 gam= 1.045 trial= 0.293  step= 0.248 mean= 0.293
 gam= 0.639 g(H,U,f)=  0.552E-02 0.526E-02 0.247E-03 ort(H,U,f) =-0.282E-02 0.293E-02-0.380E-03
CGA:  86    -0.222958221868E+03   -0.21593E-02   -0.21225E-02  5760   0.110E-01-0.273E-03
 gam= 0.639 trial= 0.291  step= 0.513 mean= 0.291
 gam= 0.774 g(H,U,f)=  0.401E-02 0.421E-02 0.317E-03 ort(H,U,f) =-0.108E-02 0.945E-03-0.575E-05
CGA:  87    -0.222960989775E+03   -0.27679E-02   -0.27837E-02  5760   0.853E-02-0.138E-03
 gam= 0.774 trial= 0.302  step= 0.359 mean= 0.302
 gam= 0.000 g(H,U,f)=  0.257E-02 0.437E-02 0.132E-02 ort(H,U,f) =-0.118E-03 0.786E-03-0.519E-03
SDA:  88    -0.222962504770E+03   -0.15150E-02   -0.15111E-02  5760   0.825E-02 0.148E-03
 gam= 0.000 trial= 0.305  step= 0.161 mean= 0.305
 gam= 0.517 g(H,U,f)=  0.119E-02 0.207E-02 0.101E-02 ort(H,U,f) = 0.989E-03 0.290E-03-0.109E-02
CGA:  89    -0.222963185079E+03   -0.68031E-03   -0.66324E-03  5760   0.427E-02 0.189E-03
 gam= 0.517 trial= 0.298  step= 0.467 mean= 0.298
 gam= 0.945 g(H,U,f)=  0.138E-02 0.247E-02 0.189E-03 ort(H,U,f) =-0.424E-03 0.538E-03-0.196E-03
CGA:  90    -0.222964203789E+03   -0.10187E-02   -0.10198E-02  5760   0.404E-02-0.810E-04
 gam= 0.945 trial= 0.306  step= 0.729 mean= 0.306
 gam= 0.806 g(H,U,f)=  0.174E-02 0.151E-02 0.741E-05 ort(H,U,f) =-0.115E-02 0.126E-02-0.255E-05
CGA:  91    -0.222965672717E+03   -0.14689E-02   -0.14431E-02  5760   0.325E-02 0.109E-03
 gam= 0.806 trial= 0.328  step= 0.545 mean= 0.328
 gam= 0.863 g(H,U,f)=  0.131E-02 0.139E-02 0.104E-03 ort(H,U,f) =-0.578E-03 0.589E-03-0.189E-04
CGA:  92    -0.222966582419E+03   -0.90970E-03   -0.90979E-03  5760   0.281E-02-0.833E-05
 gam= 0.863 trial= 0.338  step= 0.441 mean= 0.338
 gam= 1.457 g(H,U,f)=  0.135E-02 0.208E-02 0.666E-03 ort(H,U,f) =-0.201E-03 0.465E-03-0.203E-03
CGA:  93    -0.222967185370E+03   -0.60295E-03   -0.61656E-03  5760   0.409E-02 0.602E-04
 gam= 1.457 trial= 0.343  step= 0.236 mean= 0.343
 gam= 0.616 g(H,U,f)=  0.981E-03 0.115E-02 0.384E-03 ort(H,U,f) =-0.309E-03 0.539E-03-0.277E-03
CGA:  94    -0.222967684657E+03   -0.49929E-03   -0.49391E-03  5760   0.252E-02-0.470E-04
 gam= 0.616 trial= 0.338  step= 0.361 mean= 0.338
 gam= 0.460 g(H,U,f)=  0.567E-03 0.585E-03 0.595E-05 ort(H,U,f) =-0.293E-03 0.278E-03 0.870E-05
CGA:  95    -0.222968134034E+03   -0.44938E-03   -0.44904E-03  5760   0.116E-02-0.559E-05
 gam= 0.460 trial= 0.339  step= 0.518 mean= 0.339
 gam= 1.715 g(H,U,f)=  0.414E-03 0.995E-03 0.576E-03 ort(H,U,f) =-0.402E-04 0.212E-03-0.149E-03
CGA:  96    -0.222968426503E+03   -0.29247E-03   -0.29912E-03  5760   0.198E-02 0.227E-04
 gam= 1.715 trial= 0.348  step= 0.197 mean= 0.348
 gam= 0.505 g(H,U,f)=  0.421E-03 0.543E-03 0.368E-04 ort(H,U,f) =-0.393E-03 0.479E-03-0.801E-04
CGA:  97    -0.222968628681E+03   -0.20218E-03   -0.19942E-03  5760   0.100E-02 0.546E-05
 gam= 0.505 trial= 0.341  step= 0.599 mean= 0.341
 gam= 0.960 g(H,U,f)=  0.415E-03 0.475E-03 0.711E-04 ort(H,U,f) =-0.257E-03 0.229E-03-0.587E-05
CGA:  98    -0.222968924650E+03   -0.29597E-03   -0.30051E-03  5760   0.961E-03-0.340E-04
 gam= 0.960 trial= 0.354  step= 0.313 mean= 0.354
 gam= 1.438 g(H,U,f)=  0.364E-03 0.744E-03 0.274E-03 ort(H,U,f) =-0.505E-04 0.223E-03-0.133E-03
CGA:  99    -0.222969070797E+03   -0.14615E-03   -0.14521E-03  5760   0.138E-02 0.392E-04
 gam= 1.438 trial= 0.352  step= 0.334 mean= 0.352
 gam= 0.712 g(H,U,f)=  0.428E-03 0.506E-03 0.493E-04 ort(H,U,f) =-0.264E-03 0.266E-03-0.340E-04
CGA: 100    -0.222969311536E+03   -0.24074E-03   -0.24014E-03  5760   0.984E-03-0.316E-04
 gam= 0.712 trial= 0.351  step= 0.493 mean= 0.351
 gam= 0.765 g(H,U,f)=  0.340E-03 0.402E-03 0.105E-04 ort(H,U,f) =-0.153E-03 0.174E-03-0.107E-05
CGA: 101    -0.222969550660E+03   -0.23912E-03   -0.23706E-03  5760   0.753E-03 0.194E-04
 gam= 0.765 trial= 0.358  step= 0.487 mean= 0.358
 gam= 1.779 g(H,U,f)=  0.399E-03 0.587E-03 0.352E-03 ort(H,U,f) =-0.111E-03 0.185E-03-0.784E-04
CGA: 102    -0.222969736025E+03   -0.18536E-03   -0.18683E-03  5760   0.134E-02-0.420E-05
 gam= 1.779 trial= 0.364  step= 0.249 mean= 0.364
 gam= 0.796 g(H,U,f)=  0.383E-03 0.559E-03 0.123E-03 ort(H,U,f) =-0.204E-03 0.324E-03-0.127E-03
CGA: 103    -0.222969902896E+03   -0.16687E-03   -0.16556E-03  5760   0.107E-02-0.747E-05
 gam= 0.796 trial= 0.358  step= 0.513 mean= 0.358
 gam= 0.822 g(H,U,f)=  0.453E-03 0.384E-03 0.379E-04 ort(H,U,f) =-0.398E-03 0.404E-03 0.102E-04
CGA: 104    -0.222970175932E+03   -0.27304E-03   -0.27150E-03  5760   0.875E-03 0.163E-04
 gam= 0.822 trial= 0.366  step= 0.544 mean= 0.366
 gam= 2.451 g(H,U,f)=  0.537E-03 0.914E-03 0.695E-03 ort(H,U,f) =-0.147E-03 0.335E-03-0.199E-03
CGA: 105    -0.222970417461E+03   -0.24153E-03   -0.24186E-03  5760   0.215E-02-0.107E-04
 gam= 2.451 trial= 0.375  step= 0.249 mean= 0.375
 gam= 0.688 g(H,U,f)=  0.681E-03 0.769E-03 0.268E-04 ort(H,U,f) =-0.600E-03 0.637E-03-0.414E-04
CGA: 106    -0.222970683106E+03   -0.26564E-03   -0.26368E-03  5760   0.148E-02-0.398E-05
 gam= 0.688 trial= 0.369  step= 0.596 mean= 0.369
 gam= 0.880 g(H,U,f)=  0.656E-03 0.637E-03 0.778E-05 ort(H,U,f) =-0.425E-03 0.437E-03 0.238E-05
CGA: 107    -0.222971122206E+03   -0.43910E-03   -0.43906E-03  5760   0.130E-02 0.137E-04
 gam= 0.880 trial= 0.380  step= 0.317 mean= 0.380
 gam= 1.292 g(H,U,f)=  0.563E-03 0.812E-03 0.305E-03 ort(H,U,f) =-0.489E-04 0.187E-03-0.780E-04
CGA: 108    -0.222971333436E+03   -0.21123E-03   -0.20823E-03  5760   0.168E-02 0.606E-04
 gam= 1.292 trial= 0.377  step= 0.281 mean= 0.377
 gam= 0.763 g(H,U,f)=  0.527E-03 0.606E-03 0.149E-03 ort(H,U,f) =-0.318E-04 0.116E-03-0.146E-03
CGA: 109    -0.222971588501E+03   -0.25507E-03   -0.24667E-03  5760   0.128E-02-0.616E-04
 gam= 0.763 trial= 0.372  step= 0.480 mean= 0.372
 gam= 0.426 g(H,U,f)=  0.300E-03 0.229E-03 0.176E-04 ort(H,U,f) =-0.173E-03 0.225E-03 0.121E-04
CGA: 110    -0.222971889705E+03   -0.30120E-03   -0.29659E-03  5760   0.546E-03 0.637E-04
 gam= 0.426 trial= 0.378  step= 0.316 mean= 0.378
 gam= 1.210 g(H,U,f)=  0.216E-03 0.326E-03 0.119E-03 ort(H,U,f) = 0.357E-04 0.335E-04-0.565E-04
CGA: 111    -0.222971980539E+03   -0.90834E-04   -0.90515E-04  5760   0.660E-03 0.127E-04
 gam= 1.210 trial= 0.374  step= 0.281 mean= 0.374
 gam= 0.742 g(H,U,f)=  0.188E-03 0.268E-03 0.334E-04 ort(H,U,f) =-0.146E-04 0.434E-04-0.255E-04
CGA: 112    -0.222972080275E+03   -0.99736E-04   -0.94986E-04  5760   0.490E-03 0.328E-05
 gam= 0.742 trial= 0.370  step= 0.402 mean= 0.370
 gam= 0.481 g(H,U,f)=  0.143E-03 0.918E-04 0.775E-06 ort(H,U,f) =-0.111E-03 0.113E-03-0.162E-05
CGA: 113    -0.222972179185E+03   -0.98910E-04   -0.98874E-04  5760   0.236E-03 0.106E-05
 gam= 0.481 trial= 0.371  step= 0.648 mean= 0.371
 gam= 1.093 g(H,U,f)=  0.134E-03 0.123E-03 0.693E-06 ort(H,U,f) =-0.386E-04 0.385E-04-0.631E-07
CGA: 114    -0.222972255615E+03   -0.76430E-04   -0.76524E-04  5760   0.258E-03-0.149E-06
 gam= 1.093 trial= 0.385  step= 0.480 mean= 0.385
 gam= 0.774 g(H,U,f)=  0.942E-04 0.733E-04 0.319E-04 ort(H,U,f) =-0.550E-04 0.574E-04-0.185E-05
CGA: 115    -0.222972317394E+03   -0.61779E-04   -0.61755E-04  5760   0.199E-03 0.510E-06
 gam= 0.774 trial= 0.390  step= 0.251 mean= 0.390
 gam= 0.994 g(H,U,f)=  0.827E-04 0.900E-04 0.255E-04 ort(H,U,f) = 0.289E-05 0.333E-04-0.269E-04
CGA: 116    -0.222972343908E+03   -0.26514E-04   -0.25067E-04  5760   0.198E-03 0.937E-05
 gam= 0.994 trial= 0.383  step= 0.351 mean= 0.383
 gam= 0.568 g(H,U,f)=  0.575E-04 0.547E-04 0.343E-06 ort(H,U,f) =-0.246E-04 0.259E-04-0.339E-06
CGA: 117    -0.222972380255E+03   -0.36347E-04   -0.36393E-04  5760   0.113E-03 0.904E-06
 gam= 0.568 trial= 0.381  step= 0.451 mean= 0.381
 gam= 0.691 g(H,U,f)=  0.387E-04 0.374E-04 0.159E-05 ort(H,U,f) =-0.167E-04 0.151E-04-0.272E-06
CGA: 118    -0.222972405711E+03   -0.25456E-04   -0.25503E-04  5760   0.777E-04-0.186E-05
 gam= 0.691 trial= 0.385  step= 0.381 mean= 0.385
 gam= 0.000 g(H,U,f)=  0.264E-04 0.479E-04 0.148E-04 ort(H,U,f) =-0.641E-05 0.134E-04-0.446E-05
SDA: 119    -0.222972420281E+03   -0.14570E-04   -0.14566E-04  5760   0.892E-04 0.253E-05
 gam= 0.000 trial= 0.385  step= 0.142 mean= 0.385
 gam= 0.410 g(H,U,f)=  0.154E-04 0.169E-04 0.427E-05 ort(H,U,f) = 0.138E-04 0.176E-07-0.793E-05
CGA: 120    -0.222972427320E+03   -0.70388E-05   -0.63480E-05  5760   0.365E-04 0.593E-05
 gam= 0.410 trial= 0.373  step= 0.491 mean= 0.373
 gam= 0.883 g(H,U,f)=  0.112E-04 0.210E-04 0.124E-06 ort(H,U,f) =-0.189E-05 0.157E-05-0.173E-06
CGA: 121    -0.222972436829E+03   -0.95091E-05   -0.95596E-05  5760   0.323E-04-0.493E-06
 gam= 0.883 trial= 0.378  step= 0.663 mean= 0.378
 gam= 1.317 g(H,U,f)=  0.156E-04 0.205E-04 0.637E-05 ort(H,U,f) =-0.109E-04 0.104E-04-0.238E-06
CGA: 122    -0.222972447279E+03   -0.10450E-04   -0.10546E-04  5760   0.425E-04-0.769E-06
 gam= 1.317 trial= 0.393  step= 0.222 mean= 0.393
 gam= 0.872 g(H,U,f)=  0.162E-04 0.156E-04 0.524E-05 ort(H,U,f) =-0.712E-05 0.150E-04-0.547E-05
CGA: 123    -0.222972452049E+03   -0.47707E-05   -0.45956E-05  5760   0.371E-04 0.238E-05
 gam= 0.872 trial= 0.384  step= 0.571 mean= 0.384
 gam= 1.033 g(H,U,f)=  0.175E-04 0.205E-04 0.249E-06 ort(H,U,f) =-0.105E-04 0.915E-05-0.134E-06
CGA: 124    -0.222972462950E+03   -0.10901E-04   -0.11172E-04  5760   0.383E-04-0.146E-05
 gam= 1.033 trial= 0.394  step= 0.601 mean= 0.394
 gam= 0.720 g(H,U,f)=  0.168E-04 0.104E-04 0.356E-06 ort(H,U,f) =-0.127E-04 0.130E-04-0.119E-06
CGA: 125    -0.222972473987E+03   -0.11037E-04   -0.11054E-04  5760   0.276E-04 0.226E-06
 gam= 0.720 trial= 0.404  step= 0.778 mean= 0.404
 gam= 1.434 g(H,U,f)=  0.167E-04 0.210E-04 0.188E-05 ort(H,U,f) =-0.643E-05 0.675E-05-0.619E-06
CGA: 126    -0.222972484596E+03   -0.10609E-04   -0.10790E-04  5760   0.396E-04-0.298E-06
 gam= 1.434 trial= 0.423  step= 0.354 mean= 0.423
 gam= 1.195 g(H,U,f)=  0.174E-04 0.232E-04 0.674E-05 ort(H,U,f) =-0.673E-05 0.913E-05-0.196E-05
CGA: 127    -0.222972491542E+03   -0.69456E-05   -0.69208E-05  5760   0.473E-04 0.430E-06
 gam= 1.195 trial= 0.419  step= 0.297 mean= 0.419
 gam= 0.854 g(H,U,f)=  0.164E-04 0.182E-04 0.575E-05 ort(H,U,f) =-0.651E-05 0.111E-04-0.414E-05
CGA: 128    -0.222972498815E+03   -0.72735E-05   -0.70924E-05  5760   0.404E-04 0.430E-06
 gam= 0.854 trial= 0.413  step= 0.481 mean= 0.413
 gam= 0.715 g(H,U,f)=  0.157E-04 0.117E-04 0.149E-05 ort(H,U,f) =-0.759E-05 0.934E-05-0.116E-05
CGA: 129    -0.222972508639E+03   -0.98244E-05   -0.97956E-05  5760   0.289E-04 0.591E-06
 gam= 0.715 trial= 0.416  step= 0.623 mean= 0.416
 gam= 0.826 g(H,U,f)=  0.105E-04 0.119E-04 0.138E-05 ort(H,U,f) =-0.420E-05 0.586E-05-0.619E-06
CGA: 130    -0.222972517881E+03   -0.92412E-05   -0.91220E-05  5760   0.238E-04 0.104E-05
 gam= 0.826 trial= 0.427  step= 0.313 mean= 0.427
 gam= 1.112 g(H,U,f)=  0.864E-05 0.129E-04 0.501E-05 ort(H,U,f) = 0.168E-06 0.205E-05-0.168E-05
CGA: 131    -0.222972521755E+03   -0.38743E-05   -0.38668E-05  5760   0.265E-04 0.537E-06
 gam= 1.112 trial= 0.421  step= 0.310 mean= 0.421
 gam= 0.728 g(H,U,f)=  0.715E-05 0.873E-05 0.340E-05 ort(H,U,f) =-0.195E-05 0.439E-05-0.261E-05
CGA: 132    -0.222972526024E+03   -0.42694E-05   -0.41995E-05  5760   0.193E-04-0.169E-06
 gam= 0.728 trial= 0.415  step= 0.489 mean= 0.415
 gam= 0.716 g(H,U,f)=  0.647E-05 0.670E-05 0.637E-06 ort(H,U,f) =-0.354E-05 0.383E-05-0.651E-06
CGA: 133    -0.222972530699E+03   -0.46749E-05   -0.46816E-05  5760   0.138E-04-0.362E-06
 gam= 0.716 trial= 0.419  step= 0.484 mean= 0.419
 gam= 1.288 g(H,U,f)=  0.569E-05 0.945E-05 0.266E-05 ort(H,U,f) =-0.226E-05 0.231E-05-0.353E-06
CGA: 134    -0.222972533968E+03   -0.32685E-05   -0.32819E-05  5760   0.178E-04-0.306E-06
 gam= 1.288 trial= 0.422  step= 0.265 mean= 0.422
 gam= 0.769 g(H,U,f)=  0.485E-05 0.630E-05 0.254E-05 ort(H,U,f) =-0.225E-05 0.431E-05-0.214E-05
CGA: 135    -0.222972536285E+03   -0.23176E-05   -0.23067E-05  5760   0.137E-04-0.788E-07
 gam= 0.769 trial= 0.415  step= 0.415 mean= 0.415
 gam= 0.801 g(H,U,f)=  0.480E-05 0.547E-05 0.702E-06 ort(H,U,f) =-0.250E-05 0.279E-05-0.483E-06
CGA: 136    -0.222972539111E+03   -0.28258E-05   -0.28258E-05  5760   0.110E-04-0.189E-06
 gam= 0.801 trial= 0.415  step= 0.527 mean= 0.415
 gam= 1.012 g(H,U,f)=  0.444E-05 0.535E-05 0.132E-05 ort(H,U,f) =-0.208E-05 0.257E-05-0.424E-06
CGA: 137    -0.222972541963E+03   -0.28518E-05   -0.28496E-05  5760   0.111E-04 0.706E-07
 gam= 1.012 trial= 0.420  step= 0.333 mean= 0.420
 gam= 1.200 g(H,U,f)=  0.378E-05 0.651E-05 0.304E-05 ort(H,U,f) =-0.764E-06 0.228E-05-0.131E-05
CGA: 138    -0.222972543819E+03   -0.18562E-05   -0.18603E-05  5760   0.133E-04 0.204E-06
 gam= 1.200 trial= 0.416  step= 0.309 mean= 0.416
 gam= 0.451 g(H,U,f)=  0.329E-05 0.230E-05 0.409E-06 ort(H,U,f) =-0.227E-05 0.305E-05-0.534E-06
CGA: 139    -0.222972545893E+03   -0.20741E-05   -0.20935E-05  5760   0.601E-05 0.245E-06
 gam= 0.451 trial= 0.410  step= 0.641 mean= 0.410
 gam= 1.527 g(H,U,f)=  0.308E-05 0.484E-05 0.125E-05 ort(H,U,f) =-0.580E-06 0.581E-06-0.312E-06
CGA: 140    -0.222972547816E+03   -0.19225E-05   -0.19606E-05  5760   0.917E-05-0.311E-06
 gam= 1.527 trial= 0.422  step= 0.343 mean= 0.422
 gam= 1.028 g(H,U,f)=  0.323E-05 0.440E-05 0.180E-05 ort(H,U,f) =-0.138E-05 0.205E-05-0.928E-06
CGA: 141    -0.222972549319E+03   -0.15032E-05   -0.14919E-05  5760   0.943E-05-0.259E-06
 gam= 1.028 trial= 0.418  step= 0.268 mean= 0.418
 gam= 0.535 g(H,U,f)=  0.257E-05 0.215E-05 0.322E-06 ort(H,U,f) =-0.144E-05 0.176E-05-0.343E-06
CGA: 142    -0.222972550549E+03   -0.12296E-05   -0.12293E-05  5760   0.504E-05-0.279E-07
 gam= 0.535 trial= 0.411  step= 0.463 mean= 0.411
 gam= 0.845 g(H,U,f)=  0.215E-05 0.199E-05 0.119E-06 ort(H,U,f) =-0.412E-06 0.878E-06-0.824E-07
CGA: 143    -0.222972551723E+03   -0.11747E-05   -0.11645E-05  5760   0.426E-05 0.384E-06
 gam= 0.845 trial= 0.413  step= 0.549 mean= 0.413
 gam= 1.021 g(H,U,f)=  0.177E-05 0.192E-05 0.655E-06 ort(H,U,f) =-0.841E-06 0.116E-05-0.115E-06
CGA: 144    -0.222972552997E+03   -0.12735E-05   -0.12598E-05  5760   0.435E-05 0.200E-06
 gam= 1.021 trial= 0.420  step= 0.310 mean= 0.420
 gam= 0.969 g(H,U,f)=  0.148E-05 0.216E-05 0.572E-06 ort(H,U,f) =-0.455E-06 0.110E-05-0.325E-06
CGA: 145    -0.222972553706E+03   -0.70905E-06   -0.70515E-06  5760   0.421E-05 0.316E-06
 gam= 0.969 trial= 0.414  step= 0.321 mean= 0.414
 final diagonalization
   1 F= -.23231707E+03 E0= -.23231318E+03  d E =-.777418E-02  mag=     6.0000
