       N       E                     dE             d eps       ncg     rms          ort
DAV:   1     0.345463548167E+04    0.34546E+04   -0.13885E+05  5760   0.216E+03
DAV:   2     0.402824979063E+03   -0.30518E+04   -0.28125E+04  5760   0.525E+02
DAV:   3    -0.221403175496E+03   -0.62423E+03   -0.57203E+03  5760   0.251E+02
DAV:   4    -0.270976818345E+03   -0.49574E+02   -0.48484E+02  5760   0.730E+01
DAV:   5    -0.272798177937E+03   -0.18214E+01   -0.18178E+01  5760   0.139E+01
SDA:   6     0.188003818118E+03    0.46080E+03   -0.18178E+01  5760   0.659E+04 0.000E+00
CGA:   7     0.387598200548E+03    0.19959E+03   -0.29362E+03  5760   0.555E+05-0.189E+05
CGA:   8     0.396644270642E+04    0.35788E+04   -0.35027E+04  5760   0.163E+05-0.453E+04
CGA:   9     0.346700862139E+04   -0.49943E+03   -0.56296E+03  5760   0.183E+05-0.101E+05
CGA:  10     0.232440610471E+04   -0.11426E+04   -0.61912E+03  5760   0.480E+05-0.747E+05
CGA:  11     0.483869323644E+04    0.25143E+04   -0.23824E+04  5760   0.752E+05-0.440E+05
CGA:  12     0.350486190524E+04   -0.13338E+04   -0.48628E+04  5760   0.658E+05-0.354E+05
CGA:  13     0.350216343017E+04   -0.26985E+01   -0.20858E+04  5760   0.816E+05-0.238E+05
CGA:  14     0.811697632314E+03   -0.26905E+04   -0.28025E+04  5760   0.143E+05 0.195E+05
CGA:  15     0.534250549315E+03   -0.27745E+03   -0.48113E+03  5760   0.103E+05-0.139E+05
CGA:  16     0.387322768405E+03   -0.14693E+03   -0.38596E+03  5760   0.743E+04-0.663E+04
CGA:  17     0.229526505837E+03   -0.15780E+03   -0.15314E+03  5760   0.791E+03 0.515E+03
CGA:  18     0.138743688860E+03   -0.90783E+02   -0.87622E+02  5760   0.209E+04-0.171E+02
CGA:  19     0.642349521134E+02   -0.74509E+02   -0.10819E+03  5760   0.127E+04-0.283E+03
CGA:  20     0.513556794436E+01   -0.59099E+02   -0.68131E+02  5760   0.953E+03 0.297E+02
CGA:  21    -0.852823077592E+02   -0.90418E+02   -0.94090E+02  5760   0.535E+03 0.571E+02
CGA:  22    -0.138073467787E+03   -0.52791E+02   -0.53570E+02  5760   0.162E+03 0.231E+01
CGA:  23    -0.154535221435E+03   -0.16462E+02   -0.16628E+02  5760   0.204E+03 0.267E+01
CGA:  24    -0.175841332525E+03   -0.21306E+02   -0.21480E+02  5760   0.187E+03 0.384E+01
CGA:  25    -0.186670899515E+03   -0.10830E+02   -0.12221E+02  5760   0.908E+02-0.107E+02
CGA:  26    -0.194531785058E+03   -0.78609E+01   -0.78962E+01  5760   0.329E+02-0.259E+01
CGA:  27    -0.199232922805E+03   -0.47011E+01   -0.46976E+01  5760   0.483E+02-0.114E+01
CGA:  28    -0.204120190344E+03   -0.48873E+01   -0.48877E+01  5760   0.432E+02-0.116E+01
CGA:  29    -0.208085491591E+03   -0.39653E+01   -0.36708E+01  5760   0.231E+02-0.298E+01
CGA:  30    -0.210711083027E+03   -0.26256E+01   -0.26430E+01  5760   0.214E+02-0.151E+01
CGA:  31    -0.213246551658E+03   -0.25355E+01   -0.25863E+01  5760   0.203E+02-0.173E+01
CGA:  32    -0.214439781168E+03   -0.11932E+01   -0.11870E+01  5760   0.138E+02 0.424E+00
CGA:  33    -0.215618056905E+03   -0.11783E+01   -0.11704E+01  5760   0.686E+01 0.509E+00
CGA:  34    -0.216334002464E+03   -0.71595E+00   -0.71913E+00  5760   0.616E+01 0.274E+00
CGA:  35    -0.217030620165E+03   -0.69662E+00   -0.69669E+00  5760   0.649E+01 0.300E+00
CGA:  36    -0.217513782978E+03   -0.48316E+00   -0.50295E+00  5760   0.526E+01 0.461E+00
CGA:  37    -0.217821741155E+03   -0.30796E+00   -0.31949E+00  5760   0.418E+01 0.255E+00
CGA:  38    -0.218161233252E+03   -0.33949E+00   -0.34809E+00  5760   0.348E+01 0.307E+00
CGA:  39    -0.218565115088E+03   -0.40388E+00   -0.40316E+00  5760   0.397E+01 0.313E+00
CGA:  40    -0.218923136228E+03   -0.35802E+00   -0.36209E+00  5760   0.419E+01 0.232E+00
CGA:  41    -0.219161369103E+03   -0.23823E+00   -0.24024E+00  5760   0.256E+01 0.316E+00
CGA:  42    -0.219346802726E+03   -0.18543E+00   -0.18924E+00  5760   0.269E+01 0.160E+00
CGA:  43    -0.219538137718E+03   -0.19133E+00   -0.19920E+00  5760   0.294E+01 0.171E+00
CGA:  44    -0.219791859595E+03   -0.25372E+00   -0.25865E+00  5760   0.281E+01 0.237E+00
CGA:  45    -0.220006165890E+03   -0.21431E+00   -0.22237E+00  5760   0.230E+01 0.153E+00
CGA:  46    -0.220197502966E+03   -0.19134E+00   -0.19291E+00  5760   0.206E+01 0.860E-01
SDA:  47    -0.220382811563E+03   -0.18531E+00   -0.18575E+00  5760   0.242E+01 0.618E-01
CGA:  48    -0.220892370753E+03   -0.50956E+00   -0.49523E+00  5760   0.240E+01 0.161E+00
CGA:  49    -0.221290745591E+03   -0.39837E+00   -0.49799E+00  5760   0.843E+01-0.108E+01
CGA:  50    -0.221539385966E+03   -0.24864E+00   -0.24066E+00  5760   0.796E+01 0.951E-01
CGA:  51    -0.221727891050E+03   -0.18851E+00   -0.28230E+00  5760   0.173E+01-0.227E+01
CGA:  52    -0.221865612589E+03   -0.13772E+00   -0.13507E+00  5760   0.181E+01 0.242E+00
CGA:  53    -0.221998439850E+03   -0.13283E+00   -0.13285E+00  5760   0.834E+00 0.717E-01
CGA:  54    -0.222198285440E+03   -0.19985E+00   -0.20040E+00  5760   0.640E+00-0.459E-02
CGA:  55    -0.222257616078E+03   -0.59331E-01   -0.59908E-01  5760   0.598E+00 0.319E-01
CGA:  56    -0.222317635230E+03   -0.60019E-01   -0.60103E-01  5760   0.399E+00-0.216E-01
CGA:  57    -0.222395674163E+03   -0.78039E-01   -0.13523E+00  5760   0.267E+01-0.470E+00
CGA:  58    -0.222493783202E+03   -0.98109E-01   -0.17040E+00  5760   0.589E+00-0.224E+00
CGA:  59    -0.222563030703E+03   -0.69248E-01   -0.71235E-01  5760   0.427E+00-0.688E-01
CGA:  60    -0.222618050498E+03   -0.55020E-01   -0.51261E-01  5760   0.145E+00 0.115E+00
CGA:  61    -0.222676391194E+03   -0.58341E-01   -0.54223E-01  5760   0.156E+00 0.134E-01
CGA:  62    -0.222726152317E+03   -0.49761E-01   -0.45707E-01  5760   0.144E+00 0.262E-01
CGA:  63    -0.222779315434E+03   -0.53163E-01   -0.51307E-01  5760   0.163E+00 0.790E-02
CGA:  64    -0.222818137291E+03   -0.38822E-01   -0.42791E-01  5760   0.219E+00-0.102E-01
CGA:  65    -0.222839672649E+03   -0.21535E-01   -0.21069E-01  5760   0.170E+00-0.673E-02
CGA:  66    -0.222863638011E+03   -0.23965E-01   -0.23944E-01  5760   0.913E-01 0.886E-02
CGA:  67    -0.222873935641E+03   -0.10298E-01   -0.98683E-02  5760   0.990E-01-0.490E-03
CGA:  68    -0.222890253159E+03   -0.16318E-01   -0.16391E-01  5760   0.736E-01-0.174E-02
CGA:  69    -0.222899281164E+03   -0.90280E-02   -0.90601E-02  5760   0.938E-01 0.211E-03
CGA:  70    -0.222911029333E+03   -0.11748E-01   -0.11747E-01  5760   0.426E-01 0.235E-04
CGA:  71    -0.222916189931E+03   -0.51606E-02   -0.51519E-02  5760   0.467E-01-0.341E-03
CGA:  72    -0.222920965406E+03   -0.47755E-02   -0.47927E-02  5760   0.221E-01 0.104E-03
CGA:  73    -0.222924639584E+03   -0.36742E-02   -0.36705E-02  5760   0.353E-01 0.864E-04
CGA:  74    -0.222928020754E+03   -0.33812E-02   -0.33493E-02  5760   0.136E-01-0.233E-04
CGA:  75    -0.222930033796E+03   -0.20130E-02   -0.20176E-02  5760   0.159E-01 0.109E-02
CGA:  76    -0.222932045525E+03   -0.20117E-02   -0.19318E-02  5760   0.149E-01-0.106E-02
CGA:  77    -0.222934878517E+03   -0.28330E-02   -0.26732E-02  5760   0.182E-01 0.294E-02
CGA:  78    -0.222937090627E+03   -0.22121E-02   -0.21548E-02  5760   0.152E-01-0.343E-03
CGA:  79    -0.222939792710E+03   -0.27021E-02   -0.27458E-02  5760   0.155E-01-0.743E-03
CGA:  80    -0.222942050416E+03   -0.22577E-02   -0.22696E-02  5760   0.246E-01-0.535E-04
CGA:  81    -0.222944719240E+03   -0.26688E-02   -0.26946E-02  5760   0.136E-01 0.750E-03
CGA:  82    -0.222947059193E+03   -0.23400E-02   -0.23219E-02  5760   0.220E-01-0.321E-03
CGA:  83    -0.222949750214E+03   -0.26910E-02   -0.25723E-02  5760   0.130E-01-0.126E-02
CGA:  84    -0.222953348904E+03   -0.35987E-02   -0.34621E-02  5760   0.165E-01 0.103E-02
CGA:  85    -0.222956062603E+03   -0.27137E-02   -0.27149E-02  5760   0.173E-01-0.163E-03
CGA:  86    -0.222958221868E+03   -0.21593E-02   -0.21225E-02  5760   0.110E-01-0.273E-03
CGA:  87    -0.222960989775E+03   -0.27679E-02   -0.27837E-02  5760   0.853E-02-0.138E-03
SDA:  88    -0.222962504770E+03   -0.15150E-02   -0.15111E-02  5760   0.825E-02 0.148E-03
CGA:  89    -0.222963185079E+03   -0.68031E-03   -0.66324E-03  5760   0.427E-02 0.189E-03
CGA:  90    -0.222964203789E+03   -0.10187E-02   -0.10198E-02  5760   0.404E-02-0.810E-04
CGA:  91    -0.222965672717E+03   -0.14689E-02   -0.14431E-02  5760   0.325E-02 0.109E-03
CGA:  92    -0.222966582419E+03   -0.90970E-03   -0.90979E-03  5760   0.281E-02-0.833E-05
CGA:  93    -0.222967185370E+03   -0.60295E-03   -0.61656E-03  5760   0.409E-02 0.602E-04
CGA:  94    -0.222967684657E+03   -0.49929E-03   -0.49391E-03  5760   0.252E-02-0.470E-04
CGA:  95    -0.222968134034E+03   -0.44938E-03   -0.44904E-03  5760   0.116E-02-0.559E-05
CGA:  96    -0.222968426503E+03   -0.29247E-03   -0.29912E-03  5760   0.198E-02 0.227E-04
CGA:  97    -0.222968628681E+03   -0.20218E-03   -0.19942E-03  5760   0.100E-02 0.546E-05
CGA:  98    -0.222968924650E+03   -0.29597E-03   -0.30051E-03  5760   0.961E-03-0.340E-04
CGA:  99    -0.222969070797E+03   -0.14615E-03   -0.14521E-03  5760   0.138E-02 0.392E-04
CGA: 100    -0.222969311536E+03   -0.24074E-03   -0.24014E-03  5760   0.984E-03-0.316E-04
CGA: 101    -0.222969550660E+03   -0.23912E-03   -0.23706E-03  5760   0.753E-03 0.194E-04
CGA: 102    -0.222969736025E+03   -0.18536E-03   -0.18683E-03  5760   0.134E-02-0.420E-05
CGA: 103    -0.222969902896E+03   -0.16687E-03   -0.16556E-03  5760   0.107E-02-0.747E-05
CGA: 104    -0.222970175932E+03   -0.27304E-03   -0.27150E-03  5760   0.875E-03 0.163E-04
CGA: 105    -0.222970417461E+03   -0.24153E-03   -0.24186E-03  5760   0.215E-02-0.107E-04
CGA: 106    -0.222970683106E+03   -0.26564E-03   -0.26368E-03  5760   0.148E-02-0.398E-05
CGA: 107    -0.222971122206E+03   -0.43910E-03   -0.43906E-03  5760   0.130E-02 0.137E-04
CGA: 108    -0.222971333436E+03   -0.21123E-03   -0.20823E-03  5760   0.168E-02 0.606E-04
CGA: 109    -0.222971588501E+03   -0.25507E-03   -0.24667E-03  5760   0.128E-02-0.616E-04
CGA: 110    -0.222971889705E+03   -0.30120E-03   -0.29659E-03  5760   0.546E-03 0.637E-04
CGA: 111    -0.222971980539E+03   -0.90834E-04   -0.90515E-04  5760   0.660E-03 0.127E-04
CGA: 112    -0.222972080275E+03   -0.99736E-04   -0.94986E-04  5760   0.490E-03 0.328E-05
CGA: 113    -0.222972179185E+03   -0.98910E-04   -0.98874E-04  5760   0.236E-03 0.106E-05
CGA: 114    -0.222972255615E+03   -0.76430E-04   -0.76524E-04  5760   0.258E-03-0.149E-06
CGA: 115    -0.222972317394E+03   -0.61779E-04   -0.61755E-04  5760   0.199E-03 0.510E-06
CGA: 116    -0.222972343908E+03   -0.26514E-04   -0.25067E-04  5760   0.198E-03 0.937E-05
CGA: 117    -0.222972380255E+03   -0.36347E-04   -0.36393E-04  5760   0.113E-03 0.904E-06
CGA: 118    -0.222972405711E+03   -0.25456E-04   -0.25503E-04  5760   0.777E-04-0.186E-05
SDA: 119    -0.222972420281E+03   -0.14570E-04   -0.14566E-04  5760   0.892E-04 0.253E-05
CGA: 120    -0.222972427320E+03   -0.70388E-05   -0.63480E-05  5760   0.365E-04 0.593E-05
CGA: 121    -0.222972436829E+03   -0.95091E-05   -0.95596E-05  5760   0.323E-04-0.493E-06
CGA: 122    -0.222972447279E+03   -0.10450E-04   -0.10546E-04  5760   0.425E-04-0.769E-06
CGA: 123    -0.222972452049E+03   -0.47707E-05   -0.45956E-05  5760   0.371E-04 0.238E-05
CGA: 124    -0.222972462950E+03   -0.10901E-04   -0.11172E-04  5760   0.383E-04-0.146E-05
CGA: 125    -0.222972473987E+03   -0.11037E-04   -0.11054E-04  5760   0.276E-04 0.226E-06
CGA: 126    -0.222972484596E+03   -0.10609E-04   -0.10790E-04  5760   0.396E-04-0.298E-06
CGA: 127    -0.222972491542E+03   -0.69456E-05   -0.69208E-05  5760   0.473E-04 0.430E-06
CGA: 128    -0.222972498815E+03   -0.72735E-05   -0.70924E-05  5760   0.404E-04 0.430E-06
CGA: 129    -0.222972508639E+03   -0.98244E-05   -0.97956E-05  5760   0.289E-04 0.591E-06
CGA: 130    -0.222972517881E+03   -0.92412E-05   -0.91220E-05  5760   0.238E-04 0.104E-05
CGA: 131    -0.222972521755E+03   -0.38743E-05   -0.38668E-05  5760   0.265E-04 0.537E-06
CGA: 132    -0.222972526024E+03   -0.42694E-05   -0.41995E-05  5760   0.193E-04-0.169E-06
CGA: 133    -0.222972530699E+03   -0.46749E-05   -0.46816E-05  5760   0.138E-04-0.362E-06
CGA: 134    -0.222972533968E+03   -0.32685E-05   -0.32819E-05  5760   0.178E-04-0.306E-06
CGA: 135    -0.222972536285E+03   -0.23176E-05   -0.23067E-05  5760   0.137E-04-0.788E-07
CGA: 136    -0.222972539111E+03   -0.28258E-05   -0.28258E-05  5760   0.110E-04-0.189E-06
CGA: 137    -0.222972541963E+03   -0.28518E-05   -0.28496E-05  5760   0.111E-04 0.706E-07
CGA: 138    -0.222972543819E+03   -0.18562E-05   -0.18603E-05  5760   0.133E-04 0.204E-06
CGA: 139    -0.222972545893E+03   -0.20741E-05   -0.20935E-05  5760   0.601E-05 0.245E-06
CGA: 140    -0.222972547816E+03   -0.19225E-05   -0.19606E-05  5760   0.917E-05-0.311E-06
CGA: 141    -0.222972549319E+03   -0.15032E-05   -0.14919E-05  5760   0.943E-05-0.259E-06
CGA: 142    -0.222972550549E+03   -0.12296E-05   -0.12293E-05  5760   0.504E-05-0.279E-07
CGA: 143    -0.222972551723E+03   -0.11747E-05   -0.11645E-05  5760   0.426E-05 0.384E-06
CGA: 144    -0.222972552997E+03   -0.12735E-05   -0.12598E-05  5760   0.435E-05 0.200E-06
CGA: 145    -0.222972553706E+03   -0.70905E-06   -0.70515E-06  5760   0.421E-05 0.316E-06
   1 F= -.23231707E+03 E0= -.23231318E+03  d E =-.777418E-02  mag=     6.0000
