 vasp.5.4.4.18Apr17-6-g9f103f2a35 (build Nov 22 2021 14:44:17) complex          
  
 executed on             LinuxIFC date 2022.08.06  11:42:32
 running on   64 total cores
 distrk:  each k-point on   64 cores,    1 groups
 distr:  one band on NCORES_PER_BAND=   4 cores,   16 groups


--------------------------------------------------------------------------------------------------------


 INCAR:
 POTCAR:    PAW_PBE Li 17Jan2003                  
 POTCAR:    PAW_PBE Co 02Aug2007                  
 POTCAR:    PAW_PBE O 08Apr2002                   
 POTCAR:    PAW_PBE Li 17Jan2003                  
   VRHFIN =Li: s1p0                                                             
   LEXCH  = PE                                                                  
   EATOM  =     5.3001 eV,    0.3895 Ry                                         
                                                                                
   TITEL  = PAW_PBE Li 17Jan2003                                                
   LULTRA =        F    use ultrasoft PP ?                                      
   IUNSCR =        1    unscreen: 0-lin 1-nonlin 2-no                           
   RPACOR =    1.500    partial core radius                                     
   POMASS =    7.010; ZVAL   =    1.000    mass and valenz                      
   RCORE  =    2.050    outmost cutoff radius                                   
   RWIGS  =    2.600; RWIGS  =    1.376    wigner-seitz radius (au A)           
   ENMAX  =  140.000; ENMIN  =  100.000 eV                                      
   ICORE  =        2    local potential                                         
   LCOR   =        T    correct aug charges                                     
   LPAW   =        T    paw PP                                                  
   EAUG   =  331.638                                                            
   DEXC   =    0.000                                                            
   RMAX   =    2.098    core radius for proj-oper                               
   RAUG   =    1.300    factor for augmentation sphere                          
   RDEP   =    2.094    radius for radial grids                                 
   RDEPT  =    1.810    core radius for aug-charge                              
                                                                                
   Atomic configuration                                                         
    4 entries                                                                   
     n  l   j            E        occ.                                          
     1  0  0.50       -51.8549   2.0000                                         
     2  0  0.50        -2.8742   1.0000                                         
     2  1  0.50        -1.3606   0.0000                                         
     3  2  1.50        -1.3606   0.0000                                         
   Description                                                                  
     l       E           TYP  RCUT    TYP  RCUT                                 
     0     -2.8742052     23  2.050                                             
     0     27.2116520     23  2.050                                             
     1     -1.3605826     23  2.050                                             
     2     -1.3605826     23  2.050                                             
  local pseudopotential read in
  partial core-charges read in
  partial kinetic energy density read in
  atomic valenz-charges read in
  non local Contribution for L=           0  read in
    real space projection operators read in
  non local Contribution for L=           0  read in
    real space projection operators read in
  non local Contribution for L=           1  read in
    real space projection operators read in
    PAW grid and wavefunctions read in
 
   number of l-projection  operators is LMAX  =           3
   number of lm-projection operators is LMMAX =           5
 
 POTCAR:    PAW_PBE Co 02Aug2007                  
   VRHFIN =Co: d8 s1                                                            
   LEXCH  = PE                                                                  
   EATOM  =   813.3670 eV,   59.7808 Ry                                         
                                                                                
   TITEL  = PAW_PBE Co 02Aug2007                                                
   LULTRA =        F    use ultrasoft PP ?                                      
   IUNSCR =        1    unscreen: 0-lin 1-nonlin 2-no                           
   RPACOR =    2.000    partial core radius                                     
   POMASS =   58.933; ZVAL   =    9.000    mass and valenz                      
   RCORE  =    2.300    outmost cutoff radius                                   
   RWIGS  =    2.460; RWIGS  =    1.302    wigner-seitz radius (au A)           
   ENMAX  =  267.968; ENMIN  =  200.976 eV                                      
   RCLOC  =    1.203    cutoff for local pot                                    
   LCOR   =        T    correct aug charges                                     
   LPAW   =        T    paw PP                                                  
   EAUG   =  477.818                                                            
   DEXC   =    0.000                                                            
   RMAX   =    2.360    core radius for proj-oper                               
   RAUG   =    1.300    factor for augmentation sphere                          
   RDEP   =    2.393    radius for radial grids                                 
   RDEPT  =    1.864    core radius for aug-charge                              
                                                                                
   Atomic configuration                                                         
    9 entries                                                                   
     n  l   j            E        occ.                                          
     1  0  0.50     -7587.6674   2.0000                                         
     2  0  0.50      -893.6084   2.0000                                         
     2  1  1.50      -764.5805   6.0000                                         
     3  0  0.50       -97.5973   2.0000                                         
     3  1  1.50       -60.9648   6.0000                                         
     3  2  2.50        -4.2382   8.0000                                         
     4  0  0.50        -4.3746   1.0000                                         
     4  1  1.50        -4.0817   0.0000                                         
     4  3  2.50        -1.3606   0.0000                                         
   Description                                                                  
     l       E           TYP  RCUT    TYP  RCUT                                 
     2     -4.2382362     23  2.300                                             
     2     -5.5988188     23  2.300                                             
     0     -4.3745797     23  2.300                                             
     0      5.7660125     23  2.300                                             
     1     -2.7211652     23  2.300                                             
     1     16.9860234     23  2.300                                             
  local pseudopotential read in
  partial core-charges read in
  partial kinetic energy density read in
  atomic valenz-charges read in
  non local Contribution for L=           2  read in
    real space projection operators read in
  non local Contribution for L=           2  read in
    real space projection operators read in
  non local Contribution for L=           0  read in
    real space projection operators read in
  non local Contribution for L=           0  read in
    real space projection operators read in
  non local Contribution for L=           1  read in
    real space projection operators read in
  non local Contribution for L=           1  read in
    real space projection operators read in
    PAW grid and wavefunctions read in
 
   number of l-projection  operators is LMAX  =           6
   number of lm-projection operators is LMMAX =          18
 
 POTCAR:    PAW_PBE O 08Apr2002                   
   VRHFIN =O: s2p4                                                              
   LEXCH  = PE                                                                  
   EATOM  =   432.3788 eV,   31.7789 Ry                                         
                                                                                
   TITEL  = PAW_PBE O 08Apr2002                                                 
   LULTRA =        F    use ultrasoft PP ?                                      
   IUNSCR =        1    unscreen: 0-lin 1-nonlin 2-no                           
   RPACOR =    1.200    partial core radius                                     
   POMASS =   16.000; ZVAL   =    6.000    mass and valenz                      
   RCORE  =    1.520    outmost cutoff radius                                   
   RWIGS  =    1.550; RWIGS  =    0.820    wigner-seitz radius (au A)           
   ENMAX  =  400.000; ENMIN  =  300.000 eV                                      
   ICORE  =        2    local potential                                         
   LCOR   =        T    correct aug charges                                     
   LPAW   =        T    paw PP                                                  
   EAUG   =  605.392                                                            
   DEXC   =    0.000                                                            
   RMAX   =    1.553    core radius for proj-oper                               
   RAUG   =    1.300    factor for augmentation sphere                          
   RDEP   =    1.550    radius for radial grids                                 
   RDEPT  =    1.329    core radius for aug-charge                              
                                                                                
   Atomic configuration                                                         
    4 entries                                                                   
     n  l   j            E        occ.                                          
     1  0  0.50      -514.6923   2.0000                                         
     2  0  0.50       -23.9615   2.0000                                         
     2  1  0.50        -9.0305   4.0000                                         
     3  2  1.50        -9.5241   0.0000                                         
   Description                                                                  
     l       E           TYP  RCUT    TYP  RCUT                                 
     0    -23.9615318     23  1.200                                             
     0     -9.5240782     23  1.200                                             
     1     -9.0304911     23  1.520                                             
     1      8.1634956     23  1.520                                             
     2     -9.5240782      7  1.500                                             
  local pseudopotential read in
  partial core-charges read in
  partial kinetic energy density read in
  kinetic energy density of atom read in
  atomic valenz-charges read in
  non local Contribution for L=           0  read in
    real space projection operators read in
  non local Contribution for L=           0  read in
    real space projection operators read in
  non local Contribution for L=           1  read in
    real space projection operators read in
  non local Contribution for L=           1  read in
    real space projection operators read in
    PAW grid and wavefunctions read in
 
   number of l-projection  operators is LMAX  =           4
   number of lm-projection operators is LMMAX =           8
 
 Optimization of the real space projectors (new method)

 maximal supplied QI-value         = 18.33
 optimisation between [QCUT,QGAM] = [ 12.46, 24.93] = [ 43.51,174.03] Ry 
 Optimized for a Real-space Cutoff    1.13 Angstroem

   l    n(q)    QCUT    max X(q) W(low)/X(q) W(high)/X(q)  e(spline) 
   0      8    12.465    33.825    0.12E-03    0.29E-03    0.99E-07
   0      8    12.465     8.944    0.86E-04    0.22E-03    0.72E-07
   1      8    12.465     4.214    0.27E-03    0.11E-03    0.82E-07
 Optimization of the real space projectors (new method)

 maximal supplied QI-value         = 16.25
 optimisation between [QCUT,QGAM] = [ 12.51, 25.03] = [ 43.85,175.40] Ry 
 Optimized for a Real-space Cutoff    1.31 Angstroem

   l    n(q)    QCUT    max X(q) W(low)/X(q) W(high)/X(q)  e(spline) 
   2      9    12.514    65.824    0.30E-03    0.46E-03    0.43E-06
   2      9    12.514    61.429    0.31E-03    0.46E-03    0.44E-06
   0     10    12.514    56.174    0.90E-04    0.33E-03    0.30E-06
   0     10    12.514    31.263    0.81E-04    0.30E-03    0.28E-06
   1      9    12.514    19.828    0.38E-03    0.65E-04    0.24E-06
   1      9    12.514    15.139    0.32E-03    0.60E-04    0.20E-06
 Optimization of the real space projectors (new method)

 maximal supplied QI-value         = 24.76
 optimisation between [QCUT,QGAM] = [ 12.38, 25.00] = [ 42.90,175.06] Ry 
 Optimized for a Real-space Cutoff    1.13 Angstroem

   l    n(q)    QCUT    max X(q) W(low)/X(q) W(high)/X(q)  e(spline) 
   0      8    12.378    20.381    0.16E-03    0.54E-05    0.27E-06
   0      8    12.378    15.268    0.17E-03    0.61E-05    0.29E-06
   1      8    12.378     5.964    0.38E-03    0.23E-03    0.28E-06
   1      8    12.378     5.382    0.33E-03    0.20E-03    0.25E-06
  PAW_PBE Li 17Jan2003                  :
 energy of atom  1       EATOM=   -5.3001
 kinetic energy error for atom=    0.0000 (will be added to EATOM!!)
  PAW_PBE Co 02Aug2007                  :
 energy of atom  2       EATOM= -813.3670
 kinetic energy error for atom=    0.0018 (will be added to EATOM!!)
  PAW_PBE O 08Apr2002                   :
 energy of atom  3       EATOM= -432.3788
 kinetic energy error for atom=    0.0168 (will be added to EATOM!!)
 
 
 POSCAR: Li6 Co12 O24                            
  positions in cartesian coordinates
  No initial velocities read in
 exchange correlation table for  LEXCH =        8
   RHO(1)=    0.500       N(1)  =     2000
   RHO(2)=  100.500       N(2)  =     4000
 


--------------------------------------------------------------------------------------------------------


 ion  position               nearest neighbor table
   1  0.543  0.060  1.000-  25 1.90  37 1.95  23 2.12  36 2.18  38 2.33  24 2.50   9 2.60  10 2.91
                            15 2.94  17 3.00   8 3.00  16 3.01
   2  0.760  0.641  0.349-  22 1.99  33 2.07  34 2.16  32 2.22  19 2.53  14 2.84  12 2.86  11 2.90
                            10 3.10
   3  0.164  0.355  0.665-  29 2.03  27 2.04  40 2.10  28 2.13  42 2.19  39 2.31  14 2.73  12 2.82
                             4 2.82   6 2.83   5 2.85  11 2.87  17 2.88   6 2.89   4 2.90   5 2.91
   4  0.176  0.868  0.678-  39 1.79  41 2.00  27 2.08  40 2.18  28 2.20  30 2.25  15 2.58   5 2.72
                             3 2.82   6 2.85  16 2.85   6 2.87   3 2.90  11 2.92  13 2.94  18 2.95
   5  0.687  0.407  0.683-  42 1.72  30 1.97  40 2.02  41 2.29  27 2.31  29 2.42   6 2.62  18 2.65
                             4 2.72  15 2.74   3 2.85   3 2.91  17 2.93  14 2.94   4 2.99  12 3.04
   6  0.674  0.859  0.680-  42 1.84  41 1.91  39 2.00  29 2.13  28 2.21  30 2.27   5 2.62  17 2.67
                             3 2.83  16 2.84   4 2.85   4 2.87   3 2.89  14 2.93  11 2.94  18 2.95
   7  0.175  0.318  0.168-  19 1.86  23 1.92  24 1.95  20 1.98  22 2.02  25 2.05  10 2.83   9 2.83
                             8 2.85   8 2.87  10 2.89   9 2.90
   8  0.159  0.812  0.153-  23 1.87  24 1.87  26 1.88  20 1.89  19 1.97  21 2.04   9 2.76  10 2.79
                             7 2.85   7 2.87  10 2.93   9 2.94   1 3.00
   9  0.673  0.329  0.155-  20 1.85  21 1.87  23 1.87  25 1.90  22 1.91  26 1.91   1 2.60  10 2.75
                             8 2.76   7 2.83   7 2.90   8 2.94  10 2.95
  10  0.670  0.809  0.153-  26 1.84  19 1.86  25 1.86  22 1.86  21 1.94  24 1.99   9 2.75   8 2.79
                             7 2.83   7 2.89   1 2.91   8 2.93   9 2.95   2 3.10
  11  0.973  0.994  0.509-  31 1.92  29 1.93  34 1.93  30 1.96  27 1.98  32 2.06  14 2.80  13 2.82
                            12 2.83   3 2.87  12 2.87  13 2.89   2 2.90  14 2.91   4 2.92   6 2.94
  12  0.980  0.501  0.505-  31 1.86  32 1.86  33 1.91  30 1.94  29 1.97  28 2.00  14 2.75   3 2.82
                            11 2.83  13 2.85  13 2.85   2 2.86  11 2.87  14 2.98   5 3.04   4 3.08
  13  0.474  0.008  0.507-  33 1.86  28 1.86  34 1.90  32 1.93  27 1.99  29 2.02  14 2.78  11 2.82
                            12 2.85  12 2.85  11 2.89  14 2.93   4 2.94   6 3.02   5 3.21
  14  0.469  0.518  0.513-  34 1.72  31 1.81  28 1.85  30 1.95  27 1.97  33 2.07   3 2.73  12 2.75
                            13 2.78  11 2.80   2 2.84  11 2.91  13 2.93   6 2.93   5 2.94  12 2.98
  15  0.347  0.169  0.825-  35 1.88  39 1.90  41 1.93  36 1.99  37 2.06  42 2.19   4 2.58   5 2.74
                            17 2.77  16 2.77  18 2.86  18 2.86   3 2.92   1 2.94  16 2.94  17 2.95
  16  0.346  0.683  0.835-  36 1.80  35 1.89  40 1.89  41 1.95  38 2.07  42 2.11  15 2.77  18 2.80
                            17 2.83   6 2.84   4 2.85  17 2.88  18 2.92   3 2.94  15 2.94   1 3.01
  17  0.865  0.173  0.831-  35 1.85  38 1.87  40 1.94  41 2.00  39 2.04  37 2.05   6 2.67  15 2.77
                            16 2.83  18 2.84   3 2.88  18 2.88  16 2.88   5 2.93  15 2.95   1 3.00
  18  0.850  0.669  0.843-  38 1.87  37 1.88  36 1.92  39 1.99  40 2.01  42 2.02   5 2.65  16 2.80
                            17 2.84  15 2.86  15 2.86  17 2.88  16 2.92   4 2.95   6 2.95
  19  0.992  0.981  0.223-  10 1.86   7 1.86   8 1.97   2 2.53
  20  0.993  0.495  0.225-   9 1.85   8 1.89   7 1.98
  21  0.530  0.003  0.220-   9 1.87  10 1.94   8 2.04
  22  0.546  0.512  0.231-  10 1.86   9 1.91   2 1.99   7 2.02
  23  0.329  0.150  0.097-   8 1.87   9 1.87   7 1.92   1 2.12
  24  0.307  0.635  0.090-   8 1.87   7 1.95  10 1.99   1 2.50
  25  0.815  0.139  0.093-  10 1.86   9 1.90   1 1.90   7 2.05
  26  0.827  0.656  0.086-  10 1.84   8 1.88   9 1.91
  27  0.317  0.179  0.583-  14 1.97  11 1.98  13 1.99   3 2.04   4 2.08   5 2.31
  28  0.331  0.697  0.578-  14 1.85  13 1.86  12 2.00   3 2.13   4 2.20   6 2.21
  29  0.828  0.173  0.581-  11 1.93  12 1.97  13 2.02   3 2.03   6 2.13   5 2.42
  30  0.817  0.659  0.580-  12 1.94  14 1.95  11 1.96   5 1.97   4 2.25   6 2.27
  31  0.149  0.338  0.449-  14 1.81  12 1.86  11 1.92
  32  0.140  0.813  0.435-  12 1.86  13 1.93  11 2.06   2 2.22
  33  0.635  0.328  0.441-  13 1.86  12 1.91   2 2.07  14 2.07
  34  0.617  0.811  0.450-  14 1.72  13 1.90  11 1.93   2 2.16
  35  0.201  0.342  0.892-  17 1.85  15 1.88  16 1.89
  36  0.202  0.841  0.902-  16 1.80  18 1.92  15 1.99   1 2.18
  37  0.693  0.342  0.908-  18 1.88   1 1.95  17 2.05  15 2.06
  38  0.720  0.865  0.904-  17 1.87  18 1.87  16 2.07   1 2.33
  39  0.013  0.977  0.756-   4 1.79  15 1.90  18 1.99   6 2.00  17 2.04   3 2.31
  40  0.019  0.511  0.764-  16 1.89  17 1.94  18 2.01   5 2.02   3 2.10   4 2.18
  41  0.512  0.002  0.758-   6 1.91  15 1.93  16 1.95   4 2.00  17 2.00   5 2.29
  42  0.543  0.548  0.748-   5 1.72   6 1.84  18 2.02  16 2.11  15 2.19   3 2.19
 

IMPORTANT INFORMATION: All symmetrisations will be switched off!
NOSYMM: (Re-)initialisation of all symmetry stuff for point group C_1.

 
 

Automatic generation of k-mesh.
 generate k-points for:    6    6    2
Space group operators:
 irot       det(A)        alpha          n_x          n_y          n_z        tau_x        tau_y        tau_z
    1     1.000000     0.000000     1.000000     0.000000     0.000000     0.000000     0.000000     0.000000
 
 Subroutine IBZKPT returns following result:
 ===========================================
 
 Found     36 irreducible k-points:
 
 Following reciprocal coordinates:
            Coordinates               Weight
  0.083333  0.083333  0.250000      2.000000
  0.250000  0.083333  0.250000      2.000000
  0.416667  0.083333  0.250000      2.000000
 -0.416667  0.083333  0.250000      2.000000
 -0.250000  0.083333  0.250000      2.000000
 -0.083333  0.083333  0.250000      2.000000
  0.083333  0.250000  0.250000      2.000000
  0.250000  0.250000  0.250000      2.000000
  0.416667  0.250000  0.250000      2.000000
 -0.416667  0.250000  0.250000      2.000000
 -0.250000  0.250000  0.250000      2.000000
 -0.083333  0.250000  0.250000      2.000000
  0.083333  0.416667  0.250000      2.000000
  0.250000  0.416667  0.250000      2.000000
  0.416667  0.416667  0.250000      2.000000
 -0.416667  0.416667  0.250000      2.000000
 -0.250000  0.416667  0.250000      2.000000
 -0.083333  0.416667  0.250000      2.000000
  0.083333 -0.416667  0.250000      2.000000
  0.250000 -0.416667  0.250000      2.000000
  0.416667 -0.416667  0.250000      2.000000
 -0.416667 -0.416667  0.250000      2.000000
 -0.250000 -0.416667  0.250000      2.000000
 -0.083333 -0.416667  0.250000      2.000000
  0.083333 -0.250000  0.250000      2.000000
  0.250000 -0.250000  0.250000      2.000000
  0.416667 -0.250000  0.250000      2.000000
 -0.416667 -0.250000  0.250000      2.000000
 -0.250000 -0.250000  0.250000      2.000000
 -0.083333 -0.250000  0.250000      2.000000
  0.083333 -0.083333  0.250000      2.000000
  0.250000 -0.083333  0.250000      2.000000
  0.416667 -0.083333  0.250000      2.000000
 -0.416667 -0.083333  0.250000      2.000000
 -0.250000 -0.083333  0.250000      2.000000
 -0.083333 -0.083333  0.250000      2.000000
 
 Following cartesian coordinates:
            Coordinates               Weight
  0.014578  0.025342  0.018070      2.000000
  0.043735  0.042250  0.019359      2.000000
  0.072892  0.059158  0.020648      2.000000
 -0.072892 -0.025382  0.014203      2.000000
 -0.043735 -0.008474  0.015492      2.000000
 -0.014578  0.008434  0.016781      2.000000
  0.014578  0.059118  0.018549      2.000000
  0.043735  0.076026  0.019838      2.000000
  0.072892  0.092934  0.021127      2.000000
 -0.072892  0.008394  0.014682      2.000000
 -0.043735  0.025302  0.015971      2.000000
 -0.014578  0.042210  0.017260      2.000000
  0.014578  0.092894  0.019028      2.000000
  0.043735  0.109802  0.020317      2.000000
  0.072892  0.126710  0.021606      2.000000
 -0.072892  0.042170  0.015161      2.000000
 -0.043735  0.059078  0.016450      2.000000
 -0.014578  0.075986  0.017739      2.000000
  0.014578 -0.075986  0.016633      2.000000
  0.043735 -0.059078  0.017922      2.000000
  0.072892 -0.042170  0.019211      2.000000
 -0.072892 -0.126710  0.012765      2.000000
 -0.043735 -0.109802  0.014054      2.000000
 -0.014578 -0.092894  0.015344      2.000000
  0.014578 -0.042210  0.017112      2.000000
  0.043735 -0.025302  0.018401      2.000000
  0.072892 -0.008394  0.019690      2.000000
 -0.072892 -0.092934  0.013244      2.000000
 -0.043735 -0.076026  0.014534      2.000000
 -0.014578 -0.059118  0.015823      2.000000
  0.014578 -0.008434  0.017591      2.000000
  0.043735  0.008474  0.018880      2.000000
  0.072892  0.025382  0.020169      2.000000
 -0.072892 -0.059158  0.013723      2.000000
 -0.043735 -0.042250  0.015013      2.000000
 -0.014578 -0.025342  0.016302      2.000000
 


--------------------------------------------------------------------------------------------------------




 Dimension of arrays:
   k-points           NKPTS =     36   k-points in BZ     NKDIM =     36   number of bands    NBANDS=    160
   number of dos      NEDOS =    301   number of ions     NIONS =     42
   non local maximal  LDIM  =      6   non local SUM 2l+1 LMDIM =     18
   total plane-waves  NPLWV = 116640
   max r-space proj   IRMAX =   2706   max aug-charges    IRDMAX=  11409
   dimension x,y,z NGX =    36 NGY =   36 NGZ =   90
   dimension x,y,z NGXF=    72 NGYF=   72 NGZF=  180
   support grid    NGXF=    72 NGYF=   72 NGZF=  180
   ions per type =               6  12  24
   NGX,Y,Z   is equivalent  to a cutoff of  10.47, 10.49, 10.28 a.u.
   NGXF,Y,Z  is equivalent  to a cutoff of  20.94, 20.98, 20.56 a.u.

 SYSTEM =  LiCoO2                                  
 POSCAR =  Li6 Co12 O24                            

 Startparameter for this run:
   NWRITE =      2    write-flag & timer
   PREC   = normal    normal or accurate (medium, high low for compatibility)
   ISTART =      0    job   : 0-new  1-cont  2-samecut
   ICHARG =      2    charge: 1-file 2-atom 10-const
   ISPIN  =      2    spin polarized calculation?
   LNONCOLLINEAR =      F non collinear calculations
   LSORBIT =      F    spin-orbit coupling
   INIWAV =      1    electr: 0-lowe 1-rand  2-diag
   LASPH  =      F    aspherical Exc in radial PAW
   METAGGA=      F    non-selfconsistent MetaGGA calc.

 Electronic Relaxation 1
   ENCUT  =  600.0 eV  44.10 Ry    6.64 a.u.  11.42 11.39 29.08*2*pi/ulx,y,z
   ENINI  =  600.0     initial cutoff
   ENAUG  =  605.4 eV  augmentation charge cutoff
   NELM   =    600;   NELMIN=  2; NELMDL= -5     # of ELM steps 
   EDIFF  = 0.1E-05   stopping-criterion for ELM
   LREAL  =      T    real-space projection
   NLSPLINE    = F    spline interpolate recip. space projectors
   LCOMPAT=      F    compatible to vasp.4.4
   GGA_COMPAT  = T    GGA compatible to vasp.4.4-vasp.4.6
   LMAXPAW     = -100 max onsite density
   LMAXMIX     =    2 max onsite mixed and CHGCAR
   VOSKOWN=      0    Vosko Wilk Nusair interpolation
   ROPT   =   -0.00050  -0.00050  -0.00050
 Ionic relaxation
   EDIFFG = 0.1E-04   stopping-criterion for IOM
   NSW    =      0    number of steps for IOM
   NBLOCK =      1;   KBLOCK =      1    inner block; outer block 
   IBRION =     -1    ionic relax: 0-MD 1-quasi-New 2-CG
   NFREE  =      0    steps in history (QN), initial steepest desc. (CG)
   ISIF   =      2    stress and relaxation
   IWAVPR =     10    prediction:  0-non 1-charg 2-wave 3-comb
   ISYM   =      0    0-nonsym 1-usesym 2-fastsym
   LCORR  =      T    Harris-Foulkes like correction to forces

   POTIM  = 0.5000    time-step for ionic-motion
   TEIN   =    0.0    initial temperature
   TEBEG  =    0.0;   TEEND  =   0.0 temperature during run
   SMASS  =  -3.00    Nose mass-parameter (am)
   estimated Nose-frequenzy (Omega)   =  0.10E-29 period in steps =****** mass=  -0.747E-27a.u.
   SCALEE = 1.0000    scale energy and forces
   NPACO  =    256;   APACO  = 16.0  distance and # of slots for P.C.
   PSTRESS=    0.0 pullay stress

  Mass of Ions in am
   POMASS =   7.01 58.93 16.00
  Ionic Valenz
   ZVAL   =   1.00  9.00  6.00
  Atomic Wigner-Seitz radii
   RWIGS  =  -1.00 -1.00 -1.00
  virtual crystal weights 
   VCA    =   1.00  1.00  1.00
   NELECT =     258.0000    total number of electrons
   NUPDOWN=       6.0000    fix difference up-down

 DOS related values:
   EMIN   =  10.00;   EMAX   =-10.00  energy-range for DOS
   EFERMI =   0.00
   ISMEAR =     0;   SIGMA  =   0.05  broadening in eV -4-tet -1-fermi 0-gaus

 Electronic relaxation 2 (details)
   IALGO  =     58    algorithm
   LDIAG  =      T    sub-space diagonalisation (order eigenvalues)
   LSUBROT=      F    optimize rotation matrix (better conditioning)
   TURBO    =      0    0=normal 1=particle mesh
   IRESTART =      0    0=no restart 2=restart with 2 vectors
   NREBOOT  =      0    no. of reboots
   NMIN     =      0    reboot dimension
   EREF     =   0.00    reference energy to select bands
   IMIX   =      4    mixing-type and parameters
     AMIX     =   0.40;   BMIX     =  1.00
     AMIX_MAG =   1.60;   BMIX_MAG =  1.00
     AMIN     =   0.10
     WC   =   100.;   INIMIX=   1;  MIXPRE=   1;  MAXMIX= -45

 Intra band minimization:
   WEIMIN = 0.0000     energy-eigenvalue tresh-hold
   EBREAK =  0.16E-08  absolut break condition
   DEPER  =   0.30     relativ break condition  

   TIME   =   0.40     timestep for ELM

  volume/ion in A,a.u.               =       9.77        65.93
  Fermi-wavevector in a.u.,A,eV,Ry     =   1.402517  2.650373 26.763403  1.967055
  Thomas-Fermi vector in A             =   2.525271
 
 Write flags
   LWAVE        =      F    write WAVECAR
   LDOWNSAMPLE  =      F    k-point downsampling of WAVECAR
   LCHARG       =      F    write CHGCAR
   LVTOT        =      F    write LOCPOT, total local potential
   LVHAR        =      F    write LOCPOT, Hartree potential only
   LELF         =      F    write electronic localiz. function (ELF)
   LORBIT       =     11    0 simple, 1 ext, 2 COOP (PROOUT), +10 PAW based schemes


 Dipole corrections
   LMONO  =      F    monopole corrections only (constant potential shift)
   LDIPOL =      F    correct potential (dipole corrections)
   IDIPOL =      0    1-x, 2-y, 3-z, 4-all directions 
   EPSILON=  1.0000000 bulk dielectric constant

 LDA+U is selected, type is set to LDAUTYPE =  2
   angular momentum for each species LDAUL =    -1    2   -1
   U (eV)           for each species LDAUU =   0.0  5.1  0.0
   J (eV)           for each species LDAUJ =   0.0  0.0  0.0
 Exchange correlation treatment:
   GGA     =    --    GGA type
   LEXCH   =     8    internal setting for exchange type
   VOSKOWN=      0    Vosko Wilk Nusair interpolation
   LHFCALC =     F    Hartree Fock is set to
   LHFONE  =     F    Hartree Fock one center treatment
   AEXX    =    0.0000 exact exchange contribution

 Linear response parameters
   LEPSILON=     F    determine dielectric tensor
   LRPA    =     F    only Hartree local field effects (RPA)
   LNABLA  =     F    use nabla operator in PAW spheres
   LVEL    =     F    velocity operator in full k-point grid
   LINTERFAST=   F  fast interpolation
   KINTER  =     0    interpolate to denser k-point grid
   CSHIFT  =0.1000    complex shift for real part using Kramers Kronig
   OMEGAMAX=  -1.0    maximum frequency
   DEG_THRESHOLD= 0.2000000E-02 threshold for treating states as degnerate
   RTIME   =   -0.100 relaxation time in fs
  (WPLASMAI=    0.000 imaginary part of plasma frequency in eV, 0.658/RTIME)
   DFIELD  = 0.0000000 0.0000000 0.0000000 field for delta impulse in time
 
 Orbital magnetization related:
   ORBITALMAG=     F  switch on orbital magnetization
   LCHIMAG   =     F  perturbation theory with respect to B field
   DQ        =  0.001000  dq finite difference perturbation B field
   LLRAUG    =     F  two centre corrections for induced B field



--------------------------------------------------------------------------------------------------------


 Static calculation
 charge density and potential will be updated during run
 spin polarized calculation
 Conjugate gradient for all bands (Freysoldt, et al. PRB 79, 241103 (2009))
 preconditioned conjugated gradient                                        
 perform sub-space diagonalisation
    before iterative eigenvector-optimisation
 modified Broyden-mixing scheme, WC =      100.0
 initial mixing is a Kerker type mixing with AMIX =  0.4000 and BMIX =      1.0000
 Hartree-type preconditioning will be used
 using additional bands           31
 real space projection scheme for non local part
 use partial core corrections
 no Harris-corrections to forces 
 use gradient corrections 
 use of overlap-Matrix (Vanderbilt PP)
 Gauss-broadening in eV      SIGMA  =   0.05


--------------------------------------------------------------------------------------------------------


  energy-cutoff  :      600.00
  volume of cell :      410.32
      direct lattice vectors                 reciprocal lattice vectors
     5.716207504  0.000000000  0.000000000     0.174941165  0.101448246  0.007734782
    -2.861506224  4.934488773  0.000000000     0.000000000  0.202655239  0.002874332
    -0.523522794 -0.206323445 14.546865463     0.000000000  0.000000000  0.068743332

  length of vectors
     5.716207504  5.704156145 14.557745028     0.202375850  0.202675621  0.068743332


 
 k-points in units of 2pi/SCALE and weight: read from INCAR                         
   0.01457843  0.02534196  0.01806993       0.028
   0.04373529  0.04225000  0.01935906       0.028
   0.07289215  0.05915804  0.02064819       0.028
  -0.07289215 -0.02538217  0.01420253       0.028
  -0.04373529 -0.00847413  0.01549167       0.028
  -0.01457843  0.00843392  0.01678080       0.028
   0.01457843  0.05911783  0.01854898       0.028
   0.04373529  0.07602587  0.01983811       0.028
   0.07289215  0.09293391  0.02112724       0.028
  -0.07289215  0.00839371  0.01468159       0.028
  -0.04373529  0.02530175  0.01597072       0.028
  -0.01457843  0.04220979  0.01725985       0.028
   0.01457843  0.09289370  0.01902804       0.028
   0.04373529  0.10980174  0.02031717       0.028
   0.07289215  0.12670979  0.02160630       0.028
  -0.07289215  0.04216958  0.01516065       0.028
  -0.04373529  0.05907762  0.01644978       0.028
  -0.01457843  0.07598566  0.01773891       0.028
   0.01457843 -0.07598566  0.01663276       0.028
   0.04373529 -0.05907762  0.01792189       0.028
   0.07289215 -0.04216958  0.01921102       0.028
  -0.07289215 -0.12670979  0.01276537       0.028
  -0.04373529 -0.10980174  0.01405450       0.028
  -0.01457843 -0.09289370  0.01534363       0.028
   0.01457843 -0.04220979  0.01711182       0.028
   0.04373529 -0.02530175  0.01840095       0.028
   0.07289215 -0.00839371  0.01969008       0.028
  -0.07289215 -0.09293391  0.01324442       0.028
  -0.04373529 -0.07602587  0.01453355       0.028
  -0.01457843 -0.05911783  0.01582268       0.028
   0.01457843 -0.00843392  0.01759087       0.028
   0.04373529  0.00847413  0.01888000       0.028
   0.07289215  0.02538217  0.02016913       0.028
  -0.07289215 -0.05915804  0.01372348       0.028
  -0.04373529 -0.04225000  0.01501261       0.028
  -0.01457843 -0.02534196  0.01630174       0.028
 
 k-points in reciprocal lattice and weights: read from INCAR                         
   0.08333333  0.08333333  0.25000000       0.028
   0.25000000  0.08333333  0.25000000       0.028
   0.41666667  0.08333333  0.25000000       0.028
  -0.41666667  0.08333333  0.25000000       0.028
  -0.25000000  0.08333333  0.25000000       0.028
  -0.08333333  0.08333333  0.25000000       0.028
   0.08333333  0.25000000  0.25000000       0.028
   0.25000000  0.25000000  0.25000000       0.028
   0.41666667  0.25000000  0.25000000       0.028
  -0.41666667  0.25000000  0.25000000       0.028
  -0.25000000  0.25000000  0.25000000       0.028
  -0.08333333  0.25000000  0.25000000       0.028
   0.08333333  0.41666667  0.25000000       0.028
   0.25000000  0.41666667  0.25000000       0.028
   0.41666667  0.41666667  0.25000000       0.028
  -0.41666667  0.41666667  0.25000000       0.028
  -0.25000000  0.41666667  0.25000000       0.028
  -0.08333333  0.41666667  0.25000000       0.028
   0.08333333 -0.41666667  0.25000000       0.028
   0.25000000 -0.41666667  0.25000000       0.028
   0.41666667 -0.41666667  0.25000000       0.028
  -0.41666667 -0.41666667  0.25000000       0.028
  -0.25000000 -0.41666667  0.25000000       0.028
  -0.08333333 -0.41666667  0.25000000       0.028
   0.08333333 -0.25000000  0.25000000       0.028
   0.25000000 -0.25000000  0.25000000       0.028
   0.41666667 -0.25000000  0.25000000       0.028
  -0.41666667 -0.25000000  0.25000000       0.028
  -0.25000000 -0.25000000  0.25000000       0.028
  -0.08333333 -0.25000000  0.25000000       0.028
   0.08333333 -0.08333333  0.25000000       0.028
   0.25000000 -0.08333333  0.25000000       0.028
   0.41666667 -0.08333333  0.25000000       0.028
  -0.41666667 -0.08333333  0.25000000       0.028
  -0.25000000 -0.08333333  0.25000000       0.028
  -0.08333333 -0.08333333  0.25000000       0.028
 
 position of ions in fractional coordinates (direct lattice) 
   0.54325365  0.06034335  0.99995221
   0.76010278  0.64069381  0.34870673
   0.16418318  0.35539280  0.66527459
   0.17640236  0.86838520  0.67804642
   0.68665961  0.40677891  0.68298562
   0.67369452  0.85875106  0.67960003
   0.17463855  0.31786580  0.16815926
   0.15873880  0.81204324  0.15314914
   0.67320379  0.32854480  0.15529326
   0.67022468  0.80943481  0.15338494
   0.97292512  0.99414980  0.50925404
   0.97987505  0.50138577  0.50485033
   0.47375588  0.00828398  0.50676347
   0.46886908  0.51846570  0.51294831
   0.34683636  0.16948727  0.82473917
   0.34625463  0.68348176  0.83525689
   0.86468791  0.17314257  0.83054112
   0.84984791  0.66915958  0.84285305
   0.99221800  0.98053882  0.22313466
   0.99284392  0.49548930  0.22496874
   0.52960960  0.00345786  0.21995941
   0.54615112  0.51197047  0.23071843
   0.32906126  0.14977496  0.09699753
   0.30677441  0.63503966  0.09022769
   0.81513753  0.13857814  0.09297192
   0.82669562  0.65589825  0.08623645
   0.31695867  0.17909448  0.58301495
   0.33074028  0.69731436  0.57758832
   0.82813731  0.17341542  0.58067286
   0.81685604  0.65863051  0.57959907
   0.14878560  0.33769253  0.44851930
   0.13998009  0.81271075  0.43466753
   0.63543773  0.32849017  0.44135075
   0.61666280  0.81109785  0.44955251
   0.20065243  0.34219272  0.89173641
   0.20199189  0.84063888  0.90243291
   0.69313015  0.34198035  0.90759553
   0.71960466  0.86544270  0.90439207
   0.01333162  0.97714264  0.75614020
   0.01874905  0.51085717  0.76423133
   0.51228758  0.00229545  0.75787252
   0.54318784  0.54826892  0.74827597
 
 position of ions in cartesian coordinates  (Angst):
   2.40917993  0.09145000 14.54617023
   2.32900000  3.08955002  5.07258987
  -0.42673999  1.61642003  9.67765999
  -1.83150995  4.14514017  9.86345005
   2.40352988  1.86633003  9.93529987
   1.03787005  4.09728003  9.88605022
   0.00066000  1.53381002  2.44619012
  -1.49645996  3.97542000  2.22783995
   2.82674003  1.58915997  2.25903010
   1.43464005  3.96250010  2.23127007
   2.45006990  4.80054998  7.40805006
   3.90214992  2.36992002  7.34398985
   2.41908002 -0.06368000  7.37181997
   0.92802000  2.45252991  7.46179008
   1.06582999  0.66617000 11.99736977
  -0.41380000  3.20029998 12.15036964
   4.01247978  0.68300998 12.08176994
   2.50184989  3.12806010 12.26086998
   2.74908996  4.79241991  3.24590993
   4.13967991  2.39857006  3.27258992
   2.90230989 -0.02832000  3.19971991
   1.53612006  2.47870994  3.35623002
   1.40162003  0.71904999  1.41101003
  -0.11082000  3.11497998  1.31253004
   4.21428013  0.66463000  1.35245001
   2.80356002  3.21872997  1.25446999
   0.99409997  0.76345003  8.48104000
  -0.40717000  3.32171988  8.40209961
   3.93357992  0.73591000  8.44696999
   2.48120999  3.13041997  8.43134975
  -0.35062999  1.57379997  6.52454996
  -1.75297999  3.92062998  6.32305002
   2.46126008  1.52987003  6.42026997
   0.96866000  3.90960002  6.53957987
  -0.29905999  1.50455999 12.97196960
  -1.72330999  3.96193004 13.12757015
   2.50834990  1.50023997 13.20267010
   1.16347003  4.08392000 13.15606976
  -3.11575007  4.66568995 10.99946976
  -1.75474000  2.36314011 11.11717033
   2.52501011 -0.14504001 11.02466965
   1.14435995  2.55103993 10.88506985
 


--------------------------------------------------------------------------------------------------------


 k-point  1 :   0.0833 0.0833 0.2500  plane waves:   13728
 k-point  2 :   0.2500 0.0833 0.2500  plane waves:   13707
 k-point  3 :   0.4167 0.0833 0.2500  plane waves:   13683
 k-point  4 :  -0.4167 0.0833 0.2500  plane waves:   13663
 k-point  5 :  -0.2500 0.0833 0.2500  plane waves:   13719
 k-point  6 :  -0.0833 0.0833 0.2500  plane waves:   13714
 k-point  7 :   0.0833 0.2500 0.2500  plane waves:   13694
 k-point  8 :   0.2500 0.2500 0.2500  plane waves:   13690
 k-point  9 :   0.4167 0.2500 0.2500  plane waves:   13670
 k-point 10 :  -0.4167 0.2500 0.2500  plane waves:   13690
 k-point 11 :  -0.2500 0.2500 0.2500  plane waves:   13698
 k-point 12 :  -0.0833 0.2500 0.2500  plane waves:   13723
 k-point 13 :   0.0833 0.4167 0.2500  plane waves:   13680
 k-point 14 :   0.2500 0.4167 0.2500  plane waves:   13667
 k-point 15 :   0.4167 0.4167 0.2500  plane waves:   13674
 k-point 16 :  -0.4167 0.4167 0.2500  plane waves:   13680
 k-point 17 :  -0.2500 0.4167 0.2500  plane waves:   13692
 k-point 18 :  -0.0833 0.4167 0.2500  plane waves:   13670
 k-point 19 :   0.0833-0.4167 0.2500  plane waves:   13692
 k-point 20 :   0.2500-0.4167 0.2500  plane waves:   13678
 k-point 21 :   0.4167-0.4167 0.2500  plane waves:   13673
 k-point 22 :  -0.4167-0.4167 0.2500  plane waves:   13666
 k-point 23 :  -0.2500-0.4167 0.2500  plane waves:   13687
 k-point 24 :  -0.0833-0.4167 0.2500  plane waves:   13681
 k-point 25 :   0.0833-0.2500 0.2500  plane waves:   13714
 k-point 26 :   0.2500-0.2500 0.2500  plane waves:   13716
 k-point 27 :   0.4167-0.2500 0.2500  plane waves:   13701
 k-point 28 :  -0.4167-0.2500 0.2500  plane waves:   13692
 k-point 29 :  -0.2500-0.2500 0.2500  plane waves:   13691
 k-point 30 :  -0.0833-0.2500 0.2500  plane waves:   13702
 k-point 31 :   0.0833-0.0833 0.2500  plane waves:   13736
 k-point 32 :   0.2500-0.0833 0.2500  plane waves:   13724
 k-point 33 :   0.4167-0.0833 0.2500  plane waves:   13687
 k-point 34 :  -0.4167-0.0833 0.2500  plane waves:   13683
 k-point 35 :  -0.2500-0.0833 0.2500  plane waves:   13686
 k-point 36 :  -0.0833-0.0833 0.2500  plane waves:   13710

 maximum and minimum number of plane-waves per node :      3452     3383

 maximum number of plane-waves:     13736
 maximum index in each direction: 
   IXMAX=   11   IYMAX=   11   IZMAX=   28
   IXMIN=  -11   IYMIN=  -11   IZMIN=  -29


 real space projection operators:
  total allocation   :       7216.71 KBytes
  max/ min on nodes  :       1807.41       1801.46


 parallel 3D FFT for wavefunctions:
    minimum data exchange during FFTs selected (reduces bandwidth)
 parallel 3D FFT for charge:
    minimum data exchange during FFTs selected (reduces bandwidth)


 total amount of memory used by VASP MPI-rank0   164119. kBytes
=======================================================================

   base      :      30000. kBytes
   nonlr-proj:       4134. kBytes
   fftplans  :       1690. kBytes
   grid      :       4644. kBytes
   one-center:        342. kBytes
   wavefun   :     123309. kBytes
 
     INWAV:  cpu time    0.0000: real time    0.0003
 Broyden mixing: mesh for mixing (old mesh)
   NGX = 23   NGY = 23   NGZ = 59
  (NGX  = 72   NGY  = 72   NGZ  =180)
  gives a total of  31211 points

 initial charge density was supplied:
 charge density of overlapping atoms calculated
 number of electron     258.0000000 magnetization       6.0000000
 keeping initial charge density in first step


--------------------------------------------------------------------------------------------------------


 Maximum index for non-local projection operator          665
 Maximum index for augmentation-charges          980 (set IRDMAX)


--------------------------------------------------------------------------------------------------------


 First call to EWALD:  gamma=   0.239
 Maximum number of real-space cells 4x 4x 2
 Maximum number of reciprocal cells 2x 2x 5

    FEWALD:  cpu time    0.0062: real time    0.0062


--------------------------------------- Iteration      1(   1)  ---------------------------------------


    POTLOK:  cpu time    0.0807: real time    0.0991
    SETDIJ:  cpu time    0.0185: real time    0.0194
    TRIAL :  cpu time   21.8669: real time   21.9990
    CORREC:  cpu time    0.0041: real time    0.0041
    --------------------------------------------
      LOOP:  cpu time   22.1807: real time   22.3338

 eigenvalue-minimisations  : 23040
 total energy-change (2. order) : 0.3454635E+04  (-0.1388541E+05)
 number of electron     258.0000000 magnetization       6.0000000
 augmentation part      258.0000000 magnetization       6.0000000

 Free energy of the ion-electron system (eV)
  ---------------------------------------------------
  alpha Z        PSCENC =       714.48832165
  Ewald energy   TEWEN  =    -13385.08130514
  -Hartree energ DENC   =     -7497.42992025
  -exchange      EXHF   =         0.00000000
  -V(xc)+E(xc)   XCENC  =       839.66596088
  PAW double counting   =     17015.18481625   -17491.61297812
  entropy T*S    EENTRO =        -0.00635073
  eigenvalues    EBANDS =      3090.55599423
  atomic energy  EATOM  =     20168.87094289
  ---------------------------------------------------
  free energy    TOTEN  =      3454.63548167 eV

  energy without entropy =     3454.64183239  energy(sigma->0) =     3454.63865703


--------------------------------------------------------------------------------------------------------




--------------------------------------- Iteration      1(   2)  ---------------------------------------


    TRIAL :  cpu time   23.2921: real time   23.3840
    CORREC:  cpu time    0.0049: real time    0.0049
    --------------------------------------------
      LOOP:  cpu time   23.3023: real time   23.3942

 eigenvalue-minimisations  : 25040
 total energy-change (2. order) :-0.3051811E+04  (-0.2812482E+04)
 number of electron     258.0000000 magnetization       6.0000000
 augmentation part      258.0000000 magnetization       6.0000000

 Free energy of the ion-electron system (eV)
  ---------------------------------------------------
  alpha Z        PSCENC =       714.48832165
  Ewald energy   TEWEN  =    -13385.08130514
  -Hartree energ DENC   =     -7497.42992025
  -exchange      EXHF   =         0.00000000
  -V(xc)+E(xc)   XCENC  =       839.66596088
  PAW double counting   =     17015.18481625   -17491.61297812
  entropy T*S    EENTRO =        -0.02230947
  eigenvalues    EBANDS =        38.76145038
  atomic energy  EATOM  =     20168.87094289
  ---------------------------------------------------
  free energy    TOTEN  =       402.82497906 eV

  energy without entropy =      402.84728854  energy(sigma->0) =      402.83613380


--------------------------------------------------------------------------------------------------------




--------------------------------------- Iteration      1(   3)  ---------------------------------------


    TRIAL :  cpu time   23.9480: real time   23.9698
    CORREC:  cpu time    0.0046: real time    0.0046
    --------------------------------------------
      LOOP:  cpu time   23.9571: real time   23.9788

 eigenvalue-minimisations  : 26144
 total energy-change (2. order) :-0.6242282E+03  (-0.5720308E+03)
 number of electron     258.0000000 magnetization       6.0000000
 augmentation part      258.0000000 magnetization       6.0000000

 Free energy of the ion-electron system (eV)
  ---------------------------------------------------
  alpha Z        PSCENC =       714.48832165
  Ewald energy   TEWEN  =    -13385.08130514
  -Hartree energ DENC   =     -7497.42992025
  -exchange      EXHF   =         0.00000000
  -V(xc)+E(xc)   XCENC  =       839.66596088
  PAW double counting   =     17015.18481625   -17491.61297812
  entropy T*S    EENTRO =        -0.03279089
  eigenvalues    EBANDS =      -585.45622276
  atomic energy  EATOM  =     20168.87094289
  ---------------------------------------------------
  free energy    TOTEN  =      -221.40317550 eV

  energy without entropy =     -221.37038460  energy(sigma->0) =     -221.38678005


--------------------------------------------------------------------------------------------------------




--------------------------------------- Iteration      1(   4)  ---------------------------------------


    TRIAL :  cpu time   23.5729: real time   23.6274
    CORREC:  cpu time    0.0047: real time    0.0048
    --------------------------------------------
      LOOP:  cpu time   23.5829: real time   23.6375

 eigenvalue-minimisations  : 25264
 total energy-change (2. order) :-0.4957364E+02  (-0.4848427E+02)
 number of electron     258.0000000 magnetization       6.0000000
 augmentation part      258.0000000 magnetization       6.0000000

 Free energy of the ion-electron system (eV)
  ---------------------------------------------------
  alpha Z        PSCENC =       714.48832165
  Ewald energy   TEWEN  =    -13385.08130514
  -Hartree energ DENC   =     -7497.42992025
  -exchange      EXHF   =         0.00000000
  -V(xc)+E(xc)   XCENC  =       839.66596088
  PAW double counting   =     17015.18481625   -17491.61297812
  entropy T*S    EENTRO =        -0.03813945
  eigenvalues    EBANDS =      -635.02451705
  atomic energy  EATOM  =     20168.87094289
  ---------------------------------------------------
  free energy    TOTEN  =      -270.97681834 eV

  energy without entropy =     -270.93867890  energy(sigma->0) =     -270.95774862


--------------------------------------------------------------------------------------------------------




--------------------------------------- Iteration      1(   5)  ---------------------------------------


    TRIAL :  cpu time   26.1216: real time   26.3164
    CORREC:  cpu time    0.0050: real time    0.0050
    CHARGE:  cpu time    0.4422: real time    0.4462
    --------------------------------------------
      LOOP:  cpu time   26.5729: real time   26.7717

 eigenvalue-minimisations  : 29520
 total energy-change (2. order) :-0.1821360E+01  (-0.1817824E+01)
 number of electron     258.0000062 magnetization       6.0000001
 augmentation part       67.7711836 magnetization       4.2712888

 Free energy of the ion-electron system (eV)
  ---------------------------------------------------
  alpha Z        PSCENC =       714.48832165
  Ewald energy   TEWEN  =    -13385.08130514
  -Hartree energ DENC   =     -7497.42992025
  -exchange      EXHF   =         0.00000000
  -V(xc)+E(xc)   XCENC  =       839.66596088
  PAW double counting   =     17015.18481625   -17491.61297812
  entropy T*S    EENTRO =        -0.03852123
  eigenvalues    EBANDS =      -636.84549487
  atomic energy  EATOM  =     20168.87094289
  ---------------------------------------------------
  free energy    TOTEN  =      -272.79817794 eV

  energy without entropy =     -272.75965671  energy(sigma->0) =     -272.77891732


--------------------------------------------------------------------------------------------------------




--------------------------------------- Iteration      1(   6)  ---------------------------------------


    POTLOK:  cpu time    0.0475: real time    0.0478
    SETDIJ:  cpu time    0.0123: real time    0.0124
    TRIAL :  cpu time   12.4145: real time   12.5243
    CORREC:  cpu time    4.4294: real time    4.4456
    CHARGE:  cpu time    0.4942: real time    0.4951
    --------------------------------------------
      LOOP:  cpu time   17.4020: real time   17.5293

 eigenvalue-minimisations  :     0
 total energy-change (2. order) : 0.4608020E+03  (-0.2936221E+03)
 number of electron     258.0000065 magnetization       6.0000004
 augmentation part       70.2217628 magnetization       4.3949216

 Free energy of the ion-electron system (eV)
  ---------------------------------------------------
  alpha Z        PSCENC =       714.48832165
  Ewald energy   TEWEN  =    -13385.08130514
  -Hartree energ DENC   =     -7372.26068539
  -exchange      EXHF   =         0.00000000
  -V(xc)+E(xc)   XCENC  =       874.90895161
  PAW double counting   =     23070.40615493   -23275.93665761
  entropy T*S    EENTRO =        -0.08823419
  eigenvalues    EBANDS =      -607.35338359
  atomic energy  EATOM  =     20168.87094289
  ---------------------------------------------------
  free energy    TOTEN  =       188.00381812 eV

  energy without entropy =      188.09205230  energy(sigma->0) =      188.04793521


--------------------------------------------------------------------------------------------------------




--------------------------------------- Iteration      1(   7)  ---------------------------------------


    POTLOK:  cpu time    0.0471: real time    0.0471
    SETDIJ:  cpu time    0.0129: real time    0.0129
    TRIAL :  cpu time   12.3048: real time   12.3296
    CORREC:  cpu time    4.3242: real time    4.3320
    CHARGE:  cpu time    0.4597: real time    0.4605
    --------------------------------------------
      LOOP:  cpu time   17.1532: real time   17.1866

 eigenvalue-minimisations  :     0
 total energy-change (2. order) : 0.1995944E+03  (-0.3502655E+04)
 number of electron     258.0000055 magnetization       6.0000003
 augmentation part       73.5081910 magnetization       4.2151476

 Free energy of the ion-electron system (eV)
  ---------------------------------------------------
  alpha Z        PSCENC =       714.48832165
  Ewald energy   TEWEN  =    -13385.08130514
  -Hartree energ DENC   =     -7333.29480724
  -exchange      EXHF   =         0.00000000
  -V(xc)+E(xc)   XCENC  =       867.33401468
  PAW double counting   =     23284.00265437   -23610.49686421
  entropy T*S    EENTRO =        -0.02122851
  eigenvalues    EBANDS =      -318.13652226
  atomic energy  EATOM  =     20168.87094289
  ---------------------------------------------------
  free energy    TOTEN  =       387.59820055 eV

  energy without entropy =      387.61942905  energy(sigma->0) =      387.60881480


--------------------------------------------------------------------------------------------------------




--------------------------------------- Iteration      1(   8)  ---------------------------------------


    POTLOK:  cpu time    0.0470: real time    0.0470
    SETDIJ:  cpu time    0.0127: real time    0.0127
    TRIAL :  cpu time   12.1771: real time   12.2166
    CORREC:  cpu time    4.3283: real time    4.3349
    CHARGE:  cpu time    0.4576: real time    0.4583
    --------------------------------------------
      LOOP:  cpu time   17.0268: real time   17.0736

 eigenvalue-minimisations  :     0
 total energy-change (2. order) : 0.3578845E+04  (-0.5629552E+03)
 number of electron     258.0000073 magnetization       6.0000001
 augmentation part       70.2629890 magnetization       4.4455626

 Free energy of the ion-electron system (eV)
  ---------------------------------------------------
  alpha Z        PSCENC =       714.48832165
  Ewald energy   TEWEN  =    -13385.08130514
  -Hartree energ DENC   =    -11760.40971600
  -exchange      EXHF   =         0.00000000
  -V(xc)+E(xc)   XCENC  =       898.79559317
  PAW double counting   =     26934.05170599   -27581.73457450
  entropy T*S    EENTRO =        -0.02494780
  eigenvalues    EBANDS =      7977.48296687
  atomic energy  EATOM  =     20168.87094289
  ---------------------------------------------------
  free energy    TOTEN  =      3966.44270642 eV

  energy without entropy =     3966.46765422  energy(sigma->0) =     3966.45518032


--------------------------------------------------------------------------------------------------------




--------------------------------------- Iteration      1(   9)  ---------------------------------------


    POTLOK:  cpu time    0.0478: real time    0.0478
    SETDIJ:  cpu time    0.0129: real time    0.0129
    TRIAL :  cpu time   12.3327: real time   12.3491
    CORREC:  cpu time    4.3932: real time    4.3969
    CHARGE:  cpu time    0.4786: real time    0.4788
    --------------------------------------------
      LOOP:  cpu time   17.2692: real time   17.2895

 eigenvalue-minimisations  :     0
 total energy-change (2. order) :-0.4994341E+03  (-0.6191225E+03)
 number of electron     258.0000035 magnetization       6.0000007
 augmentation part       75.4444560 magnetization       4.2470047

 Free energy of the ion-electron system (eV)
  ---------------------------------------------------
  alpha Z        PSCENC =       714.48832165
  Ewald energy   TEWEN  =    -13385.08130514
  -Hartree energ DENC   =     -9819.50972599
  -exchange      EXHF   =         0.00000000
  -V(xc)+E(xc)   XCENC  =       875.59189202
  PAW double counting   =     27097.21387879   -27596.93387369
  entropy T*S    EENTRO =        -0.05130741
  eigenvalues    EBANDS =      5412.39343866
  atomic energy  EATOM  =     20168.87094289
  ---------------------------------------------------
  free energy    TOTEN  =      3467.00862139 eV

  energy without entropy =     3467.05992881  energy(sigma->0) =     3467.03427510


--------------------------------------------------------------------------------------------------------




--------------------------------------- Iteration      1(  10)  ---------------------------------------


    POTLOK:  cpu time    0.0476: real time    0.0477
    SETDIJ:  cpu time    0.0129: real time    0.0129
    TRIAL :  cpu time   12.3491: real time   12.3614
    CORREC:  cpu time    4.4224: real time    4.4257
    CHARGE:  cpu time    0.4718: real time    0.4720
    --------------------------------------------
      LOOP:  cpu time   17.3080: real time   17.3238

 eigenvalue-minimisations  :     0
 total energy-change (2. order) :-0.1142603E+04  (-0.2382414E+04)
 number of electron     258.0000082 magnetization       6.0000004
 augmentation part       71.7081445 magnetization       3.1585296

 Free energy of the ion-electron system (eV)
  ---------------------------------------------------
  alpha Z        PSCENC =       714.48832165
  Ewald energy   TEWEN  =    -13385.08130514
  -Hartree energ DENC   =     -9686.70052062
  -exchange      EXHF   =         0.00000000
  -V(xc)+E(xc)   XCENC  =       863.74293477
  PAW double counting   =     27783.29489649   -28425.79039600
  entropy T*S    EENTRO =        -0.01702828
  eigenvalues    EBANDS =      4291.63253809
  atomic energy  EATOM  =     20168.87094289
  ---------------------------------------------------
  free energy    TOTEN  =      2324.40610471 eV

  energy without entropy =     2324.42313299  energy(sigma->0) =     2324.41461885


--------------------------------------------------------------------------------------------------------




--------------------------------------- Iteration      1(  11)  ---------------------------------------


    POTLOK:  cpu time    0.0460: real time    0.0460
    SETDIJ:  cpu time    0.0126: real time    0.0126
    TRIAL :  cpu time   12.4664: real time   12.4786
    CORREC:  cpu time    4.3928: real time    4.3959
    CHARGE:  cpu time    0.5325: real time    0.5328
    --------------------------------------------
      LOOP:  cpu time   17.4543: real time   17.4700

 eigenvalue-minimisations  :     0
 total energy-change (2. order) : 0.2514287E+04  (-0.4862827E+04)
 number of electron     258.0000040 magnetization       6.0000005
 augmentation part       75.3897884 magnetization       2.9468152

 Free energy of the ion-electron system (eV)
  ---------------------------------------------------
  alpha Z        PSCENC =       714.48832165
  Ewald energy   TEWEN  =    -13385.08130514
  -Hartree energ DENC   =    -11030.73205706
  -exchange      EXHF   =         0.00000000
  -V(xc)+E(xc)   XCENC  =       873.02076986
  PAW double counting   =     30424.15239461   -31069.83285228
  entropy T*S    EENTRO =        -0.02287293
  eigenvalues    EBANDS =      8143.82405018
  atomic energy  EATOM  =     20168.87094289
  ---------------------------------------------------
  free energy    TOTEN  =      4838.69323644 eV

  energy without entropy =     4838.71610937  energy(sigma->0) =     4838.70467290


--------------------------------------------------------------------------------------------------------




--------------------------------------- Iteration      1(  12)  ---------------------------------------


    POTLOK:  cpu time    0.0500: real time    0.0500
    SETDIJ:  cpu time    0.0128: real time    0.0128
    TRIAL :  cpu time   12.1251: real time   12.1331
    CORREC:  cpu time    4.5282: real time    4.5311
    CHARGE:  cpu time    0.4823: real time    0.4827
    --------------------------------------------
      LOOP:  cpu time   17.2033: real time   17.2146

 eigenvalue-minimisations  :     0
 total energy-change (2. order) :-0.1333831E+04  (-0.2085793E+04)
 number of electron     258.0000011 magnetization       6.0000006
 augmentation part       73.5288531 magnetization       4.2039728

 Free energy of the ion-electron system (eV)
  ---------------------------------------------------
  alpha Z        PSCENC =       714.48832165
  Ewald energy   TEWEN  =    -13385.08130514
  -Hartree energ DENC   =    -10503.69043211
  -exchange      EXHF   =         0.00000000
  -V(xc)+E(xc)   XCENC  =       850.96916348
  PAW double counting   =     31803.61912657   -32546.59343430
  entropy T*S    EENTRO =        -0.03899546
  eigenvalues    EBANDS =      6402.30239514
  atomic energy  EATOM  =     20168.87094289
  ---------------------------------------------------
  free energy    TOTEN  =      3504.86190524 eV

  energy without entropy =     3504.90090070  energy(sigma->0) =     3504.88140297


--------------------------------------------------------------------------------------------------------




--------------------------------------- Iteration      1(  13)  ---------------------------------------


    POTLOK:  cpu time    0.0463: real time    0.0463
    SETDIJ:  cpu time    0.0128: real time    0.0129
    TRIAL :  cpu time   12.3180: real time   12.3356
    CORREC:  cpu time    4.5251: real time    4.5277
    CHARGE:  cpu time    0.4660: real time    0.4663
    --------------------------------------------
      LOOP:  cpu time   17.3707: real time   17.3912

 eigenvalue-minimisations  :     0
 total energy-change (2. order) :-0.2698475E+01  (-0.2802463E+04)
 number of electron     258.0000031 magnetization       6.0000008
 augmentation part       80.8230928 magnetization       3.7473024

 Free energy of the ion-electron system (eV)
  ---------------------------------------------------
  alpha Z        PSCENC =       714.48832165
  Ewald energy   TEWEN  =    -13385.08130514
  -Hartree energ DENC   =     -9438.43636100
  -exchange      EXHF   =         0.00000000
  -V(xc)+E(xc)   XCENC  =       844.07144667
  PAW double counting   =     35017.05753687   -35768.93139736
  entropy T*S    EENTRO =        -0.02241797
  eigenvalues    EBANDS =      5350.16324105
  atomic energy  EATOM  =     20168.87094289
  ---------------------------------------------------
  free energy    TOTEN  =      3502.16343017 eV

  energy without entropy =     3502.18584814  energy(sigma->0) =     3502.17463915


--------------------------------------------------------------------------------------------------------




--------------------------------------- Iteration      1(  14)  ---------------------------------------


    POTLOK:  cpu time    0.0472: real time    0.0472
    SETDIJ:  cpu time    0.0128: real time    0.0128
    TRIAL :  cpu time   12.4020: real time   12.4168
    CORREC:  cpu time    4.4036: real time    4.4080
    CHARGE:  cpu time    0.4697: real time    0.4708
    --------------------------------------------
      LOOP:  cpu time   17.3394: real time   17.3597

 eigenvalue-minimisations  :     0
 total energy-change (2. order) :-0.2690466E+04  (-0.4811328E+03)
 number of electron     258.0000048 magnetization       6.0000003
 augmentation part       80.9729598 magnetization       3.5317026

 Free energy of the ion-electron system (eV)
  ---------------------------------------------------
  alpha Z        PSCENC =       714.48832165
  Ewald energy   TEWEN  =    -13385.08130514
  -Hartree energ DENC   =     -7719.75732547
  -exchange      EXHF   =         0.00000000
  -V(xc)+E(xc)   XCENC  =       833.01035881
  PAW double counting   =     35285.10009646   -36113.70057466
  entropy T*S    EENTRO =        -0.02296242
  eigenvalues    EBANDS =      1028.78953575
  atomic energy  EATOM  =     20168.87094289
  ---------------------------------------------------
  free energy    TOTEN  =       811.69763231 eV

  energy without entropy =      811.72059473  energy(sigma->0) =      811.70911352


--------------------------------------------------------------------------------------------------------




--------------------------------------- Iteration      1(  15)  ---------------------------------------


    POTLOK:  cpu time    0.0462: real time    0.0464
    SETDIJ:  cpu time    0.0125: real time    0.0126
    TRIAL :  cpu time   12.3623: real time   12.3719
    CORREC:  cpu time    4.3869: real time    4.3908
    CHARGE:  cpu time    0.4716: real time    0.4718
    --------------------------------------------
      LOOP:  cpu time   17.2837: real time   17.2981

 eigenvalue-minimisations  :     0
 total energy-change (2. order) :-0.2774471E+03  (-0.3859583E+03)
 number of electron     258.0000038 magnetization       6.0000005
 augmentation part       79.6593704 magnetization       3.6776773

 Free energy of the ion-electron system (eV)
  ---------------------------------------------------
  alpha Z        PSCENC =       714.48832165
  Ewald energy   TEWEN  =    -13385.08130514
  -Hartree energ DENC   =     -7662.80582281
  -exchange      EXHF   =         0.00000000
  -V(xc)+E(xc)   XCENC  =       830.90100101
  PAW double counting   =     31355.11540912   -32122.31208559
  entropy T*S    EENTRO =        -0.02269173
  eigenvalues    EBANDS =       635.09705059
  atomic energy  EATOM  =     20168.87094289
  ---------------------------------------------------
  free energy    TOTEN  =       534.25054932 eV

  energy without entropy =      534.27324105  energy(sigma->0) =      534.26189518


--------------------------------------------------------------------------------------------------------




--------------------------------------- Iteration      1(  16)  ---------------------------------------


    POTLOK:  cpu time    0.0462: real time    0.0462
    SETDIJ:  cpu time    0.0129: real time    0.0129
    TRIAL :  cpu time   12.3459: real time   12.3557
    CORREC:  cpu time    4.3580: real time    4.3619
    CHARGE:  cpu time    0.4737: real time    0.4739
    --------------------------------------------
      LOOP:  cpu time   17.2408: real time   17.2546

 eigenvalue-minimisations  :     0
 total energy-change (2. order) :-0.1469278E+03  (-0.1531402E+03)
 number of electron     258.0000045 magnetization       6.0000003
 augmentation part       79.0407826 magnetization       3.6670518

 Free energy of the ion-electron system (eV)
  ---------------------------------------------------
  alpha Z        PSCENC =       714.48832165
  Ewald energy   TEWEN  =    -13385.08130514
  -Hartree energ DENC   =     -7389.71853235
  -exchange      EXHF   =         0.00000000
  -V(xc)+E(xc)   XCENC  =       832.17588663
  PAW double counting   =     30983.14628480   -31714.24206441
  entropy T*S    EENTRO =        -0.02230359
  eigenvalues    EBANDS =       177.70592606
  atomic energy  EATOM  =     20168.87094289
  ---------------------------------------------------
  free energy    TOTEN  =       387.32276840 eV

  energy without entropy =      387.34507200  energy(sigma->0) =      387.33392020


--------------------------------------------------------------------------------------------------------




--------------------------------------- Iteration      1(  17)  ---------------------------------------


    POTLOK:  cpu time    0.0468: real time    0.0469
    SETDIJ:  cpu time    0.0128: real time    0.0128
    TRIAL :  cpu time   12.3528: real time   12.3704
    CORREC:  cpu time    4.3865: real time    4.3940
    CHARGE:  cpu time    0.4687: real time    0.4709
    --------------------------------------------
      LOOP:  cpu time   17.2724: real time   17.2998

 eigenvalue-minimisations  :     0
 total energy-change (2. order) :-0.1577963E+03  (-0.8762211E+02)
 number of electron     258.0000050 magnetization       6.0000002
 augmentation part       76.2310620 magnetization       3.8858022

 Free energy of the ion-electron system (eV)
  ---------------------------------------------------
  alpha Z        PSCENC =       714.48832165
  Ewald energy   TEWEN  =    -13385.08130514
  -Hartree energ DENC   =     -7234.73502772
  -exchange      EXHF   =         0.00000000
  -V(xc)+E(xc)   XCENC  =       830.65026007
  PAW double counting   =     29840.95029558   -30530.44708875
  entropy T*S    EENTRO =        -0.02378760
  eigenvalues    EBANDS =      -175.14758914
  atomic energy  EATOM  =     20168.87094289
  ---------------------------------------------------
  free energy    TOTEN  =       229.52650584 eV

  energy without entropy =      229.55029344  energy(sigma->0) =      229.53839964


--------------------------------------------------------------------------------------------------------




--------------------------------------- Iteration      1(  18)  ---------------------------------------


    POTLOK:  cpu time    0.0463: real time    0.0463
    SETDIJ:  cpu time    0.0129: real time    0.0129
    TRIAL :  cpu time   12.3931: real time   12.4128
    CORREC:  cpu time    4.5045: real time    4.5104
    CHARGE:  cpu time    0.4763: real time    0.4766
    --------------------------------------------
      LOOP:  cpu time   17.4372: real time   17.4631

 eigenvalue-minimisations  :     0
 total energy-change (2. order) :-0.9078282E+02  (-0.1081900E+03)
 number of electron     258.0000051 magnetization       6.0000002
 augmentation part       73.1745378 magnetization       4.1501436

 Free energy of the ion-electron system (eV)
  ---------------------------------------------------
  alpha Z        PSCENC =       714.48832165
  Ewald energy   TEWEN  =    -13385.08130514
  -Hartree energ DENC   =     -7153.48067709
  -exchange      EXHF   =         0.00000000
  -V(xc)+E(xc)   XCENC  =       832.85481678
  PAW double counting   =     27090.02700434   -27658.89672663
  entropy T*S    EENTRO =        -0.02768588
  eigenvalues    EBANDS =      -470.01490035
  atomic energy  EATOM  =     20168.87094289
  ---------------------------------------------------
  free energy    TOTEN  =       138.74368886 eV

  energy without entropy =      138.77137474  energy(sigma->0) =      138.75753180


--------------------------------------------------------------------------------------------------------




--------------------------------------- Iteration      1(  19)  ---------------------------------------


    POTLOK:  cpu time    0.0475: real time    0.0475
    SETDIJ:  cpu time    0.0127: real time    0.0134
    TRIAL :  cpu time   12.3504: real time   12.3701
    CORREC:  cpu time    4.4071: real time    4.4127
    CHARGE:  cpu time    0.4736: real time    0.4739
    --------------------------------------------
      LOOP:  cpu time   17.2955: real time   17.3218

 eigenvalue-minimisations  :     0
 total energy-change (2. order) :-0.7450874E+02  (-0.6813080E+02)
 number of electron     258.0000051 magnetization       6.0000002
 augmentation part       72.2776896 magnetization       4.3044569

 Free energy of the ion-electron system (eV)
  ---------------------------------------------------
  alpha Z        PSCENC =       714.48832165
  Ewald energy   TEWEN  =    -13385.08130514
  -Hartree energ DENC   =     -7058.22836917
  -exchange      EXHF   =         0.00000000
  -V(xc)+E(xc)   XCENC  =       837.87366894
  PAW double counting   =     24987.53862309   -25429.84408119
  entropy T*S    EENTRO =        -0.02145437
  eigenvalues    EBANDS =      -771.35516306
  atomic energy  EATOM  =     20168.87094289
  ---------------------------------------------------
  free energy    TOTEN  =        64.23495211 eV

  energy without entropy =       64.25640648  energy(sigma->0) =       64.24567930


--------------------------------------------------------------------------------------------------------




--------------------------------------- Iteration      1(  20)  ---------------------------------------


    POTLOK:  cpu time    0.0470: real time    0.0470
    SETDIJ:  cpu time    0.0127: real time    0.0127
    TRIAL :  cpu time   12.3617: real time   12.3857
    CORREC:  cpu time    4.3800: real time    4.3856
    CHARGE:  cpu time    0.4764: real time    0.4768
    --------------------------------------------
      LOOP:  cpu time   17.2817: real time   17.3119

 eigenvalue-minimisations  :     0
 total energy-change (2. order) :-0.5909938E+02  (-0.9408972E+02)
 number of electron     258.0000051 magnetization       6.0000001
 augmentation part       73.6222605 magnetization       4.5215791

 Free energy of the ion-electron system (eV)
  ---------------------------------------------------
  alpha Z        PSCENC =       714.48832165
  Ewald energy   TEWEN  =    -13385.08130514
  -Hartree energ DENC   =     -7004.22878155
  -exchange      EXHF   =         0.00000000
  -V(xc)+E(xc)   XCENC  =       841.95670662
  PAW double counting   =     24194.79967891   -24585.75971545
  entropy T*S    EENTRO =        -0.02270230
  eigenvalues    EBANDS =      -939.88882562
  atomic energy  EATOM  =     20168.87094289
  ---------------------------------------------------
  free energy    TOTEN  =         5.13556794 eV

  energy without entropy =        5.15827024  energy(sigma->0) =        5.14691909


--------------------------------------------------------------------------------------------------------




--------------------------------------- Iteration      1(  21)  ---------------------------------------


    POTLOK:  cpu time    0.0468: real time    0.0468
    SETDIJ:  cpu time    0.0130: real time    0.0130
    TRIAL :  cpu time   12.4377: real time   12.4671
    CORREC:  cpu time    4.3498: real time    4.3574
    CHARGE:  cpu time    0.4698: real time    0.4703
    --------------------------------------------
      LOOP:  cpu time   17.3211: real time   17.3587

 eigenvalue-minimisations  :     0
 total energy-change (2. order) :-0.9041788E+02  (-0.5357011E+02)
 number of electron     258.0000050 magnetization       6.0000002
 augmentation part       76.1598065 magnetization       4.5642373

 Free energy of the ion-electron system (eV)
  ---------------------------------------------------
  alpha Z        PSCENC =       714.48832165
  Ewald energy   TEWEN  =    -13385.08130514
  -Hartree energ DENC   =     -7281.11312245
  -exchange      EXHF   =         0.00000000
  -V(xc)+E(xc)   XCENC  =       846.13222571
  PAW double counting   =     23993.30326025   -24406.54127862
  entropy T*S    EENTRO =        -0.01795278
  eigenvalues    EBANDS =      -735.31864975
  atomic energy  EATOM  =     20168.87094289
  ---------------------------------------------------
  free energy    TOTEN  =       -85.28230776 eV

  energy without entropy =      -85.26435498  energy(sigma->0) =      -85.27333137


--------------------------------------------------------------------------------------------------------




--------------------------------------- Iteration      1(  22)  ---------------------------------------


    POTLOK:  cpu time    0.0469: real time    0.0469
    SETDIJ:  cpu time    0.0129: real time    0.0129
    TRIAL :  cpu time   12.2919: real time   12.3169
    CORREC:  cpu time    4.3375: real time    4.3453
    CHARGE:  cpu time    0.4791: real time    0.4796
    --------------------------------------------
      LOOP:  cpu time   17.1724: real time   17.2057

 eigenvalue-minimisations  :     0
 total energy-change (2. order) :-0.5279116E+02  (-0.1662779E+02)
 number of electron     258.0000050 magnetization       6.0000001
 augmentation part       77.0127963 magnetization       4.6027448

 Free energy of the ion-electron system (eV)
  ---------------------------------------------------
  alpha Z        PSCENC =       714.48832165
  Ewald energy   TEWEN  =    -13385.08130514
  -Hartree energ DENC   =     -7460.41265761
  -exchange      EXHF   =         0.00000000
  -V(xc)+E(xc)   XCENC  =       847.99754182
  PAW double counting   =     24194.41142381   -24681.87422442
  entropy T*S    EENTRO =        -0.01764912
  eigenvalues    EBANDS =      -536.45555800
  atomic energy  EATOM  =     20168.87094289
  ---------------------------------------------------
  free energy    TOTEN  =      -138.07346779 eV

  energy without entropy =     -138.05581867  energy(sigma->0) =     -138.06464323


--------------------------------------------------------------------------------------------------------




--------------------------------------- Iteration      1(  23)  ---------------------------------------


    POTLOK:  cpu time    0.0463: real time    0.0463
    SETDIJ:  cpu time    0.0130: real time    0.0130
    TRIAL :  cpu time   12.4283: real time   12.4528
    CORREC:  cpu time    4.4069: real time    4.4338
    CHARGE:  cpu time    0.4708: real time    0.4714
    --------------------------------------------
      LOOP:  cpu time   17.3697: real time   17.4217

 eigenvalue-minimisations  :     0
 total energy-change (2. order) :-0.1646175E+02  (-0.2148005E+02)
 number of electron     258.0000051 magnetization       6.0000002
 augmentation part       77.3319891 magnetization       4.6443403

 Free energy of the ion-electron system (eV)
  ---------------------------------------------------
  alpha Z        PSCENC =       714.48832165
  Ewald energy   TEWEN  =    -13385.08130514
  -Hartree energ DENC   =     -7576.99882007
  -exchange      EXHF   =         0.00000000
  -V(xc)+E(xc)   XCENC  =       848.45935778
  PAW double counting   =     24126.29397248   -24640.82532423
  entropy T*S    EENTRO =        -0.01898725
  eigenvalues    EBANDS =      -409.72471767
  atomic energy  EATOM  =     20168.87094289
  ---------------------------------------------------
  free energy    TOTEN  =      -154.53522143 eV

  energy without entropy =     -154.51623419  energy(sigma->0) =     -154.52572781


--------------------------------------------------------------------------------------------------------




--------------------------------------- Iteration      1(  24)  ---------------------------------------


    POTLOK:  cpu time    0.0467: real time    0.0467
    SETDIJ:  cpu time    0.0129: real time    0.0129
    TRIAL :  cpu time   12.4377: real time   12.4622
    CORREC:  cpu time    4.5957: real time    4.6202
    CHARGE:  cpu time    0.5374: real time    0.5379
    --------------------------------------------
      LOOP:  cpu time   17.6345: real time   17.6840

 eigenvalue-minimisations  :     0
 total energy-change (2. order) :-0.2130611E+02  (-0.1222122E+02)
 number of electron     258.0000050 magnetization       6.0000002
 augmentation part       76.9386889 magnetization       4.6812736

 Free energy of the ion-electron system (eV)
  ---------------------------------------------------
  alpha Z        PSCENC =       714.48832165
  Ewald energy   TEWEN  =    -13385.08130514
  -Hartree energ DENC   =     -7548.21572377
  -exchange      EXHF   =         0.00000000
  -V(xc)+E(xc)   XCENC  =       847.69321375
  PAW double counting   =     23870.23794087   -24393.02747698
  entropy T*S    EENTRO =        -0.01488480
  eigenvalues    EBANDS =      -450.78825855
  atomic energy  EATOM  =     20168.87094289
  ---------------------------------------------------
  free energy    TOTEN  =      -175.84133253 eV

  energy without entropy =     -175.82644773  energy(sigma->0) =     -175.83389013


--------------------------------------------------------------------------------------------------------




--------------------------------------- Iteration      1(  25)  ---------------------------------------


    POTLOK:  cpu time    0.0469: real time    0.0470
    SETDIJ:  cpu time    0.0127: real time    0.0127
    TRIAL :  cpu time   12.1636: real time   12.1814
    CORREC:  cpu time    4.5203: real time    4.5258
    CHARGE:  cpu time    0.4769: real time    0.4773
    --------------------------------------------
      LOOP:  cpu time   17.2247: real time   17.2484

 eigenvalue-minimisations  :     0
 total energy-change (2. order) :-0.1082957E+02  (-0.7896242E+01)
[...]
   20        1.579   3.361   0.000   4.940
   21        1.583   3.321   0.000   4.903
   22        1.571   3.396   0.000   4.966
   23        1.574   3.399   0.000   4.973
   24        1.581   3.336   0.000   4.917
   25        1.576   3.382   0.000   4.958
   26        1.583   3.364   0.000   4.947
   27        1.559   3.431   0.000   4.989
   28        1.565   3.453   0.000   5.018
   29        1.560   3.427   0.000   4.986
   30        1.563   3.437   0.000   5.000
   31        1.581   3.376   0.000   4.957
   32        1.574   3.355   0.000   4.929
   33        1.574   3.366   0.000   4.940
   34        1.572   3.435   0.000   5.008
   35        1.580   3.363   0.000   4.943
   36        1.571   3.387   0.000   4.958
   37        1.573   3.340   0.000   4.913
   38        1.576   3.352   0.000   4.928
   39        1.558   3.467   0.000   5.025
   40        1.555   3.467   0.000   5.022
   41        1.555   3.468   0.000   5.022
   42        1.555   3.460   0.000   5.015
--------------------------------------------------
tot         43.419  90.591  87.061 221.071
 


 magnetization (x)
 
# of ion       s       p       d       tot
------------------------------------------
    1       -0.001  -0.005   0.000  -0.005
    2        0.001  -0.000   0.000   0.000
    3        0.000  -0.000   0.000  -0.000
    4        0.000  -0.003   0.000  -0.002
    5        0.000   0.000   0.000   0.001
    6        0.000  -0.001   0.000  -0.000
    7        0.019   0.020   1.805   1.844
    8        0.016   0.019   1.490   1.525
    9        0.006   0.010  -0.092  -0.075
   10        0.013   0.019   1.345   1.377
   11        0.005   0.007   0.027   0.039
   12        0.013   0.012   1.580   1.605
   13        0.002   0.004  -0.024  -0.018
   14        0.011   0.013   1.301   1.326
   15        0.002   0.002   0.010   0.014
   16        0.003   0.004  -0.036  -0.029
   17        0.015   0.008   1.687   1.711
   18        0.002   0.002  -0.050  -0.047
   19        0.001  -0.190   0.000  -0.189
   20        0.000  -0.201   0.000  -0.201
   21        0.000  -0.223   0.000  -0.223
   22        0.000  -0.146   0.000  -0.145
   23        0.001  -0.169   0.000  -0.168
   24        0.001  -0.232   0.000  -0.231
   25       -0.000  -0.209   0.000  -0.209
   26        0.001  -0.125   0.000  -0.123
   27        0.000  -0.030   0.000  -0.030
   28        0.002  -0.086   0.000  -0.085
   29        0.000  -0.047   0.000  -0.046
   30        0.001  -0.077   0.000  -0.075
   31        0.001  -0.119   0.000  -0.118
   32        0.000  -0.100   0.000  -0.100
   33        0.001  -0.197   0.000  -0.196
   34        0.001  -0.028   0.000  -0.027
   35        0.000  -0.152   0.000  -0.152
   36       -0.001  -0.032   0.000  -0.033
   37       -0.001  -0.228   0.000  -0.229
   38       -0.000  -0.135   0.000  -0.135
   39        0.001  -0.041   0.000  -0.040
   40        0.001  -0.036   0.000  -0.036
   41        0.001  -0.038   0.000  -0.037
   42       -0.001  -0.020   0.000  -0.020
--------------------------------------------------
tot          0.121  -2.746   9.043   6.418
 
    FORLOC:  cpu time    0.0084: real time    0.0084
    FORNL :  cpu time    4.3460: real time    4.3473
    STRESS:  cpu time   13.1220: real time   13.1301
    FORCOR:  cpu time    0.0524: real time    0.0524
    OFIELD:  cpu time    0.0003: real time    0.0003

  DFT-D2 method for vdW energy calculation
  -------------------------------------------------------------------

  Parameters of vdW forcefield:
         C6(Jnm^6/mol)     R0(A)
   -----------------------------
   Li       1.610          0.825
   Co      10.800          1.562
   O        0.700          1.342

  IVDW =   1
  VDW_RADIUS =    50.000 A
  VDW_S6 =     0.750
  VDW_SR =     1.000
  VDW_D =    20.000
  LVDW_EWALD = F

  Number of pair interactions contributing to vdW energy: 1152335
  Edisp (eV):   -9.34452
    FORVDW:  cpu time    0.1732: real time    0.1751

  FORCE on cell =-STRESS in cart. coord.  units (eV):
  Direction    XX          YY          ZZ          XY          YZ          ZX
  --------------------------------------------------------------------------------------
  Alpha Z   714.48832   714.48832   714.48832
  Ewald   -1376.59891 -1126.95026-10881.59769   -40.78196   -98.65932   -20.32842
  Hartree  4867.31962  4972.54753 -2390.12314   -20.43842   -40.44388    -8.51445
  E(xc)   -1282.32322 -1281.69359 -1283.36023     0.05587    -0.13100     0.16432
  Local   -8421.45272 -8748.79678  8316.58858    60.11376   131.87860    30.18490
  n-local  -602.45364  -594.57206  -605.79012    -0.89521    -3.72980    -0.94462
  augment  2031.75139  2015.87478  2005.73777    -0.06153     3.98378    -1.52143
  Kinetic  4062.69750  4044.69308  4123.05885     1.32822     2.45183    -1.54571
  Fock        0.00000     0.00000     0.00000     0.00000     0.00000     0.00000
  vdW        -5.83036    -6.11572   -12.73438     0.16243     0.19719     0.28311
  -------------------------------------------------------------------------------------
  Total     -12.40202   -10.52470   -13.73205    -0.51684    -4.45258    -2.22230
  in kB     -48.42655   -41.09611   -53.61996    -2.01814   -17.38612    -8.67747
  external pressure =      -47.71 kB  Pullay stress =        0.00 kB


 VOLUME and BASIS-vectors are now :
 -----------------------------------------------------------------------------
  energy-cutoff  :      600.00
  volume of cell :      410.32
      direct lattice vectors                 reciprocal lattice vectors
     5.716207504  0.000000000  0.000000000     0.174941165  0.101448246  0.007734782
    -2.861506224  4.934488773  0.000000000     0.000000000  0.202655239  0.002874332
    -0.523522794 -0.206323445 14.546865463     0.000000000  0.000000000  0.068743332

  length of vectors
     5.716207504  5.704156145 14.557745028     0.202375850  0.202675621  0.068743332


 FORCES acting on ions:
    Electron-Ion                     Ewald-Force                    Non-Local-Force
 -----------------------------------------------------------------------------------------------
   0.307E+01 0.484E+01 -.466E+01   -.287E+01 -.431E+01 0.427E+01   -.495E+00 -.896E+00 -.237E+00
   -.978E+00 -.429E+01 0.181E+02   0.732E+00 0.385E+01 -.185E+02   0.404E+00 0.547E+00 -.122E-01
   0.145E+01 0.225E+00 -.134E+01   -.142E+01 -.250E+00 0.153E+01   0.112E+00 0.530E-01 0.381E+00
   -.334E+01 0.487E+01 0.179E+02   0.307E+01 -.439E+01 -.171E+02   0.905E+00 -.876E+00 -.139E+01
   -.753E+01 0.993E+01 0.171E+02   0.682E+01 -.923E+01 -.165E+02   0.170E+01 -.180E+01 -.145E+01
   -.235E+00 -.444E+01 0.177E+02   0.596E-01 0.408E+01 -.167E+02   0.174E+00 0.630E+00 -.152E+01
   -.325E+01 -.282E+02 -.205E+03   0.242E+01 0.284E+02 0.204E+03   -.373E+00 0.509E+00 0.174E+00
   -.447E+02 -.247E+02 -.131E+03   0.453E+02 0.250E+02 0.132E+03   -.778E-01 0.437E+00 0.831E+00
   0.124E+02 0.178E+02 -.921E+02   -.120E+02 -.189E+02 0.934E+02   -.158E+00 0.124E+00 -.762E+00
   0.653E+02 0.106E+02 -.848E+02   -.666E+02 -.956E+01 0.854E+02   -.514E+00 0.145E+00 -.167E+00
   -.259E+02 0.421E+01 0.241E+03   0.263E+02 -.312E+01 -.241E+03   0.435E+00 -.706E+00 0.167E+00
   0.267E+02 0.182E+02 0.211E+03   -.274E+02 -.187E+02 -.212E+03   0.376E+00 0.209E+00 0.151E+01
   0.176E+02 -.558E+02 0.222E+03   -.178E+02 0.563E+02 -.224E+03   0.470E+00 -.304E+00 0.166E+01
   -.581E+02 0.678E+02 0.167E+03   0.599E+02 -.706E+02 -.167E+03   0.991E+00 -.558E+00 0.715E+00
   -.285E+02 -.668E+02 -.379E+02   0.289E+02 0.668E+02 0.408E+02   0.905E+00 0.112E+01 -.122E+01
   -.773E+02 0.153E+02 -.107E+03   0.786E+02 -.159E+02 0.108E+03   0.186E+01 0.238E+00 -.174E+01
   0.316E+02 -.500E+01 -.476E+02   -.321E+02 0.503E+01 0.502E+02   -.542E+00 -.112E+00 -.153E+01
   0.273E+02 0.361E+02 -.142E+03   -.275E+02 -.356E+02 0.144E+03   0.742E+00 0.182E+00 -.314E+01
   -.211E+02 -.174E+02 -.418E+03   0.223E+02 0.157E+02 0.440E+03   -.207E+00 0.126E+01 -.217E+02
   -.435E+02 -.686E+00 -.413E+03   0.441E+02 0.354E+00 0.435E+03   0.656E+00 0.519E+00 -.225E+02
   0.220E+02 0.289E+02 -.406E+03   -.229E+02 -.303E+02 0.427E+03   0.166E+00 0.879E-01 -.216E+02
   0.405E+02 0.209E+02 -.411E+03   -.410E+02 -.231E+02 0.429E+03   -.479E+00 0.155E+01 -.189E+02
   0.248E+02 -.145E+02 0.230E+03   -.290E+02 0.171E+02 -.250E+03   0.403E+01 -.234E+01 0.203E+02
   -.152E+02 0.225E+02 0.227E+03   0.161E+02 -.269E+02 -.250E+03   0.105E+00 0.467E+01 0.231E+02
   -.315E+02 -.259E+02 0.231E+03   0.380E+02 0.303E+02 -.249E+03   -.587E+01 -.377E+01 0.184E+02
   -.216E+01 0.676E+01 0.265E+03   0.308E+01 -.799E+01 -.291E+03   -.776E+00 0.864E+00 0.259E+02
   -.936E+01 0.679E+01 -.173E+03   0.113E+02 -.754E+01 0.187E+03   -.193E+01 0.629E+00 -.146E+02
   0.331E+02 0.291E+01 -.212E+03   -.364E+02 -.112E+01 0.229E+03   0.264E+01 -.262E+01 -.160E+02
   0.128E+02 -.871E+01 -.184E+03   -.155E+02 0.817E+01 0.198E+03   0.232E+01 0.571E+00 -.145E+02
   -.182E+02 0.531E+01 -.176E+03   0.193E+02 -.576E+01 0.190E+03   -.116E+01 0.112E+01 -.144E+02
   -.103E+01 0.445E+02 0.467E+03   0.170E+01 -.475E+02 -.493E+03   -.128E+01 0.267E+01 0.251E+02
   0.211E+02 -.347E+02 0.457E+03   -.191E+02 0.382E+02 -.479E+03   -.334E+01 -.284E+01 0.233E+02
   0.173E+02 -.522E+00 0.442E+03   -.200E+02 -.420E+00 -.462E+03   0.221E+01 0.185E+01 0.195E+02
   -.223E+02 -.475E+02 0.475E+03   0.204E+02 0.536E+02 -.498E+03   0.272E+01 -.423E+01 0.216E+02
   -.248E+02 -.719E+01 -.362E+03   0.268E+02 0.726E+01 0.387E+03   -.214E+01 -.183E+00 -.254E+02
   0.735E+01 -.283E+02 -.375E+03   -.107E+02 0.307E+02 0.397E+03   0.264E+01 -.148E+01 -.224E+02
   0.132E+02 0.245E+02 -.333E+03   -.135E+02 -.254E+02 0.351E+03   0.152E+00 0.461E+00 -.198E+02
   0.254E+02 0.125E+02 -.353E+03   -.264E+02 -.135E+02 0.376E+03   -.738E-01 0.598E+00 -.231E+02
   0.176E+02 -.897E+01 0.255E+03   -.202E+02 0.524E+01 -.266E+03   0.166E+01 0.485E+01 0.123E+02
   0.134E+02 0.172E+02 0.263E+03   -.154E+02 -.154E+02 -.276E+03   0.145E+01 -.220E+01 0.124E+02
   -.164E+02 -.222E+02 0.249E+03   0.180E+02 0.219E+02 -.261E+03   -.176E+01 0.971E+00 0.131E+02
   0.130E+02 0.244E+02 0.215E+03   -.153E+02 -.224E+02 -.222E+03   0.880E+00 -.352E+01 0.979E+01
 -----------------------------------------------------------------------------------------------
   -.953E+01 0.159E+01 0.178E+02   -.195E-13 -.426E-13 0.313E-12   0.953E+01 -.157E+01 -.178E+02
 
 
 POSITION                                       TOTAL-FORCE (eV/Angst)
 -----------------------------------------------------------------------------------
      2.40918      0.09145     14.54617        -0.156359     -0.387340     -0.573913
      2.32900      3.08955      5.07259         0.190118      0.121924     -0.460776
     -0.42674      1.61642      9.67766         0.167265     -0.058343      0.585672
     -1.83151      4.14514      9.86345         0.408910     -0.345547     -0.451700
      2.40353      1.86633      9.93530         0.677091     -0.931140     -0.558784
      1.03787      4.09728      9.88605         0.002221      0.068072     -0.266948
      0.00066      1.53381      2.44619        -1.126593      0.568287     -0.989849
     -1.49646      3.97542      2.22784         0.521025      0.676899      1.134081
      2.82674      1.58916      2.25903         0.316233     -0.999167      0.520513
      1.43464      3.96250      2.23127        -1.598275      1.269701      0.412744
      2.45007      4.80055      7.40805         0.692282      0.370307      0.420158
      3.90215      2.36992      7.34399        -0.267039     -0.238235      0.539172
      2.41908     -0.06368      7.37182         0.294137      0.113854      0.442622
      0.92802      2.45253      7.46179         2.376682     -2.953044      0.552709
      1.06583      0.66617     11.99737         1.076124      0.829570      1.427988
     -0.41380      3.20030     12.15037         2.647522     -0.310063     -0.930456
      4.01248      0.68301     12.08177        -0.833075     -0.088000      0.898642
      2.50185      3.12806     12.26087         0.527411      0.723166     -1.313654
      2.74909      4.79242      3.24591         0.983921     -0.441672      0.367214
      4.13968      2.39857      3.27259         1.184597      0.208153     -0.226884
      2.90231     -0.02832      3.19972        -0.743199     -1.316810     -0.043448
      1.53612      2.47871      3.35623        -1.029707     -0.688541     -0.674561
      1.40162      0.71905      1.41101        -0.255007      0.246760     -0.370745
     -0.11082      3.11498      1.31253         1.006487      0.345481      0.692503
      4.21428      0.66463      1.35245         0.684378      0.635448     -0.035709
      2.80356      3.21873      1.25447         0.137052     -0.381117      0.173362
      0.99410      0.76345      8.48104         0.098519     -0.081999     -1.028410
     -0.40717      3.32172      8.40210        -0.686601     -0.799775      0.800805
      3.93358      0.73591      8.44697        -0.548884      0.074653     -0.519094
      2.48121      3.13042      8.43135        -0.129598      0.733209     -0.547042
     -0.35063      1.57380      6.52455        -0.603773     -0.354524     -0.494994
     -1.75298      3.92063      6.32305        -1.322938      0.687642      1.052630
      2.46126      1.52987      6.42027        -0.540668      0.814604      0.252467
      0.96866      3.90960      6.53958         0.766791      1.891356     -1.506066
     -0.29906      1.50456     12.97197        -0.146615     -0.096473     -0.155258
     -1.72331      3.96193     13.12757        -0.715231      0.857066     -0.165597
      2.50835      1.50024     13.20267        -0.142700     -0.350568     -1.865441
      1.16347      4.08392     13.15607        -1.108371     -0.396099     -0.823170
     -3.11575      4.66569     10.99947        -0.898501      1.199892      0.858057
     -1.75474      2.36314     11.11717        -0.433547     -0.395791     -0.166250
      2.52501     -0.14504     11.02467        -0.073595      0.762114      0.630166
      1.14436      2.55104     10.88507        -1.398486     -1.583909      2.407245
 -----------------------------------------------------------------------------------
    total drift:                               -0.000825      0.015677      0.001499


--------------------------------------------------------------------------------------------------------



  FREE ENERGIE OF THE ION-ELECTRON SYSTEM (eV)
  ---------------------------------------------------
  free  energy   TOTEN  =      -232.31707183 eV

  energy  without entropy=     -232.30929765  energy(sigma->0) =     -232.31318474
 


--------------------------------------------------------------------------------------------------------


    POTLOK:  cpu time    0.0718: real time    0.0719


--------------------------------------------------------------------------------------------------------


     LOOP+:  cpu time 2562.0190: real time 2567.7410
    4ORBIT:  cpu time    0.0000: real time    0.0000
 


 total charge     
 
# of ion       s       p       d       tot
------------------------------------------
    1        0.085   0.176   0.000   0.261
    2        0.068   0.131   0.000   0.199
    3        0.088   0.182   0.000   0.270
    4        0.108   0.232   0.000   0.341
    5        0.119   0.267   0.000   0.386
    6        0.113   0.244   0.000   0.357
    7        0.406   0.593   7.107   8.106
    8        0.445   0.685   7.178   8.308
    9        0.451   0.727   7.396   8.574
   10        0.464   0.747   7.220   8.431
   11        0.395   0.581   7.294   8.271
   12        0.443   0.678   7.198   8.319
   13        0.418   0.646   7.316   8.380
   14        0.478   0.761   7.275   8.515
   15        0.395   0.573   7.291   8.258
   16        0.418   0.623   7.339   8.380
   17        0.421   0.619   7.163   8.203
   18        0.408   0.609   7.286   8.303
   19        1.579   3.374   0.000   4.953
   20        1.579   3.361   0.000   4.940
   21        1.583   3.321   0.000   4.903
   22        1.571   3.396   0.000   4.966
   23        1.574   3.399   0.000   4.973
   24        1.581   3.336   0.000   4.917
   25        1.576   3.382   0.000   4.958
   26        1.583   3.364   0.000   4.947
   27        1.559   3.431   0.000   4.989
   28        1.565   3.453   0.000   5.018
   29        1.560   3.427   0.000   4.986
   30        1.563   3.437   0.000   5.000
   31        1.581   3.376   0.000   4.957
   32        1.574   3.355   0.000   4.929
   33        1.574   3.366   0.000   4.940
   34        1.572   3.435   0.000   5.008
   35        1.580   3.363   0.000   4.943
   36        1.571   3.387   0.000   4.958
   37        1.573   3.340   0.000   4.913
   38        1.576   3.352   0.000   4.928
   39        1.558   3.467   0.000   5.025
   40        1.555   3.467   0.000   5.022
   41        1.555   3.468   0.000   5.022
   42        1.555   3.460   0.000   5.015
--------------------------------------------------
tot         43.419  90.591  87.061 221.071
 


 magnetization (x)
 
# of ion       s       p       d       tot
------------------------------------------
    1       -0.001  -0.005   0.000  -0.005
    2        0.001  -0.000   0.000   0.000
    3        0.000  -0.000   0.000  -0.000
    4        0.000  -0.003   0.000  -0.002
    5        0.000   0.000   0.000   0.001
    6        0.000  -0.001   0.000  -0.000
    7        0.019   0.020   1.805   1.844
    8        0.016   0.019   1.490   1.525
    9        0.006   0.010  -0.092  -0.075
   10        0.013   0.019   1.345   1.377
   11        0.005   0.007   0.027   0.039
   12        0.013   0.012   1.580   1.605
   13        0.002   0.004  -0.024  -0.018
   14        0.011   0.013   1.301   1.326
   15        0.002   0.002   0.010   0.014
   16        0.003   0.004  -0.036  -0.029
   17        0.015   0.008   1.687   1.711
   18        0.002   0.002  -0.050  -0.047
   19        0.001  -0.190   0.000  -0.189
   20        0.000  -0.201   0.000  -0.201
   21        0.000  -0.223   0.000  -0.223
   22        0.000  -0.146   0.000  -0.145
   23        0.001  -0.169   0.000  -0.168
   24        0.001  -0.232   0.000  -0.231
   25       -0.000  -0.209   0.000  -0.209
   26        0.001  -0.125   0.000  -0.123
   27        0.000  -0.030   0.000  -0.030
   28        0.002  -0.086   0.000  -0.085
   29        0.000  -0.047   0.000  -0.046
   30        0.001  -0.077   0.000  -0.075
   31        0.001  -0.119   0.000  -0.118
   32        0.000  -0.100   0.000  -0.100
   33        0.001  -0.197   0.000  -0.196
   34        0.001  -0.028   0.000  -0.027
   35        0.000  -0.152   0.000  -0.152
   36       -0.001  -0.032   0.000  -0.033
   37       -0.001  -0.228   0.000  -0.229
   38       -0.000  -0.135   0.000  -0.135
   39        0.001  -0.041   0.000  -0.040
   40        0.001  -0.036   0.000  -0.036
   41        0.001  -0.038   0.000  -0.037
   42       -0.001  -0.020   0.000  -0.020
--------------------------------------------------
tot          0.121  -2.746   9.043   6.418
 

 total amount of memory used by VASP MPI-rank0   164119. kBytes
=======================================================================

   base      :      30000. kBytes
   nonlr-proj:       4134. kBytes
   fftplans  :       1690. kBytes
   grid      :       4644. kBytes
   one-center:        342. kBytes
   wavefun   :     123309. kBytes
 
  
  
 General timing and accounting informations for this job:
 ========================================================
  
                  Total CPU time used (sec):     2589.229
                            User time (sec):     2336.753
                          System time (sec):      252.476
                         Elapsed time (sec):     2595.529
  
                   Maximum memory used (kb):      746980.
                   Average memory used (kb):           0.
  
                          Minor page faults:        72216
                          Major page faults:           89
                 Voluntary context switches:          646
