       N       E                     dE             d eps       ncg     rms          ort
DAV:   1     0.360564289485E+04    0.36056E+04   -0.14073E+05  5760   0.229E+03
DAV:   2     0.415420922571E+03   -0.31902E+04   -0.29382E+04  5760   0.566E+02
DAV:   3    -0.219650249770E+03   -0.63507E+03   -0.57016E+03  5760   0.262E+02
DAV:   4    -0.270104862344E+03   -0.50455E+02   -0.49522E+02  5760   0.764E+01
DAV:   5    -0.271574020410E+03   -0.14692E+01   -0.14669E+01  5760   0.130E+01
SDA:   6     0.904780907420E+02    0.36205E+03   -0.14669E+01  5760   0.554E+04 0.000E+00
CGA:   7    -0.100575585991E+02   -0.10054E+03   -0.22797E+03  5760   0.173E+04 0.153E+04
CGA:   8    -0.996090660499E+02   -0.89552E+02   -0.43338E+02  5760   0.278E+04 0.268E+04
CGA:   9    -0.129784877592E+03   -0.30176E+02   -0.73936E+02  5760   0.925E+03 0.142E+03
CGA:  10    -0.156261532187E+03   -0.26477E+02   -0.53962E+02  5760   0.288E+04-0.887E+03
CGA:  11    -0.185364673510E+03   -0.29103E+02   -0.61246E+02  5760   0.530E+03-0.792E+03
CGA:  12    -0.194166078467E+03   -0.88014E+01   -0.12411E+02  5760   0.717E+03-0.493E+03
CGA:  13    -0.189083708428E+03    0.50824E+01   -0.51626E+02  5760   0.148E+03-0.412E+02
CGA:  14    -0.192552248227E+03   -0.34685E+01   -0.18364E+01  5760   0.123E+03 0.127E+03
CGA:  15    -0.195231807813E+03   -0.26796E+01   -0.12635E+01  5760   0.137E+03 0.150E+03
CGA:  16    -0.202200687065E+03   -0.69689E+01   -0.14563E+01  5760   0.458E+03 0.638E+03
CGA:  17    -0.206392324225E+03   -0.41916E+01   -0.11733E+02  5760   0.264E+03-0.316E+03
CGA:  18    -0.199109359122E+03    0.72830E+01   -0.13969E+02  5760   0.187E+03-0.716E+02
CGA:  19    -0.208984246302E+03   -0.98749E+01   -0.23901E+01  5760   0.220E+03 0.281E+03
CGA:  20    -0.212548289689E+03   -0.35640E+01   -0.48822E+01  5760   0.200E+02-0.333E+02
CGA:  21    -0.213995371171E+03   -0.14471E+01   -0.15542E+01  5760   0.304E+02 0.148E+01
CGA:  22    -0.216404120533E+03   -0.24087E+01   -0.25919E+01  5760   0.207E+02 0.837E+00
CGA:  23    -0.217514022707E+03   -0.11099E+01   -0.12710E+01  5760   0.922E+01-0.106E+01
CGA:  24    -0.217988161681E+03   -0.47414E+00   -0.53324E+00  5760   0.446E+01-0.310E+00
CGA:  25    -0.218294332605E+03   -0.30617E+00   -0.31917E+00  5760   0.249E+01 0.331E-01
CGA:  26    -0.218532223500E+03   -0.23789E+00   -0.23973E+00  5760   0.149E+01 0.951E-01
CGA:  27    -0.218653908556E+03   -0.12169E+00   -0.12493E+00  5760   0.829E+00 0.356E-01
CGA:  28    -0.218728216764E+03   -0.74308E-01   -0.75147E-01  5760   0.634E+00 0.250E-01
CGA:  29    -0.218801948211E+03   -0.73731E-01   -0.73330E-01  5760   0.672E+00 0.252E-01
CGA:  30    -0.218930388782E+03   -0.12844E+00   -0.11959E+00  5760   0.571E+00 0.111E+00
CGA:  31    -0.219025386339E+03   -0.94998E-01   -0.91480E-01  5760   0.749E+00 0.778E-01
CGA:  32    -0.219241816914E+03   -0.21643E+00   -0.21812E+00  5760   0.157E+01-0.441E-01
CGA:  33    -0.219465280068E+03   -0.22346E+00   -0.22348E+00  5760   0.216E+01-0.346E-01
CGA:  34    -0.219629771562E+03   -0.16449E+00   -0.16127E+00  5760   0.189E+01-0.137E-01
CGA:  35    -0.219779951676E+03   -0.15018E+00   -0.15502E+00  5760   0.170E+01 0.383E-01
CGA:  36    -0.219942547231E+03   -0.16260E+00   -0.16570E+00  5760   0.142E+01 0.617E-01
CGA:  37    -0.220104203299E+03   -0.16166E+00   -0.16177E+00  5760   0.952E+00 0.379E-01
CGA:  38    -0.220224427862E+03   -0.12022E+00   -0.12093E+00  5760   0.887E+00-0.176E+00
CGA:  39    -0.220309270903E+03   -0.84843E-01   -0.86514E-01  5760   0.105E+01-0.102E+00
CGA:  40    -0.220385379829E+03   -0.76109E-01   -0.77131E-01  5760   0.945E+00 0.630E-01
CGA:  41    -0.220459806571E+03   -0.74427E-01   -0.77140E-01  5760   0.663E+00 0.259E-02
CGA:  42    -0.220519842839E+03   -0.60036E-01   -0.59911E-01  5760   0.571E+00-0.160E-01
CGA:  43    -0.220571767362E+03   -0.51925E-01   -0.51851E-01  5760   0.483E+00-0.268E-02
CGA:  44    -0.220613894380E+03   -0.42127E-01   -0.41961E-01  5760   0.374E+00-0.224E-02
CGA:  45    -0.220646672243E+03   -0.32778E-01   -0.32643E-01  5760   0.314E+00-0.171E-02
CGA:  46    -0.220673999664E+03   -0.27327E-01   -0.27295E-01  5760   0.266E+00-0.199E-03
CGA:  47    -0.220697141460E+03   -0.23142E-01   -0.23194E-01  5760   0.219E+00 0.962E-03
CGA:  48    -0.220717079442E+03   -0.19938E-01   -0.19971E-01  5760   0.184E+00 0.785E-03
CGA:  49    -0.220734562675E+03   -0.17483E-01   -0.17486E-01  5760   0.161E+00 0.390E-04
SDA:  50    -0.220749456463E+03   -0.14894E-01   -0.14868E-01  5760   0.138E+00-0.830E-03
CGA:  51    -0.220774004002E+03   -0.24548E-01   -0.24573E-01  5760   0.826E-01-0.325E-03
CGA:  52    -0.220801986975E+03   -0.27983E-01   -0.27864E-01  5760   0.309E-01 0.570E-03
CGA:  53    -0.220810549507E+03   -0.85625E-02   -0.85163E-02  5760   0.263E-01 0.307E-03
CGA:  54    -0.220817638274E+03   -0.70888E-02   -0.71003E-02  5760   0.137E-01-0.852E-04
CGA:  55    -0.220821430180E+03   -0.37919E-02   -0.37849E-02  5760   0.916E-02 0.493E-04
CGA:  56    -0.220824604142E+03   -0.31740E-02   -0.31705E-02  5760   0.625E-02 0.184E-04
CGA:  57    -0.220826501187E+03   -0.18970E-02   -0.19064E-02  5760   0.525E-02-0.610E-04
CGA:  58    -0.220828808819E+03   -0.23076E-02   -0.23073E-02  5760   0.647E-02 0.128E-05
CGA:  59    -0.220831583754E+03   -0.27749E-02   -0.27640E-02  5760   0.798E-02 0.426E-04
CGA:  60    -0.220834289650E+03   -0.27059E-02   -0.27109E-02  5760   0.585E-02-0.315E-04
CGA:  61    -0.220836377257E+03   -0.20876E-02   -0.20880E-02  5760   0.480E-02-0.165E-05
CGA:  62    -0.220837937271E+03   -0.15600E-02   -0.15634E-02  5760   0.449E-02-0.239E-04
CGA:  63    -0.220839743404E+03   -0.18061E-02   -0.18123E-02  5760   0.369E-02-0.308E-04
CGA:  64    -0.220841213428E+03   -0.14700E-02   -0.14743E-02  5760   0.327E-02-0.233E-04
CGA:  65    -0.220842492413E+03   -0.12790E-02   -0.12770E-02  5760   0.345E-02 0.116E-04
CGA:  66    -0.220843565157E+03   -0.10727E-02   -0.10723E-02  5760   0.199E-02 0.512E-05
CGA:  67    -0.220844332829E+03   -0.76767E-03   -0.76635E-03  5760   0.209E-02 0.855E-05
CGA:  68    -0.220844923749E+03   -0.59092E-03   -0.59039E-03  5760   0.105E-02 0.158E-04
CGA:  69    -0.220845333194E+03   -0.40944E-03   -0.40821E-03  5760   0.662E-03 0.901E-05
CGA:  70    -0.220845544962E+03   -0.21177E-03   -0.21222E-03  5760   0.455E-03-0.685E-05
CGA:  71    -0.220845677388E+03   -0.13243E-03   -0.13242E-03  5760   0.227E-03 0.278E-06
CGA:  72    -0.220845745842E+03   -0.68454E-04   -0.68519E-04  5760   0.160E-03-0.154E-05
CGA:  73    -0.220845805476E+03   -0.59634E-04   -0.60402E-04  5760   0.139E-03-0.644E-05
CGA:  74    -0.220845847490E+03   -0.42014E-04   -0.42036E-04  5760   0.101E-03-0.436E-06
CGA:  75    -0.220845902345E+03   -0.54855E-04   -0.54441E-04  5760   0.134E-03 0.153E-05
CGA:  76    -0.220845946759E+03   -0.44414E-04   -0.44558E-04  5760   0.104E-03-0.321E-05
CGA:  77    -0.220845989046E+03   -0.42287E-04   -0.42100E-04  5760   0.920E-04 0.146E-05
CGA:  78    -0.220846017435E+03   -0.28390E-04   -0.28365E-04  5760   0.584E-04 0.202E-05
CGA:  79    -0.220846040789E+03   -0.23354E-04   -0.23536E-04  5760   0.624E-04-0.178E-05
CGA:  80    -0.220846059575E+03   -0.18786E-04   -0.18786E-04  5760   0.400E-04 0.358E-07
SDA:  81    -0.220846076368E+03   -0.16793E-04   -0.16635E-04  5760   0.371E-04 0.135E-05
CGA:  82    -0.220846085004E+03   -0.86360E-05   -0.84556E-05  5760   0.244E-04-0.237E-05
CGA:  83    -0.220846094736E+03   -0.97318E-05   -0.96875E-05  5760   0.232E-04 0.359E-06
CGA:  84    -0.220846100798E+03   -0.60619E-05   -0.61390E-05  5760   0.152E-04 0.168E-05
CGA:  85    -0.220846110472E+03   -0.96747E-05   -0.99386E-05  5760   0.231E-04-0.860E-06
CGA:  86    -0.220846119290E+03   -0.88174E-05   -0.87600E-05  5760   0.250E-04 0.690E-06
CGA:  87    -0.220846129014E+03   -0.97241E-05   -0.96519E-05  5760   0.200E-04 0.142E-05
CGA:  88    -0.220846137546E+03   -0.85320E-05   -0.85918E-05  5760   0.212E-04-0.751E-06
CGA:  89    -0.220846145618E+03   -0.80724E-05   -0.80448E-05  5760   0.153E-04 0.431E-06
CGA:  90    -0.220846150931E+03   -0.53129E-05   -0.53071E-05  5760   0.150E-04 0.845E-06
CGA:  91    -0.220846156805E+03   -0.58737E-05   -0.58991E-05  5760   0.140E-04-0.668E-06
CGA:  92    -0.220846161834E+03   -0.50288E-05   -0.50596E-05  5760   0.152E-04-0.717E-06
CGA:  93    -0.220846167747E+03   -0.59133E-05   -0.58906E-05  5760   0.997E-05 0.327E-06
CGA:  94    -0.220846172224E+03   -0.44770E-05   -0.45878E-05  5760   0.908E-05-0.101E-05
CGA:  95    -0.220846175832E+03   -0.36080E-05   -0.36051E-05  5760   0.634E-05 0.309E-07
CGA:  96    -0.220846177941E+03   -0.21095E-05   -0.21137E-05  5760   0.538E-05 0.217E-06
CGA:  97    -0.220846179898E+03   -0.19569E-05   -0.19570E-05  5760   0.365E-05-0.929E-07
CGA:  98    -0.220846181132E+03   -0.12339E-05   -0.12344E-05  5760   0.354E-05 0.808E-07
CGA:  99    -0.220846182395E+03   -0.12622E-05   -0.12626E-05  5760   0.222E-05 0.218E-06
CGA: 100    -0.220846183260E+03   -0.86550E-06   -0.86529E-06  5760   0.220E-05 0.132E-07
   1 F= -.23240340E+03 E0= -.23240340E+03  d E =-.545557E-12  mag=     6.0000
