       N       E                     dE             d eps       ncg     rms          ort
DAV:   1     0.350821745787E+04    0.35082E+04   -0.14008E+05  5760   0.223E+03
DAV:   2     0.400963246619E+03   -0.31073E+04   -0.28653E+04  5760   0.546E+02
DAV:   3    -0.221333605619E+03   -0.62230E+03   -0.56106E+03  5760   0.255E+02
DAV:   4    -0.271018075261E+03   -0.49684E+02   -0.48718E+02  5760   0.743E+01
DAV:   5    -0.272638381824E+03   -0.16203E+01   -0.16176E+01  5760   0.133E+01
SDA:   6     0.108831309879E+03    0.38147E+03   -0.16176E+01  5760   0.506E+04 0.000E+00
CGA:   7     0.129772682613E+02   -0.95854E+02   -0.22260E+03  5760   0.533E+04 0.626E+03
CGA:   8    -0.909262144023E+02   -0.10390E+03   -0.25032E+03  5760   0.624E+04 0.834E+03
CGA:   9    -0.109270549243E+03   -0.18344E+02   -0.22791E+03  5760   0.240E+04-0.319E+04
CGA:  10    -0.174868825182E+03   -0.65598E+02   -0.54493E+02  5760   0.299E+03 0.130E+03
CGA:  11    -0.198938668142E+03   -0.24070E+02   -0.22209E+02  5760   0.139E+03 0.991E+01
CGA:  12    -0.207353232617E+03   -0.84146E+01   -0.85498E+01  5760   0.124E+03 0.766E+00
CGA:  13    -0.213806805176E+03   -0.64536E+01   -0.76834E+01  5760   0.575E+02-0.865E+01
CGA:  14    -0.216910934877E+03   -0.31041E+01   -0.30784E+01  5760   0.350E+02 0.640E+00
CGA:  15    -0.218726191120E+03   -0.18153E+01   -0.19966E+01  5760   0.503E+01-0.158E+01
CGA:  16    -0.219221432127E+03   -0.49524E+00   -0.50425E+00  5760   0.732E+01 0.383E-01
CGA:  17    -0.219678814347E+03   -0.45738E+00   -0.47739E+00  5760   0.491E+01-0.150E+00
CGA:  18    -0.220164832962E+03   -0.48602E+00   -0.49556E+00  5760   0.139E+01 0.480E-01
CGA:  19    -0.220294174039E+03   -0.12934E+00   -0.13078E+00  5760   0.140E+01-0.109E-01
CGA:  20    -0.220436416430E+03   -0.14224E+00   -0.14428E+00  5760   0.106E+01 0.953E-02
CGA:  21    -0.220561991747E+03   -0.12558E+00   -0.12591E+00  5760   0.112E+01 0.327E-02
CGA:  22    -0.220651853005E+03   -0.89861E-01   -0.98255E-01  5760   0.794E+00 0.258E-01
CGA:  23    -0.220799734464E+03   -0.14788E+00   -0.14480E+00  5760   0.547E+00 0.542E-01
CGA:  24    -0.220874696227E+03   -0.74962E-01   -0.75148E-01  5760   0.751E+00 0.317E-01
CGA:  25    -0.220981539258E+03   -0.10684E+00   -0.10687E+00  5760   0.790E+00-0.197E-02
CGA:  26    -0.221127033606E+03   -0.14549E+00   -0.14432E+00  5760   0.798E+00 0.115E-01
CGA:  27    -0.221288437877E+03   -0.16140E+00   -0.21473E+00  5760   0.239E+01-0.426E+00
CGA:  28    -0.221440648409E+03   -0.15221E+00   -0.15501E+00  5760   0.112E+01-0.241E-01
CGA:  29    -0.221587897407E+03   -0.14725E+00   -0.14737E+00  5760   0.714E+00 0.115E-01
CGA:  30    -0.221742622921E+03   -0.15473E+00   -0.16035E+00  5760   0.138E+01-0.590E-01
CGA:  31    -0.221864170615E+03   -0.12155E+00   -0.12304E+00  5760   0.658E+00 0.341E-02
CGA:  32    -0.222000568098E+03   -0.13640E+00   -0.13150E+00  5760   0.114E+01 0.626E-01
CGA:  33    -0.222111612086E+03   -0.11104E+00   -0.10288E+00  5760   0.104E+01-0.464E-01
CGA:  34    -0.222220045650E+03   -0.10843E+00   -0.10857E+00  5760   0.103E+01-0.242E-02
CGA:  35    -0.222302824038E+03   -0.82778E-01   -0.81412E-01  5760   0.749E+00 0.269E-01
CGA:  36    -0.222377339262E+03   -0.74515E-01   -0.76421E-01  5760   0.713E+00-0.490E-01
CGA:  37    -0.222438070080E+03   -0.60731E-01   -0.57958E-01  5760   0.658E+00-0.115E-01
CGA:  38    -0.222484857883E+03   -0.46788E-01   -0.50615E-01  5760   0.579E+00 0.266E-03
CGA:  39    -0.222542347131E+03   -0.57489E-01   -0.58180E-01  5760   0.671E+00-0.935E-01
CGA:  40    -0.222584254794E+03   -0.41908E-01   -0.42326E-01  5760   0.245E+00-0.158E-01
CGA:  41    -0.222618094007E+03   -0.33839E-01   -0.33759E-01  5760   0.390E+00 0.724E-03
CGA:  42    -0.222649211271E+03   -0.31117E-01   -0.32149E-01  5760   0.230E+00-0.839E-02
CGA:  43    -0.222680489365E+03   -0.31278E-01   -0.31142E-01  5760   0.323E+00 0.562E-02
CGA:  44    -0.222698748185E+03   -0.18259E-01   -0.20483E-01  5760   0.936E-01 0.795E-02
CGA:  45    -0.222714198559E+03   -0.15450E-01   -0.15076E-01  5760   0.172E+00 0.389E-02
CGA:  46    -0.222728597738E+03   -0.14399E-01   -0.14446E-01  5760   0.691E-01 0.489E-02
CGA:  47    -0.222738792532E+03   -0.10195E-01   -0.99883E-02  5760   0.504E-01 0.801E-02
CGA:  48    -0.222743243517E+03   -0.44510E-02   -0.45825E-02  5760   0.425E-01-0.136E-02
CGA:  49    -0.222750958801E+03   -0.77153E-02   -0.79630E-02  5760   0.364E-01-0.190E-02
CGA:  50    -0.222755586388E+03   -0.46276E-02   -0.46102E-02  5760   0.361E-01 0.216E-02
CGA:  51    -0.222758272434E+03   -0.26860E-02   -0.27957E-02  5760   0.152E-01-0.106E-02
CGA:  52    -0.222761424031E+03   -0.31516E-02   -0.32491E-02  5760   0.144E-01-0.102E-02
CGA:  53    -0.222762919824E+03   -0.14958E-02   -0.14982E-02  5760   0.157E-01 0.182E-04
CGA:  54    -0.222764460231E+03   -0.15404E-02   -0.15466E-02  5760   0.634E-02 0.429E-04
CGA:  55    -0.222765809829E+03   -0.13496E-02   -0.13276E-02  5760   0.683E-02 0.344E-03
CGA:  56    -0.222766785191E+03   -0.97536E-03   -0.96798E-03  5760   0.884E-02 0.269E-03
CGA:  57    -0.222768004975E+03   -0.12198E-02   -0.12221E-02  5760   0.767E-02-0.373E-03
SDA:  58    -0.222769278304E+03   -0.12733E-02   -0.12707E-02  5760   0.601E-02-0.196E-03
CGA:  59    -0.222770172832E+03   -0.89453E-03   -0.89076E-03  5760   0.859E-02 0.387E-05
CGA:  60    -0.222770920935E+03   -0.74810E-03   -0.77792E-03  5760   0.366E-02 0.262E-03
CGA:  61    -0.222771786587E+03   -0.86565E-03   -0.83558E-03  5760   0.206E-02 0.264E-03
CGA:  62    -0.222772185065E+03   -0.39848E-03   -0.38898E-03  5760   0.447E-02 0.988E-04
CGA:  63    -0.222772679573E+03   -0.49451E-03   -0.50470E-03  5760   0.201E-02 0.209E-03
CGA:  64    -0.222773295578E+03   -0.61601E-03   -0.57257E-03  5760   0.199E-02 0.181E-03
CGA:  65    -0.222773649361E+03   -0.35378E-03   -0.35128E-03  5760   0.375E-02 0.307E-04
CGA:  66    -0.222774117799E+03   -0.46844E-03   -0.46981E-03  5760   0.346E-02-0.665E-04
CGA:  67    -0.222775022551E+03   -0.90475E-03   -0.91828E-03  5760   0.417E-02-0.169E-03
CGA:  68    -0.222775509495E+03   -0.48694E-03   -0.49490E-03  5760   0.519E-02 0.134E-03
CGA:  69    -0.222776135012E+03   -0.62552E-03   -0.61930E-03  5760   0.397E-02-0.353E-03
CGA:  70    -0.222777612103E+03   -0.14771E-02   -0.17650E-02  5760   0.643E-02-0.544E-03
CGA:  71    -0.222779260026E+03   -0.16479E-02   -0.14789E-02  5760   0.614E-02 0.164E-02
CGA:  72    -0.222780690644E+03   -0.14306E-02   -0.14282E-02  5760   0.177E-01 0.164E-03
CGA:  73    -0.222782605097E+03   -0.19145E-02   -0.20063E-02  5760   0.205E-01-0.490E-03
CGA:  74    -0.222784534279E+03   -0.19292E-02   -0.22552E-02  5760   0.305E-01 0.478E-02
CGA:  75    -0.222788607367E+03   -0.40731E-02   -0.32399E-02  5760   0.371E-01 0.181E-01
CGA:  76    -0.222792014937E+03   -0.34076E-02   -0.34875E-02  5760   0.477E-01 0.738E-03
CGA:  77    -0.222797708397E+03   -0.56935E-02   -0.58410E-02  5760   0.226E-01-0.104E-03
CGA:  78    -0.222803444895E+03   -0.57365E-02   -0.58105E-02  5760   0.359E-01 0.269E-04
CGA:  79    -0.222820221555E+03   -0.16777E-01   -0.12296E-01  5760   0.733E-01 0.231E-01
CGA:  80    -0.222826930403E+03   -0.67088E-02   -0.70667E-02  5760   0.863E-01-0.152E-02
CGA:  81    -0.222834585331E+03   -0.76549E-02   -0.76319E-02  5760   0.436E-01 0.286E-04
CGA:  82    -0.222848868931E+03   -0.14284E-01   -0.14037E-01  5760   0.779E-01 0.663E-03
CGA:  83    -0.222860443180E+03   -0.11574E-01   -0.11653E-01  5760   0.256E+00 0.186E-02
CGA:  84    -0.222229140016E+03    0.63130E+00   -0.92839E-01  5760   0.131E+02-0.662E+01
CGA:  85    -0.222980405101E+03   -0.75127E+00   -0.12102E+01  5760   0.713E+00-0.102E+01
CGA:  86    -0.223067446241E+03   -0.87041E-01   -0.85658E-01  5760   0.120E+00-0.360E-02
CGA:  87    -0.223100497530E+03   -0.33051E-01   -0.33016E-01  5760   0.522E-01 0.150E-03
CGA:  88    -0.223111084609E+03   -0.10587E-01   -0.10561E-01  5760   0.255E-01 0.662E-03
CGA:  89    -0.223121936182E+03   -0.10852E-01   -0.10903E-01  5760   0.308E-01-0.314E-03
CGA:  90    -0.223130515458E+03   -0.85793E-02   -0.84848E-02  5760   0.240E-01 0.641E-03
CGA:  91    -0.223140825801E+03   -0.10310E-01   -0.10274E-01  5760   0.246E-01 0.272E-03
CGA:  92    -0.223147530667E+03   -0.67049E-02   -0.66887E-02  5760   0.150E-01 0.142E-03
CGA:  93    -0.223150965851E+03   -0.34352E-02   -0.34350E-02  5760   0.845E-02 0.387E-05
CGA:  94    -0.223153085198E+03   -0.21193E-02   -0.21204E-02  5760   0.556E-02-0.115E-04
CGA:  95    -0.223154746941E+03   -0.16617E-02   -0.16613E-02  5760   0.319E-02-0.121E-05
CGA:  96    -0.223156098374E+03   -0.13514E-02   -0.13528E-02  5760   0.308E-02 0.228E-06
CGA:  97    -0.223156987987E+03   -0.88961E-03   -0.87305E-03  5760   0.142E-02 0.128E-03
CGA:  98    -0.223157554967E+03   -0.56698E-03   -0.56488E-03  5760   0.157E-02 0.592E-05
CGA:  99    -0.223157995863E+03   -0.44090E-03   -0.43905E-03  5760   0.146E-02 0.333E-04
CGA: 100    -0.223158488448E+03   -0.49259E-03   -0.49184E-03  5760   0.180E-02-0.161E-04
CGA: 101    -0.223159288989E+03   -0.80054E-03   -0.80086E-03  5760   0.219E-02 0.318E-05
CGA: 102    -0.223160172662E+03   -0.88367E-03   -0.87111E-03  5760   0.213E-02 0.569E-04
CGA: 103    -0.223161101058E+03   -0.92840E-03   -0.93121E-03  5760   0.200E-02-0.113E-04
CGA: 104    -0.223161796194E+03   -0.69514E-03   -0.69484E-03  5760   0.174E-02-0.587E-05
CGA: 105    -0.223162328061E+03   -0.53187E-03   -0.53209E-03  5760   0.135E-02-0.416E-05
CGA: 106    -0.223162740340E+03   -0.41228E-03   -0.41242E-03  5760   0.903E-03-0.387E-05
CGA: 107    -0.223163003877E+03   -0.26354E-03   -0.26352E-03  5760   0.594E-03-0.131E-05
CGA: 108    -0.223163165752E+03   -0.16188E-03   -0.16191E-03  5760   0.376E-03 0.401E-05
CGA: 109    -0.223163251509E+03   -0.85757E-04   -0.85691E-04  5760   0.242E-03-0.664E-06
CGA: 110    -0.223163322217E+03   -0.70708E-04   -0.70646E-04  5760   0.140E-03 0.193E-05
CGA: 111    -0.223163374010E+03   -0.51794E-04   -0.51334E-04  5760   0.107E-03 0.240E-05
CGA: 112    -0.223163415214E+03   -0.41204E-04   -0.40731E-04  5760   0.998E-04 0.284E-05
CGA: 113    -0.223163461133E+03   -0.45919E-04   -0.45492E-04  5760   0.837E-04 0.126E-05
CGA: 114    -0.223163503786E+03   -0.42652E-04   -0.42417E-04  5760   0.131E-03 0.545E-06
SDA: 115    -0.223163543832E+03   -0.40047E-04   -0.40047E-04  5760   0.106E-03-0.191E-06
CGA: 116    -0.223163562187E+03   -0.18355E-04   -0.18388E-04  5760   0.723E-04 0.361E-06
CGA: 117    -0.223163585990E+03   -0.23803E-04   -0.23783E-04  5760   0.371E-04 0.428E-06
CGA: 118    -0.223163598922E+03   -0.12932E-04   -0.12908E-04  5760   0.423E-04 0.420E-06
CGA: 119    -0.223163610772E+03   -0.11850E-04   -0.11868E-04  5760   0.277E-04 0.320E-06
CGA: 120    -0.223163622379E+03   -0.11608E-04   -0.11516E-04  5760   0.283E-04 0.450E-06
CGA: 121    -0.223163636205E+03   -0.13826E-04   -0.13822E-04  5760   0.399E-04-0.269E-06
CGA: 122    -0.223163651495E+03   -0.15290E-04   -0.15228E-04  5760   0.441E-04-0.357E-06
CGA: 123    -0.223163679490E+03   -0.27996E-04   -0.27986E-04  5760   0.636E-04 0.396E-06
CGA: 124    -0.223163703389E+03   -0.23898E-04   -0.23848E-04  5760   0.641E-04 0.104E-06
CGA: 125    -0.223163723052E+03   -0.19664E-04   -0.19642E-04  5760   0.605E-04-0.142E-05
CGA: 126    -0.223163738327E+03   -0.15275E-04   -0.15271E-04  5760   0.410E-04 0.882E-07
CGA: 127    -0.223163752314E+03   -0.13986E-04   -0.13985E-04  5760   0.293E-04 0.313E-06
CGA: 128    -0.223163766575E+03   -0.14261E-04   -0.14249E-04  5760   0.278E-04-0.181E-06
CGA: 129    -0.223163775304E+03   -0.87294E-05   -0.87592E-05  5760   0.267E-04 0.104E-05
CGA: 130    -0.223163785324E+03   -0.10020E-04   -0.10009E-04  5760   0.236E-04 0.505E-06
CGA: 131    -0.223163795525E+03   -0.10201E-04   -0.10240E-04  5760   0.193E-04-0.613E-06
CGA: 132    -0.223163802960E+03   -0.74346E-05   -0.73757E-05  5760   0.213E-04 0.101E-05
CGA: 133    -0.223163811564E+03   -0.86045E-05   -0.86260E-05  5760   0.234E-04-0.475E-06
CGA: 134    -0.223163817561E+03   -0.59970E-05   -0.59201E-05  5760   0.223E-04-0.940E-06
CGA: 135    -0.223163827538E+03   -0.99772E-05   -0.99620E-05  5760   0.239E-04-0.294E-07
CGA: 136    -0.223163834907E+03   -0.73681E-05   -0.73898E-05  5760   0.198E-04 0.459E-06
CGA: 137    -0.223163844751E+03   -0.98448E-05   -0.98738E-05  5760   0.261E-04-0.339E-06
CGA: 138    -0.223163852795E+03   -0.80440E-05   -0.80495E-05  5760   0.220E-04 0.143E-06
CGA: 139    -0.223163860544E+03   -0.77490E-05   -0.77498E-05  5760   0.220E-04 0.354E-06
CGA: 140    -0.223163867067E+03   -0.65228E-05   -0.65079E-05  5760   0.178E-04-0.360E-06
CGA: 141    -0.223163871829E+03   -0.47618E-05   -0.47460E-05  5760   0.127E-04-0.162E-06
CGA: 142    -0.223163875974E+03   -0.41453E-05   -0.41534E-05  5760   0.930E-05 0.381E-06
CGA: 143    -0.223163881407E+03   -0.54324E-05   -0.54022E-05  5760   0.107E-04 0.168E-06
CGA: 144    -0.223163885318E+03   -0.39116E-05   -0.39116E-05  5760   0.157E-04-0.574E-07
CGA: 145    -0.223163890707E+03   -0.53893E-05   -0.53933E-05  5760   0.168E-04 0.337E-06
SDA: 146    -0.223163895591E+03   -0.48831E-05   -0.49124E-05  5760   0.130E-04 0.220E-06
CGA: 147    -0.223163898344E+03   -0.27537E-05   -0.27172E-05  5760   0.866E-05-0.386E-06
CGA: 148    -0.223163901433E+03   -0.30889E-05   -0.30914E-05  5760   0.718E-05-0.138E-06
CGA: 149    -0.223163903040E+03   -0.16069E-05   -0.16284E-05  5760   0.560E-05 0.205E-06
CGA: 150    -0.223163905694E+03   -0.26544E-05   -0.26597E-05  5760   0.697E-05-0.492E-07
CGA: 151    -0.223163908167E+03   -0.24721E-05   -0.24738E-05  5760   0.736E-05-0.193E-06
CGA: 152    -0.223163910615E+03   -0.24483E-05   -0.24493E-05  5760   0.733E-05 0.238E-06
CGA: 153    -0.223163913995E+03   -0.33805E-05   -0.33604E-05  5760   0.687E-05 0.979E-07
CGA: 154    -0.223163917045E+03   -0.30496E-05   -0.30795E-05  5760   0.741E-05-0.287E-06
CGA: 155    -0.223163919905E+03   -0.28598E-05   -0.28357E-05  5760   0.689E-05 0.544E-06
CGA: 156    -0.223163922496E+03   -0.25909E-05   -0.25910E-05  5760   0.653E-05 0.130E-07
CGA: 157    -0.223163924617E+03   -0.21215E-05   -0.21141E-05  5760   0.824E-05-0.213E-06
CGA: 158    -0.223163927100E+03   -0.24831E-05   -0.24928E-05  5760   0.574E-05 0.130E-06
CGA: 159    -0.223163929115E+03   -0.20151E-05   -0.20173E-05  5760   0.513E-05 0.352E-06
CGA: 160    -0.223163931698E+03   -0.25824E-05   -0.26292E-05  5760   0.867E-05-0.423E-06
CGA: 161    -0.223163934161E+03   -0.24628E-05   -0.24561E-05  5760   0.658E-05-0.119E-06
CGA: 162    -0.223163936336E+03   -0.21755E-05   -0.21841E-05  5760   0.755E-05 0.427E-06
CGA: 163    -0.223163939272E+03   -0.29356E-05   -0.29382E-05  5760   0.803E-05-0.306E-06
CGA: 164    -0.223163941294E+03   -0.20225E-05   -0.19925E-05  5760   0.705E-05-0.320E-06
CGA: 165    -0.223163944651E+03   -0.33564E-05   -0.32669E-05  5760   0.737E-05 0.533E-06
CGA: 166    -0.223163946960E+03   -0.23097E-05   -0.23279E-05  5760   0.747E-05 0.307E-06
CGA: 167    -0.223163949824E+03   -0.28641E-05   -0.28648E-05  5760   0.104E-04-0.574E-07
CGA: 168    -0.223163953282E+03   -0.34575E-05   -0.34607E-05  5760   0.108E-04 0.103E-06
CGA: 169    -0.223163956976E+03   -0.36942E-05   -0.37015E-05  5760   0.107E-04 0.355E-06
CGA: 170    -0.223163960464E+03   -0.34881E-05   -0.34834E-05  5760   0.112E-04-0.179E-06
CGA: 171    -0.223163964345E+03   -0.38812E-05   -0.38816E-05  5760   0.956E-05-0.427E-06
CGA: 172    -0.223163967027E+03   -0.26812E-05   -0.26910E-05  5760   0.912E-05 0.183E-06
CGA: 173    -0.223163969830E+03   -0.28035E-05   -0.28073E-05  5760   0.886E-05 0.810E-07
CGA: 174    -0.223163972427E+03   -0.25974E-05   -0.25778E-05  5760   0.577E-05-0.385E-06
CGA: 175    -0.223163974796E+03   -0.23683E-05   -0.23540E-05  5760   0.721E-05 0.152E-06
CGA: 176    -0.223163977173E+03   -0.23775E-05   -0.23857E-05  5760   0.669E-05 0.311E-06
SDA: 177    -0.223163979222E+03   -0.20490E-05   -0.20523E-05  5760   0.717E-05 0.484E-07
CGA: 178    -0.223163980612E+03   -0.13897E-05   -0.13761E-05  5760   0.437E-05-0.906E-07
CGA: 179    -0.223163982206E+03   -0.15940E-05   -0.16012E-05  5760   0.502E-05-0.221E-06
CGA: 180    -0.223163983579E+03   -0.13733E-05   -0.13721E-05  5760   0.353E-05-0.402E-07
CGA: 181    -0.223163985221E+03   -0.16418E-05   -0.16131E-05  5760   0.419E-05 0.205E-06
CGA: 182    -0.223163987076E+03   -0.18548E-05   -0.18660E-05  5760   0.514E-05-0.150E-06
CGA: 183    -0.223163988745E+03   -0.16695E-05   -0.16705E-05  5760   0.512E-05 0.879E-07
CGA: 184    -0.223163991073E+03   -0.23276E-05   -0.22900E-05  5760   0.643E-05 0.406E-06
CGA: 185    -0.223163993330E+03   -0.22572E-05   -0.22559E-05  5760   0.621E-05-0.716E-07
CGA: 186    -0.223163995062E+03   -0.17318E-05   -0.17248E-05  5760   0.521E-05-0.198E-06
CGA: 187    -0.223163996820E+03   -0.17582E-05   -0.17581E-05  5760   0.414E-05 0.107E-06
CGA: 188    -0.223163998497E+03   -0.16773E-05   -0.16825E-05  5760   0.326E-05-0.819E-07
CGA: 189    -0.223164000001E+03   -0.15038E-05   -0.15689E-05  5760   0.567E-05-0.506E-06
CGA: 190    -0.223164001307E+03   -0.13063E-05   -0.12996E-05  5760   0.451E-05-0.781E-07
CGA: 191    -0.223164002421E+03   -0.11137E-05   -0.11399E-05  5760   0.304E-05 0.287E-06
CGA: 192    -0.223164003565E+03   -0.11436E-05   -0.11438E-05  5760   0.325E-05-0.256E-07
CGA: 193    -0.223164004459E+03   -0.89465E-06   -0.89512E-06  5760   0.282E-05 0.149E-07
   1 F= -.23398905E+03 E0= -.23398900E+03  d E =-.103435E-03  mag=     6.0000
