 running on   64 total cores
 distrk:  each k-point on   64 cores,    1 groups
 distr:  one band on    4 cores,   16 groups
 using from now: INCAR     
 vasp.5.4.4.18Apr17-6-g9f103f2a35 (build Nov 22 2021 14:44:17) complex          
  
 POSCAR found type information on POSCAR  Li Co O 
 POSCAR found :  3 types and      42 ions
 scaLAPACK will be used
 LDA part: xc-table for Pade appr. of Perdew
 generate k-points for:    6    6    2
 POSCAR, INCAR and KPOINTS ok, starting setup
 FFT: planning ...
 WAVECAR not read
 entering main loop
       N       E                     dE             d eps       ncg     rms          ort
DAV:   1     0.356111571729E+04    0.35611E+04   -0.14054E+05  5760   0.228E+03
DAV:   2     0.418403900491E+03   -0.31427E+04   -0.29053E+04  5760   0.561E+02
DAV:   3    -0.215488076313E+03   -0.63389E+03   -0.56518E+03  5760   0.259E+02
DAV:   4    -0.268365105278E+03   -0.52877E+02   -0.51778E+02  5760   0.773E+01
DAV:   5    -0.270009101548E+03   -0.16440E+01   -0.16415E+01  5760   0.135E+01
 gam= 0.000 g(H,U,f)=  0.171E+04 0.137E+04 0.355E+04 ort(H,U,f) = 0.000E+00 0.000E+00 0.000E+00
SDA:   6     0.111069421739E+03    0.38108E+03   -0.16415E+01  5760   0.663E+04 0.000E+00
 gam= 0.000 trial= 0.400  step= 0.097 mean= 0.400
 gam= 1.436 g(H,U,f)=  0.870E+03 0.237E+04 0.628E+04 ort(H,U,f) = 0.697E+03 0.494E+02-0.782E+03
CGA:   7     0.276605969029E+02   -0.83409E+02   -0.32239E+03  5760   0.952E+04-0.363E+02
 gam= 1.436 trial= 0.385  step= 0.092 mean= 0.385
 gam= 0.721 g(H,U,f)=  0.697E+03 0.594E+04 0.222E+03 ort(H,U,f) =-0.463E+03-0.950E+03-0.245E+02
CGA:   8     0.324279543682E+02    0.47674E+01   -0.43647E+03  5760   0.686E+04-0.144E+04
 gam= 0.721 trial= 0.370  step= 0.059 mean= 0.370
 gam= 0.000 g(H,U,f)=  0.393E+03 0.982E+03 0.396E+03 ort(H,U,f) =-0.883E+03-0.198E+04-0.656E+03
CGA:   9    -0.125458039138E+03   -0.15789E+03   -0.17208E+03  5760   0.177E+04-0.352E+04
 gam= 0.000 trial= 0.355  step= 0.062 mean= 0.355
 gam= 0.212 g(H,U,f)=  0.188E+03 0.169E+03 0.183E+02 ort(H,U,f) = 0.212E+03-0.183E+03-0.353E+02
CGA:  10    -0.173859545242E+03   -0.48402E+02   -0.54790E+02  5760   0.375E+03-0.609E+01
 gam= 0.212 trial= 0.340  step= 0.138 mean= 0.340
 gam= 0.147 g(H,U,f)=  0.384E+02 0.155E+02 0.131E+01 ort(H,U,f) = 0.696E+02-0.324E+02-0.110E+01
CGA:  11    -0.202537587566E+03   -0.28678E+02   -0.25798E+02  5760   0.553E+02 0.361E+02
 gam= 0.147 trial= 0.330  step= 0.228 mean= 0.330
 gam= 1.029 g(H,U,f)=  0.143E+02 0.383E+02 0.430E+01 ort(H,U,f) = 0.130E+02-0.119E+02-0.786E+00
CGA:  12    -0.209302908532E+03   -0.67653E+01   -0.69110E+01  5760   0.569E+02 0.315E+00
 gam= 1.029 trial= 0.325  step= 0.135 mean= 0.325
 gam= 0.895 g(H,U,f)=  0.101E+02 0.363E+02 0.452E+01 ort(H,U,f) = 0.359E+00-0.481E+01-0.236E+01
CGA:  13    -0.212220655075E+03   -0.29177E+01   -0.38476E+01  5760   0.509E+02-0.681E+01
 gam= 0.895 trial= 0.315  step= 0.138 mean= 0.315
 gam= 0.151 g(H,U,f)=  0.421E+01 0.346E+01 0.467E-01 ort(H,U,f) =-0.876E+01 0.787E+01 0.510E-01
CGA:  14    -0.215138727015E+03   -0.29181E+01   -0.30856E+01  5760   0.771E+01-0.846E+00
 gam= 0.151 trial= 0.306  step= 0.196 mean= 0.306
 gam= 0.598 g(H,U,f)=  0.242E+01 0.195E+01 0.240E+00 ort(H,U,f) = 0.360E+00-0.325E+00-0.124E+00
CGA:  15    -0.215874846507E+03   -0.73612E+00   -0.74342E+00  5760   0.461E+01-0.898E-01
 gam= 0.598 trial= 0.301  step= 0.194 mean= 0.301
 gam= 1.107 g(H,U,f)=  0.197E+01 0.272E+01 0.413E+00 ort(H,U,f) = 0.106E+01-0.868E+00-0.170E+00
CGA:  16    -0.216298320211E+03   -0.42347E+00   -0.44200E+00  5760   0.511E+01 0.184E-01
 gam= 1.107 trial= 0.296  step= 0.169 mean= 0.296
 gam= 0.468 g(H,U,f)=  0.105E+01 0.126E+01 0.911E-01 ort(H,U,f) = 0.403E+00-0.351E+00-0.646E-01
CGA:  17    -0.216722576938E+03   -0.42426E+00   -0.43248E+00  5760   0.239E+01-0.128E-01
 gam= 0.468 trial= 0.289  step= 0.183 mean= 0.289
 gam= 0.434 g(H,U,f)=  0.438E+00 0.554E+00 0.463E-01 ort(H,U,f) =-0.327E+00 0.327E+00 0.152E-01
CGA:  18    -0.216937749972E+03   -0.21517E+00   -0.21882E+00  5760   0.104E+01 0.145E-01
 gam= 0.434 trial= 0.284  step= 0.147 mean= 0.284
 gam= 0.794 g(H,U,f)=  0.382E+00 0.415E+00 0.278E-01 ort(H,U,f) =-0.813E-01 0.902E-01-0.244E-01
CGA:  19    -0.217011260314E+03   -0.73510E-01   -0.76642E-01  5760   0.824E+00-0.155E-01
 gam= 0.794 trial= 0.277  step= 0.350 mean= 0.277
 gam= 0.838 g(H,U,f)=  0.404E+00 0.284E+00 0.297E-02 ort(H,U,f) =-0.204E+00 0.215E+00 0.599E-02
CGA:  20    -0.217154305499E+03   -0.14305E+00   -0.14217E+00  5760   0.691E+00 0.165E-01
 gam= 0.838 trial= 0.281  step= 0.321 mean= 0.281
 gam= 0.892 g(H,U,f)=  0.286E+00 0.307E+00 0.243E-01 ort(H,U,f) =-0.171E+00 0.158E+00 0.120E-02
CGA:  21    -0.217267517157E+03   -0.11321E+00   -0.11330E+00  5760   0.617E+00-0.119E-01
 gam= 0.892 trial= 0.283  step= 0.243 mean= 0.283
 gam= 1.149 g(H,U,f)=  0.263E+00 0.416E+00 0.300E-01 ort(H,U,f) =-0.107E+00 0.124E+00-0.696E-02
CGA:  22    -0.217340553302E+03   -0.73036E-01   -0.73575E-01  5760   0.709E+00 0.101E-01
 gam= 1.149 trial= 0.281  step= 0.243 mean= 0.281
 gam= 0.901 g(H,U,f)=  0.265E+00 0.355E+00 0.185E-01 ort(H,U,f) =-0.147E+00 0.156E+00 0.927E-02
CGA:  23    -0.217427620186E+03   -0.87067E-01   -0.87661E-01  5760   0.639E+00 0.184E-01
 gam= 0.901 trial= 0.279  step= 0.305 mean= 0.279
 gam= 0.638 g(H,U,f)=  0.229E+00 0.176E+00 0.184E-02 ort(H,U,f) =-0.153E+00 0.159E+00 0.535E-02
CGA:  24    -0.217527980674E+03   -0.10036E+00   -0.10005E+00  5760   0.407E+00 0.111E-01
 gam= 0.638 trial= 0.280  step= 0.475 mean= 0.280
 gam= 1.601 g(H,U,f)=  0.289E+00 0.343E+00 0.196E-01 ort(H,U,f) =-0.905E-01 0.912E-01 0.188E-02
CGA:  25    -0.217625599093E+03   -0.97618E-01   -0.98435E-01  5760   0.652E+00 0.261E-02
 gam= 1.601 trial= 0.290  step= 0.329 mean= 0.290
 gam= 1.148 g(H,U,f)=  0.316E+00 0.421E+00 0.115E-01 ort(H,U,f) =-0.188E+00 0.205E+00 0.146E-01
CGA:  26    -0.217734426101E+03   -0.10883E+00   -0.10802E+00  5760   0.749E+00 0.311E-01
 gam= 1.148 trial= 0.292  step= 0.251 mean= 0.292
 gam= 0.911 g(H,U,f)=  0.305E+00 0.343E+00 0.337E-01 ort(H,U,f) =-0.210E+00 0.217E+00-0.562E-02
CGA:  27    -0.217833187112E+03   -0.98761E-01   -0.98594E-01  5760   0.682E+00 0.134E-02
 gam= 0.911 trial= 0.290  step= 0.279 mean= 0.290
 gam= 0.890 g(H,U,f)=  0.295E+00 0.308E+00 0.368E-02 ort(H,U,f) =-0.175E+00 0.207E+00 0.671E-02
CGA:  28    -0.217928033573E+03   -0.94846E-01   -0.95300E-01  5760   0.607E+00 0.389E-01
 gam= 0.890 trial= 0.289  step= 0.394 mean= 0.289
 gam= 0.843 g(H,U,f)=  0.266E+00 0.234E+00 0.108E-01 ort(H,U,f) =-0.137E+00 0.141E+00 0.297E-02
CGA:  29    -0.218055420020E+03   -0.12739E+00   -0.12645E+00  5760   0.511E+00 0.634E-02
 gam= 0.843 trial= 0.295  step= 0.306 mean= 0.295
 gam= 1.101 g(H,U,f)=  0.198E+00 0.312E+00 0.527E-01 ort(H,U,f) =-0.119E-02 0.140E-01-0.279E-01
CGA:  30    -0.218134332129E+03   -0.78912E-01   -0.79072E-01  5760   0.563E+00-0.150E-01
 gam= 1.101 trial= 0.295  step= 0.225 mean= 0.295
 gam= 0.863 g(H,U,f)=  0.158E+00 0.307E+00 0.208E-01 ort(H,U,f) =-0.145E-01 0.279E-01-0.632E-02
CGA:  31    -0.218194594206E+03   -0.60262E-01   -0.61379E-01  5760   0.486E+00 0.703E-02
 gam= 0.863 trial= 0.292  step= 0.243 mean= 0.292
 gam= 0.702 g(H,U,f)=  0.136E+00 0.190E+00 0.151E-01 ort(H,U,f) =-0.571E-01 0.727E-01-0.187E-01
CGA:  32    -0.218254690379E+03   -0.60096E-01   -0.59806E-01  5760   0.341E+00-0.324E-02
 gam= 0.702 trial= 0.289  step= 0.281 mean= 0.289
 gam= 0.818 g(H,U,f)=  0.124E+00 0.143E+00 0.119E-01 ort(H,U,f) =-0.357E-01 0.397E-01-0.120E-02
CGA:  33    -0.218302225832E+03   -0.47535E-01   -0.47566E-01  5760   0.279E+00 0.272E-02
 gam= 0.818 trial= 0.289  step= 0.348 mean= 0.289
 gam= 1.180 g(H,U,f)=  0.106E+00 0.178E+00 0.454E-01 ort(H,U,f) =-0.379E-01 0.520E-01-0.192E-01
CGA:  34    -0.218350882599E+03   -0.48657E-01   -0.48914E-01  5760   0.329E+00-0.511E-02
 gam= 1.180 trial= 0.292  step= 0.182 mean= 0.292
 gam= 0.895 g(H,U,f)=  0.105E+00 0.146E+00 0.438E-01 ort(H,U,f) =-0.606E-01 0.845E-01-0.257E-01
CGA:  35    -0.218380608719E+03   -0.29726E-01   -0.29434E-01  5760   0.295E+00-0.181E-02
 gam= 0.895 trial= 0.286  step= 0.299 mean= 0.286
 gam= 0.844 g(H,U,f)=  0.138E+00 0.103E+00 0.803E-02 ort(H,U,f) =-0.818E-01 0.845E-01-0.598E-02
CGA:  36    -0.218424416039E+03   -0.43807E-01   -0.43846E-01  5760   0.249E+00-0.334E-02
 gam= 0.844 trial= 0.287  step= 0.429 mean= 0.287
 gam= 1.233 g(H,U,f)=  0.124E+00 0.144E+00 0.391E-01 ort(H,U,f) =-0.381E-01 0.164E-01-0.128E-02
CGA:  37    -0.218475382705E+03   -0.50967E-01   -0.52802E-01  5760   0.307E+00-0.229E-01
 gam= 1.233 trial= 0.294  step= 0.194 mean= 0.294
 gam= 0.810 g(H,U,f)=  0.988E-01 0.115E+00 0.346E-01 ort(H,U,f) =-0.104E-01 0.378E-01-0.275E-01
CGA:  38    -0.218501636578E+03   -0.26254E-01   -0.26992E-01  5760   0.249E+00-0.630E-04
 gam= 0.810 trial= 0.289  step= 0.207 mean= 0.289
 gam= 0.914 g(H,U,f)=  0.769E-01 0.109E+00 0.416E-01 ort(H,U,f) =-0.215E-01 0.307E-01-0.106E-01
CGA:  39    -0.218527957887E+03   -0.26321E-01   -0.25707E-01  5760   0.227E+00-0.141E-02
 gam= 0.914 trial= 0.285  step= 0.254 mean= 0.285
 gam= 0.000 g(H,U,f)=  0.961E-01 0.107E+00 0.880E-02 ort(H,U,f) =-0.286E-01 0.414E-01-0.901E-02
SDA:  40    -0.218556533929E+03   -0.28576E-01   -0.28725E-01  5760   0.212E+00 0.381E-02
 gam= 0.000 trial= 0.283  step= 0.305 mean= 0.283
 gam= 1.893 g(H,U,f)=  0.505E-01 0.142E+00 0.208E+00 ort(H,U,f) = 0.177E-01 0.233E-01-0.454E-01
CGA:  41    -0.218588781726E+03   -0.32248E-01   -0.32315E-01  5760   0.401E+00-0.451E-02
 gam= 1.893 trial= 0.284  step= 0.146 mean= 0.284
 gam= 0.602 g(H,U,f)=  0.780E-01 0.127E+00 0.360E-01 ort(H,U,f) =-0.471E-01 0.874E-01-0.487E-01
CGA:  42    -0.218616212775E+03   -0.27431E-01   -0.28667E-01  5760   0.241E+00-0.845E-02
 gam= 0.602 trial= 0.278  step= 0.484 mean= 0.278
 gam= 0.677 g(H,U,f)=  0.770E-01 0.687E-01 0.177E-01 ort(H,U,f) =-0.712E-01 0.751E-01-0.601E-02
CGA:  43    -0.218673228912E+03   -0.57016E-01   -0.57189E-01  5760   0.163E+00-0.210E-02
 gam= 0.677 trial= 0.288  step= 0.272 mean= 0.288
 gam= 1.962 g(H,U,f)=  0.595E-01 0.769E-01 0.184E+00 ort(H,U,f) =-0.388E-02 0.486E-01-0.399E-01
CGA:  44    -0.218695181587E+03   -0.21953E-01   -0.22035E-01  5760   0.321E+00 0.480E-02
 gam= 1.962 trial= 0.287  step= 0.163 mean= 0.287
 gam= 0.426 g(H,U,f)=  0.526E-01 0.498E-01 0.343E-01 ort(H,U,f) =-0.300E-01 0.819E-01-0.489E-01
CGA:  45    -0.218722782749E+03   -0.27601E-01   -0.26878E-01  5760   0.137E+00 0.295E-02
 gam= 0.426 trial= 0.281  step= 0.291 mean= 0.281
 gam= 1.268 g(H,U,f)=  0.336E-01 0.391E-01 0.101E+00 ort(H,U,f) =-0.818E-02 0.305E-01-0.192E-01
CGA:  46    -0.218742872058E+03   -0.20089E-01   -0.20080E-01  5760   0.173E+00 0.314E-02
 gam= 1.268 trial= 0.281  step= 0.113 mean= 0.281
 gam= 0.370 g(H,U,f)=  0.270E-01 0.264E-01 0.109E-01 ort(H,U,f) =-0.201E-02 0.305E-01-0.267E-01
CGA:  47    -0.218753048537E+03   -0.10176E-01   -0.10053E-01  5760   0.642E-01 0.174E-02
 gam= 0.370 trial= 0.273  step= 0.462 mean= 0.273
 gam= 1.412 g(H,U,f)=  0.167E-01 0.256E-01 0.483E-01 ort(H,U,f) =-0.863E-02 0.110E-01-0.202E-02
CGA:  48    -0.218767898783E+03   -0.14850E-01   -0.14971E-01  5760   0.906E-01 0.330E-03
 gam= 1.412 trial= 0.282  step= 0.107 mean= 0.282
 gam= 0.584 g(H,U,f)=  0.175E-01 0.234E-01 0.121E-01 ort(H,U,f) =-0.604E-02 0.279E-01-0.236E-01
CGA:  49    -0.218772746683E+03   -0.48479E-02   -0.48928E-02  5760   0.529E-01-0.170E-02
 gam= 0.584 trial= 0.274  step= 0.433 mean= 0.274
 gam= 0.705 g(H,U,f)=  0.154E-01 0.150E-01 0.691E-02 ort(H,U,f) =-0.102E-01 0.101E-01 0.135E-02
CGA:  50    -0.218784054141E+03   -0.11307E-01   -0.11245E-01  5760   0.373E-01 0.121E-02
 gam= 0.705 trial= 0.282  step= 0.253 mean= 0.282
 gam= 2.714 g(H,U,f)=  0.141E-01 0.294E-01 0.578E-01 ort(H,U,f) = 0.234E-02 0.177E-01-0.231E-01
CGA:  51    -0.218788890467E+03   -0.48363E-02   -0.48310E-02  5760   0.101E+00-0.311E-02
 gam= 2.714 trial= 0.280  step= 0.165 mean= 0.280
 gam= 0.320 g(H,U,f)=  0.170E-01 0.150E-01 0.379E-03 ort(H,U,f) =-0.297E-01 0.298E-01 0.924E-04
CGA:  52    -0.218796672065E+03   -0.77816E-02   -0.76755E-02  5760   0.324E-01 0.259E-03
 gam= 0.320 trial= 0.274  step= 0.480 mean= 0.274
 gam= 4.159 g(H,U,f)=  0.160E-01 0.345E-01 0.844E-01 ort(H,U,f) =-0.426E-02 0.447E-02-0.120E-02
CGA:  53    -0.218804527639E+03   -0.78556E-02   -0.78011E-02  5760   0.135E+00-0.992E-03
 gam= 4.159 trial= 0.285  step= 0.101 mean= 0.285
 gam= 0.311 g(H,U,f)=  0.200E-01 0.193E-01 0.258E-02 ort(H,U,f) =-0.269E-01 0.298E-01-0.109E-01
CGA:  54    -0.218810637013E+03   -0.61094E-02   -0.65807E-02  5760   0.419E-01-0.805E-02
 gam= 0.311 trial= 0.276  step= 0.543 mean= 0.276
 gam= 0.712 g(H,U,f)=  0.161E-01 0.122E-01 0.148E-02 ort(H,U,f) =-0.917E-02 0.908E-02 0.934E-03
CGA:  55    -0.218821595763E+03   -0.10959E-01   -0.10698E-01  5760   0.298E-01 0.845E-03
 gam= 0.712 trial= 0.289  step= 0.567 mean= 0.289
 gam= 1.666 g(H,U,f)=  0.137E-01 0.229E-01 0.131E-01 ort(H,U,f) =-0.600E-03 0.740E-02-0.238E-02
CGA:  56    -0.218830770758E+03   -0.91750E-02   -0.86232E-02  5760   0.497E-01 0.442E-02
 gam= 1.666 trial= 0.303  step= 0.085 mean= 0.303
 gam= 0.811 g(H,U,f)=  0.106E-01 0.193E-01 0.104E-01 ort(H,U,f) = 0.105E-02 0.935E-02-0.835E-02
CGA:  57    -0.218833293991E+03   -0.25232E-02   -0.24364E-02  5760   0.403E-01 0.205E-02
 gam= 0.811 trial= 0.292  step= 0.410 mean= 0.292
 gam= 2.700 g(H,U,f)=  0.151E-01 0.556E-01 0.382E-01 ort(H,U,f) =-0.153E-01 0.769E-02-0.134E-03
CGA:  58    -0.218841463456E+03   -0.81695E-02   -0.85960E-02  5760   0.109E+00-0.776E-02
 gam= 2.700 trial= 0.298  step= 0.107 mean= 0.298
 gam= 0.463 g(H,U,f)=  0.281E-01 0.212E-01 0.115E-02 ort(H,U,f) =-0.475E-01 0.277E-01-0.205E-02
CGA:  59    -0.218844256448E+03   -0.27930E-02   -0.47155E-02  5760   0.504E-01-0.219E-01
 gam= 0.463 trial= 0.288  step= 0.409 mean= 0.288
 gam= 2.460 g(H,U,f)=  0.269E-01 0.659E-01 0.312E-01 ort(H,U,f) =-0.160E-01-0.306E-02-0.393E-02
CGA:  60    -0.218850910763E+03   -0.66543E-02   -0.82251E-02  5760   0.124E+00-0.230E-01
 gam= 2.460 trial= 0.294  step= 0.052 mean= 0.294
 gam= 0.801 g(H,U,f)=  0.267E-01 0.520E-01 0.206E-01 ort(H,U,f) =-0.207E-01 0.259E-01 0.123E-01
CGA:  61    -0.218852917743E+03   -0.20070E-02   -0.17536E-02  5760   0.993E-01 0.175E-01
 gam= 0.801 trial= 0.282  step= 0.136 mean= 0.282
 gam= 1.110 g(H,U,f)=  0.300E-01 0.588E-01 0.214E-01 ort(H,U,f) =-0.148E-02-0.524E-03-0.288E-01
CGA:  62    -0.218856573503E+03   -0.36558E-02   -0.77218E-02  5760   0.110E+00-0.308E-01
 gam= 1.110 trial= 0.275  step= 0.048 mean= 0.275
 gam= 0.462 g(H,U,f)=  0.227E-01 0.249E-01 0.331E-02 ort(H,U,f) = 0.137E-01 0.340E-01-0.409E-02
CGA:  63    -0.218859812268E+03   -0.32388E-02   -0.18181E-02  5760   0.509E-01 0.436E-01
 gam= 0.462 trial= 0.264  step= 0.064 mean= 0.264
 gam= 0.934 g(H,U,f)=  0.148E-01 0.252E-01 0.756E-02 ort(H,U,f) = 0.149E-01 0.253E-04-0.500E-02
CGA:  64    -0.218862499982E+03   -0.26877E-02   -0.22716E-02  5760   0.475E-01 0.989E-02
 gam= 0.934 trial= 0.254  step= 0.116 mean= 0.254
 gam= 2.049 g(H,U,f)=  0.124E-01 0.589E-01 0.260E-01 ort(H,U,f) = 0.373E-02-0.487E-02 0.524E-02
CGA:  65    -0.218866004269E+03   -0.35043E-02   -0.33016E-02  5760   0.974E-01 0.411E-02
 gam= 2.049 trial= 0.247  step= 0.063 mean= 0.247
 gam= 0.678 g(H,U,f)=  0.202E-01 0.373E-01 0.854E-02 ort(H,U,f) =-0.235E-01-0.633E-02 0.259E-01
CGA:  66    -0.218868769354E+03   -0.27651E-02   -0.33176E-02  5760   0.661E-01-0.397E-02
 gam= 0.678 trial= 0.237  step= 0.072 mean= 0.237
 gam= 1.002 g(H,U,f)=  0.267E-01 0.336E-01 0.587E-02 ort(H,U,f) =-0.828E-02-0.426E-03-0.824E-03
CGA:  67    -0.218870176778E+03   -0.14074E-02   -0.22678E-02  5760   0.662E-01-0.953E-02
 gam= 1.002 trial= 0.229  step= 0.148 mean= 0.229
 gam= 1.152 g(H,U,f)=  0.223E-01 0.374E-01 0.165E-01 ort(H,U,f) =-0.120E-01 0.197E-01-0.500E-03
CGA:  68    -0.218873843851E+03   -0.36671E-02   -0.41803E-02  5760   0.762E-01 0.723E-02
 gam= 1.152 trial= 0.225  step= 0.050 mean= 0.225
 gam= 0.380 g(H,U,f)=  0.172E-01 0.111E-01 0.583E-03 ort(H,U,f) =-0.153E-01 0.231E-01 0.192E-03
CGA:  69    -0.218876167675E+03   -0.23238E-02   -0.21148E-02  5760   0.289E-01 0.802E-02
 gam= 0.380 trial= 0.216  step= 0.091 mean= 0.216
 gam= 1.571 g(H,U,f)=  0.155E-01 0.212E-01 0.876E-02 ort(H,U,f) = 0.141E-02 0.245E-02-0.888E-02
CGA:  70    -0.218877776407E+03   -0.16087E-02   -0.14611E-02  5760   0.455E-01-0.503E-02
 gam= 1.571 trial= 0.210  step= 0.079 mean= 0.210
 gam= 0.000 g(H,U,f)=  0.170E-01 0.279E-01 0.142E-01 ort(H,U,f) =-0.319E-02 0.549E-02-0.108E-01
SDA:  71    -0.218879679984E+03   -0.19036E-02   -0.14876E-02  5760   0.590E-01-0.846E-02
 gam= 0.000 trial= 0.204  step= 0.092 mean= 0.204
 gam= 0.465 g(H,U,f)=  0.949E-02 0.134E-01 0.457E-02 ort(H,U,f) = 0.960E-02-0.401E-02-0.594E-02
CGA:  72    -0.218882132946E+03   -0.24530E-02   -0.27155E-02  5760   0.275E-01-0.357E-03
 gam= 0.465 trial= 0.198  step= 0.313 mean= 0.198
 gam= 0.680 g(H,U,f)=  0.618E-02 0.111E-01 0.144E-02 ort(H,U,f) =-0.311E-03 0.158E-02 0.286E-03
CGA:  73    -0.218886475838E+03   -0.43429E-02   -0.42764E-02  5760   0.187E-01 0.156E-02
 gam= 0.680 trial= 0.204  step= 0.345 mean= 0.204
 gam= 1.451 g(H,U,f)=  0.382E-02 0.159E-01 0.741E-02 ort(H,U,f) =-0.145E-02 0.543E-02-0.106E-02
CGA:  74    -0.218890176909E+03   -0.37011E-02   -0.34090E-02  5760   0.271E-01 0.293E-02
 gam= 1.451 trial= 0.211  step= 0.123 mean= 0.211
 gam= 0.443 g(H,U,f)=  0.288E-02 0.652E-02 0.262E-02 ort(H,U,f) =-0.524E-02 0.805E-02-0.751E-03
CGA:  75    -0.218892141569E+03   -0.19647E-02   -0.19218E-02  5760   0.120E-01 0.207E-02
 gam= 0.443 trial= 0.206  step= 0.302 mean= 0.206
 gam= 0.938 g(H,U,f)=  0.375E-02 0.603E-02 0.149E-02 ort(H,U,f) =-0.125E-02 0.541E-02 0.290E-03
CGA:  76    -0.218894374002E+03   -0.22324E-02   -0.19519E-02  5760   0.113E-01 0.445E-02
 gam= 0.938 trial= 0.211  step= 0.290 mean= 0.211
 gam= 2.790 g(H,U,f)=  0.418E-02 0.181E-01 0.921E-02 ort(H,U,f) = 0.198E-03 0.295E-02-0.175E-02
CGA:  77    -0.218896633049E+03   -0.22590E-02   -0.22437E-02  5760   0.315E-01 0.139E-02
 gam= 2.790 trial= 0.215  step= 0.178 mean= 0.215
 gam= 0.644 g(H,U,f)=  0.623E-02 0.105E-01 0.357E-02 ort(H,U,f) =-0.513E-02 0.941E-02-0.155E-02
CGA:  78    -0.218899616468E+03   -0.29834E-02   -0.31367E-02  5760   0.203E-01 0.273E-02
 gam= 0.644 trial= 0.213  step= 0.099 mean= 0.213
 gam= 0.685 g(H,U,f)=  0.522E-02 0.665E-02 0.202E-02 ort(H,U,f) =-0.921E-03 0.190E-02-0.240E-02
CGA:  79    -0.218900651941E+03   -0.10355E-02   -0.10943E-02  5760   0.139E-01-0.142E-02
 gam= 0.685 trial= 0.208  step= 0.247 mean= 0.208
 gam= 0.378 g(H,U,f)=  0.314E-02 0.191E-02 0.209E-03 ort(H,U,f) =-0.228E-02 0.139E-02 0.421E-03
CGA:  80    -0.218902224597E+03   -0.15727E-02   -0.15939E-02  5760   0.525E-02-0.472E-03
 gam= 0.378 trial= 0.210  step= 0.205 mean= 0.210
 gam= 1.883 g(H,U,f)=  0.201E-02 0.545E-02 0.243E-02 ort(H,U,f) = 0.102E-02 0.529E-04-0.105E-02
CGA:  81    -0.218902745045E+03   -0.52045E-03   -0.52057E-03  5760   0.989E-02 0.273E-04
 gam= 1.883 trial= 0.209  step= 0.168 mean= 0.209
 gam= 0.274 g(H,U,f)=  0.123E-02 0.141E-02 0.772E-04 ort(H,U,f) =-0.142E-02 0.143E-02-0.131E-03
CGA:  82    -0.218903578813E+03   -0.83377E-03   -0.83768E-03  5760   0.272E-02-0.117E-03
 gam= 0.274 trial= 0.207  step= 0.301 mean= 0.207
 gam= 2.373 g(H,U,f)=  0.110E-02 0.375E-02 0.159E-02 ort(H,U,f) =-0.130E-03 0.406E-03-0.323E-03
CGA:  83    -0.218903978898E+03   -0.40009E-03   -0.40378E-03  5760   0.644E-02-0.475E-04
 gam= 2.373 trial= 0.212  step= 0.123 mean= 0.212
 gam= 0.408 g(H,U,f)=  0.126E-02 0.133E-02 0.390E-04 ort(H,U,f) =-0.147E-02 0.155E-02-0.402E-04
CGA:  84    -0.218904367554E+03   -0.38866E-03   -0.38902E-03  5760   0.263E-02 0.408E-04
 gam= 0.408 trial= 0.208  step= 0.436 mean= 0.208
 gam= 2.621 g(H,U,f)=  0.135E-02 0.376E-02 0.177E-02 ort(H,U,f) =-0.579E-03 0.858E-03-0.232E-03
CGA:  85    -0.218904955896E+03   -0.58834E-03   -0.57609E-03  5760   0.688E-02 0.468E-04
 gam= 2.621 trial= 0.219  step= 0.099 mean= 0.219
 gam= 0.344 g(H,U,f)=  0.124E-02 0.104E-02 0.890E-04 ort(H,U,f) =-0.166E-02 0.189E-02-0.308E-03
CGA:  86    -0.218905306880E+03   -0.35098E-03   -0.34810E-03  5760   0.237E-02-0.792E-04
 gam= 0.344 trial= 0.213  step= 0.538 mean= 0.213
 gam= 1.484 g(H,U,f)=  0.132E-02 0.168E-02 0.515E-03 ort(H,U,f) =-0.612E-03 0.591E-03-0.301E-04
CGA:  87    -0.218905924890E+03   -0.61801E-03   -0.62981E-03  5760   0.351E-02-0.510E-04
 gam= 1.484 trial= 0.229  step= 0.123 mean= 0.229
 gam= 0.946 g(H,U,f)=  0.110E-02 0.174E-02 0.473E-03 ort(H,U,f) =-0.725E-04 0.515E-03-0.425E-03
CGA:  88    -0.218906135464E+03   -0.21057E-03   -0.21078E-03  5760   0.332E-02 0.170E-04
 gam= 0.946 trial= 0.224  step= 0.323 mean= 0.224
 gam= 0.540 g(H,U,f)=  0.881E-03 0.825E-03 0.860E-04 ort(H,U,f) =-0.593E-03 0.623E-03-0.968E-05
CGA:  89    -0.218906677824E+03   -0.54236E-03   -0.53944E-03  5760   0.179E-02 0.201E-04
 gam= 0.540 trial= 0.229  step= 0.246 mean= 0.229
 gam= 2.361 g(H,U,f)=  0.659E-03 0.254E-02 0.104E-02 ort(H,U,f) = 0.413E-04 0.267E-03-0.307E-03
CGA:  90    -0.218906899611E+03   -0.22179E-03   -0.22177E-03  5760   0.423E-02 0.123E-05
 gam= 2.361 trial= 0.230  step= 0.171 mean= 0.230
 gam= 0.358 g(H,U,f)=  0.825E-03 0.687E-03 0.271E-05 ort(H,U,f) =-0.126E-02 0.127E-02-0.648E-05
CGA:  91    -0.218907263465E+03   -0.36385E-03   -0.36307E-03  5760   0.151E-02 0.156E-05
 gam= 0.358 trial= 0.227  step= 0.584 mean= 0.227
 gam= 3.635 g(H,U,f)=  0.888E-03 0.327E-02 0.135E-02 ort(H,U,f) =-0.348E-03 0.483E-03-0.133E-03
CGA:  92    -0.218907707081E+03   -0.44362E-03   -0.44266E-03  5760   0.550E-02 0.162E-05
 gam= 3.635 trial= 0.245  step= 0.109 mean= 0.245
 gam= 0.461 g(H,U,f)=  0.125E-02 0.118E-02 0.114E-03 ort(H,U,f) =-0.168E-02 0.189E-02-0.220E-03
CGA:  93    -0.218908004756E+03   -0.29768E-03   -0.30152E-03  5760   0.254E-02-0.678E-05
 gam= 0.461 trial= 0.238  step= 0.591 mean= 0.238
 gam= 1.325 g(H,U,f)=  0.168E-02 0.140E-02 0.279E-03 ort(H,U,f) =-0.838E-03 0.974E-03-0.209E-04
CGA:  94    -0.218908779790E+03   -0.77503E-03   -0.74967E-03  5760   0.336E-02 0.115E-03
 gam= 1.325 trial= 0.256  step= 0.175 mean= 0.256
 gam= 1.889 g(H,U,f)=  0.161E-02 0.338E-02 0.136E-02 ort(H,U,f) =-0.962E-04 0.687E-03-0.633E-03
CGA:  95    -0.218909090338E+03   -0.31055E-03   -0.30798E-03  5760   0.636E-02-0.431E-04
 gam= 1.889 trial= 0.252  step= 0.311 mean= 0.252
 gam= 0.616 g(H,U,f)=  0.192E-02 0.174E-02 0.264E-03 ort(H,U,f) =-0.206E-02 0.199E-02 0.607E-04
CGA:  96    -0.218910064622E+03   -0.97428E-03   -0.97575E-03  5760   0.392E-02-0.154E-04
 gam= 0.616 trial= 0.255  step= 0.159 mean= 0.255
 gam= 1.644 g(H,U,f)=  0.162E-02 0.345E-02 0.138E-02 ort(H,U,f) = 0.851E-04 0.557E-03-0.606E-03
CGA:  97    -0.218910372003E+03   -0.30738E-03   -0.31090E-03  5760   0.644E-02 0.352E-04
 gam= 1.644 trial= 0.250  step= 0.233 mean= 0.250
 gam= 0.530 g(H,U,f)=  0.193E-02 0.144E-02 0.469E-04 ort(H,U,f) =-0.129E-02 0.128E-02-0.153E-04
CGA:  98    -0.218911129646E+03   -0.75764E-03   -0.75794E-03  5760   0.341E-02-0.308E-04
 gam= 0.530 trial= 0.249  step= 0.303 mean= 0.249
 gam= 2.729 g(H,U,f)=  0.143E-02 0.549E-02 0.239E-02 ort(H,U,f) =-0.953E-04 0.544E-03-0.559E-03
CGA:  99    -0.218911641132E+03   -0.51149E-03   -0.51382E-03  5760   0.931E-02-0.109E-03
 gam= 2.729 trial= 0.252  step= 0.121 mean= 0.252
 gam= 0.298 g(H,U,f)=  0.160E-02 0.114E-02 0.341E-04 ort(H,U,f) =-0.283E-02 0.269E-02 0.102E-03
CGA: 100    -0.218912186565E+03   -0.54543E-03   -0.54602E-03  5760   0.277E-02-0.373E-04
 gam= 0.298 trial= 0.245  step= 0.350 mean= 0.245
 gam= 3.166 g(H,U,f)=  0.144E-02 0.516E-02 0.218E-02 ort(H,U,f) =-0.990E-04 0.513E-03-0.324E-03
CGA: 101    -0.218912675196E+03   -0.48863E-03   -0.48413E-03  5760   0.878E-02 0.899E-04
 gam= 3.166 trial= 0.250  step= 0.117 mean= 0.250
 gam= 0.000 g(H,U,f)=  0.157E-02 0.140E-02 0.392E-04 ort(H,U,f) =-0.185E-02 0.202E-02-0.203E-03
SDA: 102    -0.218913209653E+03   -0.53446E-03   -0.53159E-03  5760   0.301E-02-0.315E-04
 gam= 0.000 trial= 0.244  step= 0.252 mean= 0.244
 gam= 0.526 g(H,U,f)=  0.510E-03 0.909E-03 0.162E-03 ort(H,U,f) = 0.406E-04 0.317E-04-0.543E-04
CGA: 103    -0.218913589109E+03   -0.37946E-03   -0.37916E-03  5760   0.158E-02 0.181E-04
 gam= 0.526 trial= 0.244  step= 0.195 mean= 0.244
 gam= 1.894 g(H,U,f)=  0.582E-03 0.180E-02 0.615E-03 ort(H,U,f) = 0.168E-03 0.900E-04-0.254E-03
CGA: 104    -0.218913744172E+03   -0.15506E-03   -0.15544E-03  5760   0.300E-02 0.346E-05
 gam= 1.894 trial= 0.242  step= 0.312 mean= 0.242
 gam= 0.395 g(H,U,f)=  0.737E-03 0.437E-03 0.100E-04 ort(H,U,f) =-0.121E-02 0.125E-02-0.462E-05
CGA: 105    -0.218914214643E+03   -0.47047E-03   -0.46903E-03  5760   0.118E-02 0.319E-04
 gam= 0.395 trial= 0.245  step= 0.667 mean= 0.245
 gam= 1.344 g(H,U,f)=  0.809E-03 0.710E-03 0.723E-04 ort(H,U,f) =-0.310E-03 0.364E-03-0.172E-04
CGA: 106    -0.218914625118E+03   -0.41047E-03   -0.39898E-03  5760   0.159E-02 0.370E-04
 gam= 1.344 trial= 0.266  step= 0.363 mean= 0.266
 gam= 2.771 g(H,U,f)=  0.833E-03 0.255E-02 0.103E-02 ort(H,U,f) =-0.157E-03 0.335E-03-0.190E-03
CGA: 107    -0.218914922825E+03   -0.29771E-03   -0.29813E-03  5760   0.441E-02-0.124E-04
 gam= 2.771 trial= 0.271  step= 0.133 mean= 0.271
 gam= 0.282 g(H,U,f)=  0.824E-03 0.401E-03 0.180E-04 ort(H,U,f) =-0.127E-02 0.127E-02-0.586E-04
CGA: 108    -0.218915204203E+03   -0.28138E-03   -0.29034E-03  5760   0.124E-02-0.556E-04
 gam= 0.282 trial= 0.264  step= 0.570 mean= 0.264
 gam= 1.148 g(H,U,f)=  0.672E-03 0.641E-03 0.114E-03 ort(H,U,f) =-0.257E-03 0.266E-03-0.836E-05
CGA: 109    -0.218915554822E+03   -0.35062E-03   -0.34941E-03  5760   0.143E-02 0.903E-07
 gam= 1.148 trial= 0.280  step= 0.186 mean= 0.280
 gam= 1.729 g(H,U,f)=  0.539E-03 0.141E-02 0.521E-03 ort(H,U,f) = 0.994E-04 0.129E-03-0.239E-03
CGA: 110    -0.218915687701E+03   -0.13288E-03   -0.13247E-03  5760   0.247E-02-0.106E-04
 gam= 1.729 trial= 0.275  step= 0.280 mean= 0.275
 gam= 0.435 g(H,U,f)=  0.557E-03 0.503E-03 0.139E-04 ort(H,U,f) =-0.718E-03 0.709E-03 0.587E-05
CGA: 111    -0.218916030277E+03   -0.34258E-03   -0.34254E-03  5760   0.107E-02-0.297E-05
 gam= 0.435 trial= 0.275  step= 0.437 mean= 0.275
 gam= 1.853 g(H,U,f)=  0.474E-03 0.110E-02 0.413E-03 ort(H,U,f) =-0.236E-03 0.305E-03-0.672E-04
CGA: 112    -0.218916266011E+03   -0.23573E-03   -0.23421E-03  5760   0.199E-02 0.141E-05
 gam= 1.853 trial= 0.283  step= 0.123 mean= 0.283
 gam= 0.741 g(H,U,f)=  0.561E-03 0.794E-03 0.121E-03 ort(H,U,f) =-0.368E-03 0.530E-03-0.159E-03
CGA: 113    -0.218916388704E+03   -0.12269E-03   -0.12280E-03  5760   0.148E-02 0.259E-05
 gam= 0.741 trial= 0.275  step= 0.596 mean= 0.275
 gam= 1.003 g(H,U,f)=  0.865E-03 0.595E-03 0.207E-04 ort(H,U,f) =-0.555E-03 0.562E-03 0.175E-05
CGA: 114    -0.218916831548E+03   -0.44284E-03   -0.44073E-03  5760   0.148E-02 0.904E-05
 gam= 1.003 trial= 0.291  step= 0.405 mean= 0.291
 gam= 2.753 g(H,U,f)=  0.851E-03 0.229E-02 0.933E-03 ort(H,U,f) =-0.218E-03 0.333E-03-0.102E-03
CGA: 115    -0.218917133147E+03   -0.30160E-03   -0.30136E-03  5760   0.408E-02 0.126E-04
 gam= 2.753 trial= 0.297  step= 0.127 mean= 0.297
 gam= 0.426 g(H,U,f)=  0.100E-02 0.681E-03 0.543E-04 ort(H,U,f) =-0.804E-03 0.958E-03-0.133E-03
CGA: 116    -0.218917393881E+03   -0.26073E-03   -0.26202E-03  5760   0.174E-02 0.214E-04
 gam= 0.426 trial= 0.288  step= 0.595 mean= 0.288
 gam= 1.026 g(H,U,f)=  0.752E-03 0.860E-03 0.168E-03 ort(H,U,f) =-0.346E-03 0.371E-03-0.215E-04
CGA: 117    -0.218917914629E+03   -0.52075E-03   -0.51893E-03  5760   0.178E-02 0.355E-05
 gam= 1.026 trial= 0.304  step= 0.162 mean= 0.304
 gam= 1.408 g(H,U,f)=  0.622E-03 0.144E-02 0.448E-03 ort(H,U,f) = 0.401E-04 0.197E-03-0.230E-03
CGA: 118    -0.218918058466E+03   -0.14384E-03   -0.14415E-03  5760   0.251E-02 0.665E-05
 gam= 1.408 trial= 0.297  step= 0.281 mean= 0.297
 gam= 0.454 g(H,U,f)=  0.574E-03 0.549E-03 0.142E-04 ort(H,U,f) =-0.594E-03 0.620E-03 0.682E-05
CGA: 119    -0.218918412557E+03   -0.35409E-03   -0.35417E-03  5760   0.114E-02 0.321E-04
 gam= 0.454 trial= 0.296  step= 0.586 mean= 0.296
 gam= 2.738 g(H,U,f)=  0.627E-03 0.182E-02 0.666E-03 ort(H,U,f) =-0.255E-03 0.376E-03-0.836E-04
CGA: 120    -0.218918760829E+03   -0.34827E-03   -0.33782E-03  5760   0.312E-02 0.371E-04
 gam= 2.738 trial= 0.310  step= 0.121 mean= 0.310
 gam= 0.591 g(H,U,f)=  0.783E-03 0.922E-03 0.137E-03 ort(H,U,f) =-0.793E-03 0.980E-03-0.199E-03
CGA: 121    -0.218918954553E+03   -0.19372E-03   -0.19440E-03  5760   0.184E-02-0.123E-04
 gam= 0.591 trial= 0.301  step= 0.517 mean= 0.301
 gam= 0.928 g(H,U,f)=  0.931E-03 0.708E-03 0.694E-04 ort(H,U,f) =-0.597E-03 0.607E-03-0.187E-04
CGA: 122    -0.218919427824E+03   -0.47327E-03   -0.47427E-03  5760   0.171E-02-0.911E-05
 gam= 0.928 trial= 0.312  step= 0.483 mean= 0.312
 gam= 3.260 g(H,U,f)=  0.952E-03 0.330E-02 0.132E-02 ort(H,U,f) =-0.764E-04 0.345E-03-0.214E-03
CGA: 123    -0.218919841880E+03   -0.41406E-03   -0.41052E-03  5760   0.557E-02 0.544E-04
 gam= 3.260 trial= 0.320  step= 0.128 mean= 0.320
 gam= 0.279 g(H,U,f)=  0.728E-03 0.735E-03 0.899E-04 ort(H,U,f) =-0.972E-03 0.119E-02-0.325E-03
CGA: 124    -0.218920213718E+03   -0.37184E-03   -0.36867E-03  5760   0.155E-02-0.112E-03
 gam= 0.279 trial= 0.311  step= 0.591 mean= 0.311
 gam= 1.809 g(H,U,f)=  0.886E-03 0.155E-02 0.370E-03 ort(H,U,f) =-0.384E-03 0.381E-03-0.476E-04
CGA: 125    -0.218920649151E+03   -0.43543E-03   -0.44950E-03  5760   0.281E-02-0.504E-04
 gam= 1.809 trial= 0.325  step= 0.172 mean= 0.325
 gam= 1.266 g(H,U,f)=  0.108E-02 0.196E-02 0.522E-03 ort(H,U,f) =-0.374E-03 0.632E-03-0.318E-03
CGA: 126    -0.218920878394E+03   -0.22924E-03   -0.23358E-03  5760   0.355E-02-0.594E-04
 gam= 1.266 trial= 0.317  step= 0.358 mean= 0.317
 gam= 0.739 g(H,U,f)=  0.120E-02 0.126E-02 0.163E-03 ort(H,U,f) =-0.114E-02 0.113E-02-0.206E-03
CGA: 127    -0.218921497622E+03   -0.61923E-03   -0.62238E-03  5760   0.263E-02-0.211E-03
 gam= 0.739 trial= 0.319  step= 0.517 mean= 0.319
 gam= 2.994 g(H,U,f)=  0.144E-02 0.460E-02 0.183E-02 ort(H,U,f) =-0.608E-03 0.687E-03-0.247E-03
CGA: 128    -0.218922122868E+03   -0.62525E-03   -0.63846E-03  5760   0.787E-02-0.168E-03
 gam= 2.994 trial= 0.329  step= 0.122 mean= 0.329
 gam= 0.336 g(H,U,f)=  0.148E-02 0.108E-02 0.830E-04 ort(H,U,f) =-0.211E-02 0.231E-02-0.214E-03
CGA: 129    -0.218922570733E+03   -0.44786E-03   -0.44848E-03  5760   0.265E-02-0.208E-04
 gam= 0.336 trial= 0.319  step= 0.765 mean= 0.319
 gam= 1.108 g(H,U,f)=  0.158E-02 0.131E-02 0.497E-04 ort(H,U,f) =-0.523E-03 0.514E-03 0.255E-05
CGA: 130    -0.218923580353E+03   -0.10096E-02   -0.10095E-02  5760   0.293E-02-0.710E-05
 gam= 1.108 trial= 0.341  step= 0.438 mean= 0.341
 gam= 1.115 g(H,U,f)=  0.101E-02 0.172E-02 0.530E-03 ort(H,U,f) =-0.248E-03 0.360E-03-0.574E-04
CGA: 131    -0.218924225937E+03   -0.64558E-03   -0.64040E-03  5760   0.327E-02 0.545E-04
 gam= 1.115 trial= 0.346  step= 0.123 mean= 0.346
 gam= 0.731 g(H,U,f)=  0.850E-03 0.126E-02 0.277E-03 ort(H,U,f) = 0.231E-03 0.981E-04-0.285E-03
CGA: 132    -0.218924433600E+03   -0.20766E-03   -0.20527E-03  5760   0.239E-02 0.436E-04
 gam= 0.731 trial= 0.335  step= 0.421 mean= 0.335
 gam= 0.000 g(H,U,f)=  0.606E-03 0.663E-03 0.248E-04 ort(H,U,f) =-0.215E-03 0.292E-03 0.355E-04
SDA: 133    -0.218924948160E+03   -0.51456E-03   -0.50928E-03  5760   0.129E-02 0.112E-03
 gam= 0.000 trial= 0.339  step= 0.429 mean= 0.339
 gam= 0.586 g(H,U,f)=  0.257E-03 0.488E-03 0.138E-04 ort(H,U,f) =-0.339E-04 0.838E-04-0.618E-05
CGA: 134    -0.218925228323E+03   -0.28016E-03   -0.27735E-03  5760   0.759E-03 0.437E-04
 gam= 0.586 trial= 0.343  step= 0.757 mean= 0.343
 gam= 4.607 g(H,U,f)=  0.534E-03 0.223E-02 0.728E-03 ort(H,U,f) =-0.154E-03 0.200E-03-0.432E-04
CGA: 135    -0.218925522541E+03   -0.29422E-03   -0.29693E-03  5760   0.349E-02 0.283E-05
 gam= 4.607 trial= 0.364  step= 0.122 mean= 0.364
 gam= 0.365 g(H,U,f)=  0.619E-03 0.605E-03 0.527E-04 ort(H,U,f) =-0.112E-02 0.116E-02-0.898E-04
CGA: 136    -0.218925725898E+03   -0.20336E-03   -0.21325E-03  5760   0.128E-02-0.436E-04
 gam= 0.365 trial= 0.352  step= 0.481 mean= 0.352
 gam= 0.772 g(H,U,f)=  0.529E-03 0.425E-03 0.307E-04 ort(H,U,f) =-0.324E-03 0.337E-03-0.458E-05
CGA: 137    -0.218926031038E+03   -0.30514E-03   -0.30326E-03  5760   0.985E-03 0.814E-05
 gam= 0.772 trial= 0.358  step= 0.298 mean= 0.358
 gam= 2.611 g(H,U,f)=  0.442E-03 0.154E-02 0.594E-03 ort(H,U,f) = 0.523E-04 0.938E-04-0.133E-03
CGA: 138    -0.218926178881E+03   -0.14784E-03   -0.14754E-03  5760   0.257E-02 0.135E-04
 gam= 2.611 trial= 0.355  step= 0.179 mean= 0.355
 gam= 0.286 g(H,U,f)=  0.374E-03 0.353E-03 0.888E-05 ort(H,U,f) =-0.516E-03 0.522E-03 0.325E-04
CGA: 139    -0.218926405105E+03   -0.22622E-03   -0.23272E-03  5760   0.735E-03 0.388E-04
 gam= 0.286 trial= 0.347  step= 0.499 mean= 0.347
 gam= 1.862 g(H,U,f)=  0.304E-03 0.798E-03 0.267E-03 ort(H,U,f) =-0.800E-04 0.140E-03-0.549E-04
CGA: 140    -0.218926595091E+03   -0.18999E-03   -0.18636E-03  5760   0.137E-02 0.522E-05
 gam= 1.862 trial= 0.354  step= 0.110 mean= 0.354
 gam= 0.527 g(H,U,f)=  0.304E-03 0.362E-03 0.563E-04 ort(H,U,f) =-0.929E-04 0.198E-03-0.103E-03
CGA: 141    -0.218926673860E+03   -0.78769E-04   -0.76145E-04  5760   0.722E-03 0.277E-05
 gam= 0.527 trial= 0.342  step= 0.569 mean= 0.342
 gam= 0.850 g(H,U,f)=  0.320E-03 0.287E-03 0.645E-05 ort(H,U,f) =-0.195E-03 0.188E-03 0.457E-05
CGA: 142    -0.218926878639E+03   -0.20478E-03   -0.20590E-03  5760   0.613E-03-0.226E-05
 gam= 0.850 trial= 0.353  step= 0.439 mean= 0.353
 gam= 2.330 g(H,U,f)=  0.275E-03 0.843E-03 0.312E-03 ort(H,U,f) =-0.703E-04 0.129E-03-0.633E-04
CGA: 143    -0.218927013542E+03   -0.13490E-03   -0.13429E-03  5760   0.143E-02-0.458E-05
 gam= 2.330 trial= 0.358  step= 0.115 mean= 0.358
 gam= 0.343 g(H,U,f)=  0.255E-03 0.210E-03 0.257E-04 ort(H,U,f) =-0.250E-03 0.304E-03-0.535E-04
CGA: 144    -0.218927096057E+03   -0.82516E-04   -0.81403E-04  5760   0.490E-03 0.741E-06
 gam= 0.343 trial= 0.346  step= 0.622 mean= 0.346
 gam= 0.868 g(H,U,f)=  0.226E-03 0.191E-03 0.814E-05 ort(H,U,f) =-0.107E-03 0.998E-04-0.337E-05
CGA: 145    -0.218927247456E+03   -0.15140E-03   -0.15261E-03  5760   0.425E-03-0.110E-04
 gam= 0.868 trial= 0.359  step= 0.526 mean= 0.359
 gam= 1.290 g(H,U,f)=  0.171E-03 0.290E-03 0.872E-04 ort(H,U,f) =-0.670E-04 0.929E-04-0.184E-04
CGA: 146    -0.218927358152E+03   -0.11070E-03   -0.10936E-03  5760   0.549E-03 0.742E-05
 gam= 1.290 trial= 0.368  step= 0.128 mean= 0.368
 gam= 0.807 g(H,U,f)=  0.154E-03 0.235E-03 0.539E-04 ort(H,U,f) =-0.243E-04 0.740E-04-0.491E-04
CGA: 147    -0.218927393799E+03   -0.35647E-04   -0.35833E-04  5760   0.443E-03 0.612E-06
 gam= 0.807 trial= 0.356  step= 0.424 mean= 0.356
 gam= 0.726 g(H,U,f)=  0.168E-03 0.149E-03 0.422E-05 ort(H,U,f) =-0.907E-04 0.935E-04-0.273E-05
CGA: 148    -0.218927487818E+03   -0.94019E-04   -0.94030E-04  5760   0.322E-03 0.243E-07
 gam= 0.726 trial= 0.359  step= 0.688 mean= 0.359
 gam= 1.437 g(H,U,f)=  0.159E-03 0.242E-03 0.615E-04 ort(H,U,f) =-0.856E-04 0.838E-04-0.787E-05
CGA: 149    -0.218927597490E+03   -0.10967E-03   -0.11061E-03  5760   0.462E-03-0.965E-05
 gam= 1.437 trial= 0.376  step= 0.134 mean= 0.376
 gam= 0.876 g(H,U,f)=  0.147E-03 0.202E-03 0.562E-04 ort(H,U,f) =-0.346E-04 0.831E-04-0.498E-04
CGA: 150    -0.218927627410E+03   -0.29920E-04   -0.30105E-04  5760   0.405E-03-0.129E-05
 gam= 0.876 trial= 0.364  step= 0.365 mean= 0.364
 gam= 0.523 g(H,U,f)=  0.117E-03 0.923E-04 0.298E-05 ort(H,U,f) =-0.908E-04 0.991E-04-0.235E-05
CGA: 151    -0.218927700985E+03   -0.73575E-04   -0.73572E-04  5760   0.212E-03 0.594E-05
 gam= 0.523 trial= 0.364  step= 0.726 mean= 0.364
 gam= 1.970 g(H,U,f)=  0.103E-03 0.234E-03 0.795E-04 ort(H,U,f) =-0.389E-04 0.463E-04-0.665E-05
CGA: 152    -0.218927779163E+03   -0.78178E-04   -0.77972E-04  5760   0.417E-03 0.784E-06
 gam= 1.970 trial= 0.382  step= 0.110 mean= 0.382
 gam= 0.522 g(H,U,f)=  0.928E-04 0.105E-03 0.195E-04 ort(H,U,f) =-0.406E-04 0.712E-04-0.319E-04
CGA: 153    -0.218927802090E+03   -0.22927E-04   -0.22933E-04  5760   0.218E-03-0.130E-05
 gam= 0.522 trial= 0.368  step= 0.475 mean= 0.368
 gam= 0.668 g(H,U,f)=  0.763E-04 0.656E-04 0.351E-05 ort(H,U,f) =-0.361E-04 0.391E-04-0.191E-05
CGA: 154    -0.218927853801E+03   -0.51711E-04   -0.51496E-04  5760   0.145E-03 0.112E-05
 gam= 0.668 trial= 0.373  step= 0.602 mean= 0.373
 gam= 1.769 g(H,U,f)=  0.659E-04 0.146E-03 0.453E-04 ort(H,U,f) =-0.162E-04 0.275E-04-0.805E-05
CGA: 155    -0.218927898470E+03   -0.44669E-04   -0.44028E-04  5760   0.257E-03 0.322E-05
 gam= 1.769 trial= 0.385  step= 0.132 mean= 0.385
 gam= 0.752 g(H,U,f)=  0.640E-04 0.106E-03 0.237E-04 ort(H,U,f) =-0.122E-04 0.328E-04-0.209E-04
CGA: 156    -0.218927915371E+03   -0.16902E-04   -0.17376E-04  5760   0.194E-03-0.314E-06
 gam= 0.752 trial= 0.372  step= 0.347 mean= 0.372
 gam= 0.526 g(H,U,f)=  0.524E-04 0.464E-04 0.310E-05 ort(H,U,f) =-0.452E-04 0.478E-04-0.311E-05
CGA: 157    -0.218927948912E+03   -0.33540E-04   -0.33541E-04  5760   0.102E-03-0.445E-06
 gam= 0.526 trial= 0.371  step= 0.577 mean= 0.371
 gam= 3.417 g(H,U,f)=  0.566E-04 0.213E-03 0.785E-04 ort(H,U,f) =-0.132E-04 0.162E-04-0.890E-05
CGA: 158    -0.218927977722E+03   -0.28810E-04   -0.29317E-04  5760   0.348E-03-0.593E-05
 gam= 3.417 trial= 0.381  step= 0.127 mean= 0.381
 gam= 0.428 g(H,U,f)=  0.723E-04 0.723E-04 0.450E-05 ort(H,U,f) =-0.848E-04 0.928E-04-0.112E-04
CGA: 159    -0.218927998854E+03   -0.21132E-04   -0.20839E-04  5760   0.149E-03-0.328E-05
 gam= 0.428 trial= 0.369  step= 0.550 mean= 0.369
 gam= 0.709 g(H,U,f)=  0.606E-04 0.422E-04 0.288E-05 ort(H,U,f) =-0.480E-04 0.525E-04-0.714E-06
CGA: 160    -0.218928039882E+03   -0.41028E-04   -0.40642E-04  5760   0.106E-03 0.374E-05
 gam= 0.709 trial= 0.378  step= 0.370 mean= 0.378
 gam= 3.700 g(H,U,f)=  0.660E-04 0.238E-03 0.870E-04 ort(H,U,f) =-0.116E-05 0.126E-04-0.135E-04
CGA: 161    -0.218928059904E+03   -0.20023E-04   -0.20020E-04  5760   0.391E-03-0.207E-05
 gam= 3.700 trial= 0.377  step= 0.199 mean= 0.377
 gam= 0.429 g(H,U,f)=  0.896E-04 0.770E-04 0.868E-06 ort(H,U,f) =-0.117E-03 0.118E-03-0.349E-05
CGA: 162    -0.218928098276E+03   -0.38372E-04   -0.38061E-04  5760   0.168E-03-0.267E-05
 gam= 0.429 trial= 0.368  step= 0.495 mean= 0.368
 gam= 2.327 g(H,U,f)=  0.768E-04 0.230E-03 0.833E-04 ort(H,U,f) =-0.351E-04 0.446E-04-0.924E-05
CGA: 163    -0.218928139416E+03   -0.41140E-04   -0.41176E-04  5760   0.390E-03 0.174E-06
 gam= 2.327 trial= 0.375  step= 0.101 mean= 0.375
 gam= 0.000 g(H,U,f)=  0.791E-04 0.564E-04 0.614E-05 ort(H,U,f) =-0.979E-04 0.108E-03-0.149E-04
SDA: 164    -0.218928158376E+03   -0.18960E-04   -0.19674E-04  5760   0.142E-03-0.505E-05
 gam= 0.000 trial= 0.361  step= 0.248 mean= 0.361
 gam= 1.572 g(H,U,f)=  0.461E-04 0.129E-03 0.477E-04 ort(H,U,f) = 0.347E-04-0.167E-04-0.168E-04
CGA: 165    -0.218928175836E+03   -0.17460E-04   -0.17539E-04  5760   0.223E-03 0.114E-05
 gam= 1.572 trial= 0.355  step= 0.145 mean= 0.355
 gam= 0.434 g(H,U,f)=  0.360E-04 0.578E-04 0.277E-05 ort(H,U,f) = 0.186E-04-0.133E-04-0.487E-05
CGA: 166    -0.218928191822E+03   -0.15985E-04   -0.16263E-04  5760   0.966E-04 0.410E-06
 gam= 0.434 trial= 0.345  step= 0.467 mean= 0.345
 gam= 0.421 g(H,U,f)=  0.232E-04 0.175E-04 0.344E-07 ort(H,U,f) =-0.219E-04 0.232E-04-0.181E-07
CGA: 167    -0.218928214547E+03   -0.22725E-04   -0.22627E-04  5760   0.407E-04 0.124E-05
 gam= 0.421 trial= 0.351  step= 0.777 mean= 0.351
 gam= 1.711 g(H,U,f)=  0.255E-04 0.382E-04 0.598E-05 ort(H,U,f) =-0.921E-05 0.826E-05-0.182E-06
CGA: 168    -0.218928230350E+03   -0.15803E-04   -0.16013E-04  5760   0.697E-04-0.113E-05
 gam= 1.711 trial= 0.372  step= 0.177 mean= 0.372
 gam= 1.374 g(H,U,f)=  0.208E-04 0.575E-04 0.175E-04 ort(H,U,f) =-0.278E-05 0.127E-04-0.952E-05
CGA: 169    -0.218928236255E+03   -0.59049E-05   -0.59803E-05  5760   0.958E-04 0.418E-06
 gam= 1.374 trial= 0.362  step= 0.260 mean= 0.362
 gam= 0.322 g(H,U,f)=  0.189E-04 0.118E-04 0.159E-06 ort(H,U,f) =-0.253E-04 0.282E-04-0.405E-06
CGA: 170    -0.218928248625E+03   -0.12370E-04   -0.12520E-04  5760   0.309E-04 0.250E-05
 gam= 0.322 trial= 0.357  step= 0.772 mean= 0.357
 gam= 1.353 g(H,U,f)=  0.209E-04 0.205E-04 0.400E-06 ort(H,U,f) =-0.769E-05 0.710E-05-0.704E-09
CGA: 171    -0.218928260729E+03   -0.12104E-04   -0.12228E-04  5760   0.418E-04-0.590E-06
 gam= 1.353 trial= 0.378  step= 0.560 mean= 0.378
 gam= 2.638 g(H,U,f)=  0.179E-04 0.666E-04 0.256E-04 ort(H,U,f) =-0.795E-05 0.838E-05-0.257E-05
CGA: 172    -0.218928272021E+03   -0.11292E-04   -0.11467E-04  5760   0.110E-03-0.214E-05
 gam= 2.638 trial= 0.387  step= 0.104 mean= 0.387
 gam= 0.322 g(H,U,f)=  0.189E-04 0.156E-04 0.958E-06 ort(H,U,f) =-0.278E-04 0.302E-04-0.337E-05
CGA: 173    -0.218928277554E+03   -0.55332E-05   -0.54576E-05  5760   0.355E-04-0.918E-06
 gam= 0.322 trial= 0.373  step= 0.639 mean= 0.373
 gam= 1.353 g(H,U,f)=  0.192E-04 0.245E-04 0.430E-05 ort(H,U,f) =-0.786E-05 0.959E-05-0.819E-06
CGA: 174    -0.218928288967E+03   -0.11413E-04   -0.11254E-04  5760   0.480E-04 0.910E-06
 gam= 1.353 trial= 0.386  step= 0.205 mean= 0.386
 gam= 1.905 g(H,U,f)=  0.197E-04 0.550E-04 0.168E-04 ort(H,U,f) =-0.104E-05 0.683E-05-0.616E-05
CGA: 175    -0.218928294030E+03   -0.50631E-05   -0.50453E-05  5760   0.915E-04-0.371E-06
 gam= 1.905 trial= 0.377  step= 0.250 mean= 0.377
 gam= 0.432 g(H,U,f)=  0.197E-04 0.188E-04 0.104E-05 ort(H,U,f) =-0.252E-04 0.245E-04-0.471E-06
CGA: 176    -0.218928305338E+03   -0.11308E-04   -0.11342E-04  5760   0.395E-04-0.116E-05
 gam= 0.432 trial= 0.371  step= 0.345 mean= 0.371
 gam= 2.581 g(H,U,f)=  0.189E-04 0.607E-04 0.223E-04 ort(H,U,f) =-0.375E-05 0.711E-05-0.401E-05
CGA: 177    -0.218928312084E+03   -0.67459E-05   -0.67376E-05  5760   0.102E-03-0.655E-06
 gam= 2.581 trial= 0.370  step= 0.127 mean= 0.370
 gam= 0.391 g(H,U,f)=  0.216E-04 0.170E-04 0.125E-05 ort(H,U,f) =-0.187E-04 0.189E-04-0.313E-05
CGA: 178    -0.218928318412E+03   -0.63280E-05   -0.63870E-05  5760   0.399E-04-0.301E-05
 gam= 0.391 trial= 0.357  step= 0.506 mean= 0.357
 gam= 2.384 g(H,U,f)=  0.167E-04 0.575E-04 0.208E-04 ort(H,U,f) =-0.329E-05 0.783E-05-0.133E-05
CGA: 179    -0.218928328445E+03   -0.10033E-04   -0.97945E-05  5760   0.950E-04 0.322E-05
 gam= 2.384 trial= 0.365  step= 0.103 mean= 0.365
 gam= 0.364 g(H,U,f)=  0.156E-04 0.164E-04 0.262E-05 ort(H,U,f) =-0.130E-04 0.188E-04-0.614E-05
CGA: 180    -0.218928333487E+03   -0.50412E-05   -0.52767E-05  5760   0.346E-04-0.315E-06
 gam= 0.364 trial= 0.352  step= 0.616 mean= 0.352
 gam= 0.812 g(H,U,f)=  0.155E-04 0.124E-04 0.907E-07 ort(H,U,f) =-0.998E-05 0.955E-05-0.146E-06
CGA: 181    -0.218928344077E+03   -0.10590E-04   -0.10612E-04  5760   0.281E-04-0.574E-06
 gam= 0.812 trial= 0.365  step= 0.852 mean= 0.365
 gam= 1.120 g(H,U,f)=  0.159E-04 0.152E-04 0.340E-06 ort(H,U,f) =-0.812E-05 0.866E-05 0.504E-08
CGA: 182    -0.218928355965E+03   -0.11888E-04   -0.11769E-04  5760   0.315E-04 0.554E-06
 gam= 1.120 trial= 0.389  step= 0.551 mean= 0.389
 gam= 2.218 g(H,U,f)=  0.148E-04 0.408E-04 0.142E-04 ort(H,U,f) =-0.582E-05 0.833E-05-0.190E-05
CGA: 183    -0.218928364872E+03   -0.89068E-05   -0.88308E-05  5760   0.698E-04 0.609E-06
 gam= 2.218 trial= 0.397  step= 0.119 mean= 0.397
 gam= 0.555 g(H,U,f)=  0.170E-04 0.188E-04 0.294E-05 ort(H,U,f) =-0.115E-04 0.160E-04-0.426E-05
CGA: 184    -0.218928369106E+03   -0.42343E-05   -0.42344E-05  5760   0.388E-04 0.223E-06
 gam= 0.555 trial= 0.384  step= 0.651 mean= 0.384
 gam= 0.885 g(H,U,f)=  0.178E-04 0.159E-04 0.571E-06 ort(H,U,f) =-0.926E-05 0.853E-05-0.180E-06
CGA: 185    -0.218928381692E+03   -0.12586E-04   -0.12654E-04  5760   0.343E-04-0.907E-06
 gam= 0.885 trial= 0.397  step= 0.489 mean= 0.397
 gam= 2.018 g(H,U,f)=  0.139E-04 0.403E-04 0.149E-04 ort(H,U,f) =-0.439E-05 0.592E-05-0.182E-05
CGA: 186    -0.218928389840E+03   -0.81478E-05   -0.81830E-05  5760   0.692E-04-0.288E-06
 gam= 2.018 trial= 0.401  step= 0.112 mean= 0.401
 gam= 0.419 g(H,U,f)=  0.142E-04 0.132E-04 0.150E-05 ort(H,U,f) =-0.912E-05 0.112E-04-0.343E-05
CGA: 187    -0.218928393584E+03   -0.37441E-05   -0.38446E-05  5760   0.290E-04-0.135E-05
 gam= 0.419 trial= 0.387  step= 0.622 mean= 0.387
 gam= 0.850 g(H,U,f)=  0.121E-04 0.123E-04 0.292E-06 ort(H,U,f) =-0.562E-05 0.531E-05-0.301E-06
CGA: 188    -0.218928402349E+03   -0.87651E-05   -0.88268E-05  5760   0.246E-04-0.611E-06
 gam= 0.850 trial= 0.399  step= 0.636 mean= 0.399
 gam= 1.187 g(H,U,f)=  0.109E-04 0.146E-04 0.376E-05 ort(H,U,f) =-0.599E-05 0.537E-05-0.523E-06
CGA: 189    -0.218928409876E+03   -0.75276E-05   -0.76620E-05  5760   0.292E-04-0.115E-05
 gam= 1.187 trial= 0.411  step= 0.151 mean= 0.411
 gam= 1.135 g(H,U,f)=  0.105E-04 0.181E-04 0.458E-05 ort(H,U,f) =-0.743E-07 0.345E-05-0.348E-05
CGA: 190    -0.218928411973E+03   -0.20969E-05   -0.20966E-05  5760   0.332E-04-0.986E-07
 gam= 1.135 trial= 0.398  step= 0.370 mean= 0.398
 gam= 0.536 g(H,U,f)=  0.950E-05 0.795E-05 0.340E-06 ort(H,U,f) =-0.608E-05 0.664E-05-0.185E-06
CGA: 191    -0.218928418080E+03   -0.61071E-05   -0.61160E-05  5760   0.178E-04 0.376E-06
 gam= 0.536 trial= 0.396  step= 0.659 mean= 0.396
 gam= 0.788 g(H,U,f)=  0.645E-05 0.713E-05 0.435E-06 ort(H,U,f) =-0.328E-05 0.490E-05-0.764E-07
CGA: 192    -0.218928424247E+03   -0.61666E-05   -0.59305E-05  5760   0.140E-04 0.155E-05
 gam= 0.788 trial= 0.409  step= 0.433 mean= 0.409
 gam= 2.857 g(H,U,f)=  0.564E-05 0.249E-04 0.955E-05 ort(H,U,f) =-0.121E-05 0.262E-05-0.169E-05
CGA: 193    -0.218928427539E+03   -0.32920E-05   -0.32963E-05  5760   0.400E-04-0.274E-06
 gam= 2.857 trial= 0.411  step= 0.126 mean= 0.411
 gam= 0.418 g(H,U,f)=  0.785E-05 0.841E-05 0.467E-06 ort(H,U,f) =-0.113E-04 0.110E-04 0.265E-06
CGA: 194    -0.218928429951E+03   -0.24115E-05   -0.24818E-05  5760   0.167E-04-0.197E-08
 gam= 0.418 trial= 0.396  step= 0.617 mean= 0.396
 gam= 0.000 g(H,U,f)=  0.893E-05 0.251E-04 0.782E-05 ort(H,U,f) =-0.369E-05 0.605E-05-0.108E-05
SDA: 195    -0.218928435389E+03   -0.54388E-05   -0.51574E-05  5760   0.418E-04 0.128E-05
 gam= 0.000 trial= 0.407  step= 0.079 mean= 0.407
 gam= 0.279 g(H,U,f)=  0.465E-05 0.586E-05 0.116E-05 ort(H,U,f) = 0.489E-05-0.243E-05-0.297E-05
CGA: 196    -0.218928437038E+03   -0.16487E-05   -0.16565E-05  5760   0.117E-04-0.513E-06
 gam= 0.279 trial= 0.391  step= 0.490 mean= 0.391
 gam= 0.934 g(H,U,f)=  0.344E-05 0.694E-05 0.524E-06 ort(H,U,f) =-0.549E-07-0.396E-06-0.181E-06
CGA: 197    -0.218928439833E+03   -0.27953E-05   -0.28261E-05  5760   0.109E-04-0.632E-06
 gam= 0.934 trial= 0.396  step= 0.481 mean= 0.396
 gam= 1.274 g(H,U,f)=  0.335E-05 0.833E-05 0.221E-05 ort(H,U,f) =-0.209E-05 0.272E-05-0.257E-06
CGA: 198    -0.218928442332E+03   -0.24990E-05   -0.24795E-05  5760   0.139E-04 0.376E-06
 gam= 1.274 trial= 0.400  step= 0.119 mean= 0.400
 gam= 0.604 g(H,U,f)=  0.271E-05 0.457E-05 0.111E-05 ort(H,U,f) =-0.155E-05 0.252E-05-0.138E-05
CGA: 199    -0.218928443176E+03   -0.84337E-06   -0.85546E-06  5760   0.839E-05-0.410E-06
 gam= 0.604 trial= 0.386  step= 0.526 mean= 0.386
 gam= 1.075 g(H,U,f)=  0.332E-05 0.471E-05 0.977E-06 ort(H,U,f) =-0.206E-05 0.169E-05-0.218E-06
CGA: 200    -0.218928445266E+03   -0.20898E-05   -0.21408E-05  5760   0.901E-05-0.587E-06
 gam= 1.075 trial= 0.393  step= 0.261 mean= 0.393
 gam= 1.852 g(H,U,f)=  0.367E-05 0.102E-04 0.286E-05 ort(H,U,f) =-0.703E-06 0.163E-05-0.102E-05
CGA: 201    -0.218928446344E+03   -0.10784E-05   -0.10938E-05  5760   0.167E-04-0.947E-07
 gam= 1.852 trial= 0.387  step= 0.213 mean= 0.387
 gam= 0.398 g(H,U,f)=  0.289E-05 0.321E-05 0.537E-06 ort(H,U,f) =-0.309E-05 0.359E-05-0.364E-06
CGA: 202    -0.218928448109E+03   -0.17654E-05   -0.17561E-05  5760   0.664E-05 0.129E-06
 gam= 0.398 trial= 0.378  step= 0.313 mean= 0.378
 gam= 1.806 g(H,U,f)=  0.218E-05 0.716E-05 0.265E-05 ort(H,U,f) =-0.160E-07 0.906E-06-0.921E-06
CGA: 203    -0.218928449148E+03   -0.10383E-05   -0.10454E-05  5760   0.120E-04-0.308E-07
 gam= 1.806 trial= 0.375  step= 0.172 mean= 0.375
 gam= 0.493 g(H,U,f)=  0.233E-05 0.317E-05 0.408E-06 ort(H,U,f) =-0.166E-05 0.225E-05-0.434E-06
CGA: 204    -0.218928450179E+03   -0.10317E-05   -0.10248E-05  5760   0.591E-05 0.155E-06
 gam= 0.493 trial= 0.364  step= 0.411 mean= 0.364
 gam= 1.830 g(H,U,f)=  0.194E-05 0.660E-05 0.227E-05 ort(H,U,f) =-0.643E-06 0.118E-05-0.460E-06
CGA: 205    -0.218928451415E+03   -0.12358E-05   -0.12320E-05  5760   0.108E-04 0.777E-07
 gam= 1.830 trial= 0.367  step= 0.146 mean= 0.367
 gam= 0.511 g(H,U,f)=  0.196E-05 0.295E-05 0.615E-06 ort(H,U,f) =-0.157E-05 0.245E-05-0.645E-06
CGA: 206    -0.218928452207E+03   -0.79236E-06   -0.80223E-06  5760   0.553E-05 0.233E-06
 gam= 0.511 trial= 0.356  step= 0.372 mean= 0.356
 gam= 1.197 g(H,U,f)=  0.196E-05 0.362E-05 0.104E-05 ort(H,U,f) =-0.610E-06 0.135E-05-0.347E-06
CGA: 207    -0.218928453264E+03   -0.10570E-05   -0.10516E-05  5760   0.662E-05 0.392E-06
 gam= 1.197 trial= 0.357  step= 0.173 mean= 0.357
 gam= 0.917 g(H,U,f)=  0.155E-05 0.345E-05 0.108E-05 ort(H,U,f) =-0.137E-06 0.972E-06-0.713E-06
CGA: 208    -0.218928453872E+03   -0.60747E-06   -0.61360E-06  5760   0.607E-05 0.122E-06
 gam= 0.917 trial= 0.347  step= 0.306 mean= 0.347
 final diagonalization
   1 F= -.23034950E+03 E0= -.23034423E+03  d E =-.105302E-01  mag=     6.0000
