       N       E                     dE             d eps       ncg     rms          ort
DAV:   1     0.356111571729E+04    0.35611E+04   -0.14054E+05  5760   0.228E+03
DAV:   2     0.418403900491E+03   -0.31427E+04   -0.29053E+04  5760   0.561E+02
DAV:   3    -0.215488076313E+03   -0.63389E+03   -0.56518E+03  5760   0.259E+02
DAV:   4    -0.268365105278E+03   -0.52877E+02   -0.51778E+02  5760   0.773E+01
DAV:   5    -0.270009101548E+03   -0.16440E+01   -0.16415E+01  5760   0.135E+01
SDA:   6     0.111069421739E+03    0.38108E+03   -0.16415E+01  5760   0.663E+04 0.000E+00
CGA:   7     0.276605969029E+02   -0.83409E+02   -0.32239E+03  5760   0.952E+04-0.363E+02
CGA:   8     0.324279543682E+02    0.47674E+01   -0.43647E+03  5760   0.686E+04-0.144E+04
CGA:   9    -0.125458039138E+03   -0.15789E+03   -0.17208E+03  5760   0.177E+04-0.352E+04
CGA:  10    -0.173859545242E+03   -0.48402E+02   -0.54790E+02  5760   0.375E+03-0.609E+01
CGA:  11    -0.202537587566E+03   -0.28678E+02   -0.25798E+02  5760   0.553E+02 0.361E+02
CGA:  12    -0.209302908532E+03   -0.67653E+01   -0.69110E+01  5760   0.569E+02 0.315E+00
CGA:  13    -0.212220655075E+03   -0.29177E+01   -0.38476E+01  5760   0.509E+02-0.681E+01
CGA:  14    -0.215138727015E+03   -0.29181E+01   -0.30856E+01  5760   0.771E+01-0.846E+00
CGA:  15    -0.215874846507E+03   -0.73612E+00   -0.74342E+00  5760   0.461E+01-0.898E-01
CGA:  16    -0.216298320211E+03   -0.42347E+00   -0.44200E+00  5760   0.511E+01 0.184E-01
CGA:  17    -0.216722576938E+03   -0.42426E+00   -0.43248E+00  5760   0.239E+01-0.128E-01
CGA:  18    -0.216937749972E+03   -0.21517E+00   -0.21882E+00  5760   0.104E+01 0.145E-01
CGA:  19    -0.217011260314E+03   -0.73510E-01   -0.76642E-01  5760   0.824E+00-0.155E-01
CGA:  20    -0.217154305499E+03   -0.14305E+00   -0.14217E+00  5760   0.691E+00 0.165E-01
CGA:  21    -0.217267517157E+03   -0.11321E+00   -0.11330E+00  5760   0.617E+00-0.119E-01
CGA:  22    -0.217340553302E+03   -0.73036E-01   -0.73575E-01  5760   0.709E+00 0.101E-01
CGA:  23    -0.217427620186E+03   -0.87067E-01   -0.87661E-01  5760   0.639E+00 0.184E-01
CGA:  24    -0.217527980674E+03   -0.10036E+00   -0.10005E+00  5760   0.407E+00 0.111E-01
CGA:  25    -0.217625599093E+03   -0.97618E-01   -0.98435E-01  5760   0.652E+00 0.261E-02
CGA:  26    -0.217734426101E+03   -0.10883E+00   -0.10802E+00  5760   0.749E+00 0.311E-01
CGA:  27    -0.217833187112E+03   -0.98761E-01   -0.98594E-01  5760   0.682E+00 0.134E-02
CGA:  28    -0.217928033573E+03   -0.94846E-01   -0.95300E-01  5760   0.607E+00 0.389E-01
CGA:  29    -0.218055420020E+03   -0.12739E+00   -0.12645E+00  5760   0.511E+00 0.634E-02
CGA:  30    -0.218134332129E+03   -0.78912E-01   -0.79072E-01  5760   0.563E+00-0.150E-01
CGA:  31    -0.218194594206E+03   -0.60262E-01   -0.61379E-01  5760   0.486E+00 0.703E-02
CGA:  32    -0.218254690379E+03   -0.60096E-01   -0.59806E-01  5760   0.341E+00-0.324E-02
CGA:  33    -0.218302225832E+03   -0.47535E-01   -0.47566E-01  5760   0.279E+00 0.272E-02
CGA:  34    -0.218350882599E+03   -0.48657E-01   -0.48914E-01  5760   0.329E+00-0.511E-02
CGA:  35    -0.218380608719E+03   -0.29726E-01   -0.29434E-01  5760   0.295E+00-0.181E-02
CGA:  36    -0.218424416039E+03   -0.43807E-01   -0.43846E-01  5760   0.249E+00-0.334E-02
CGA:  37    -0.218475382705E+03   -0.50967E-01   -0.52802E-01  5760   0.307E+00-0.229E-01
CGA:  38    -0.218501636578E+03   -0.26254E-01   -0.26992E-01  5760   0.249E+00-0.630E-04
CGA:  39    -0.218527957887E+03   -0.26321E-01   -0.25707E-01  5760   0.227E+00-0.141E-02
SDA:  40    -0.218556533929E+03   -0.28576E-01   -0.28725E-01  5760   0.212E+00 0.381E-02
CGA:  41    -0.218588781726E+03   -0.32248E-01   -0.32315E-01  5760   0.401E+00-0.451E-02
CGA:  42    -0.218616212775E+03   -0.27431E-01   -0.28667E-01  5760   0.241E+00-0.845E-02
CGA:  43    -0.218673228912E+03   -0.57016E-01   -0.57189E-01  5760   0.163E+00-0.210E-02
CGA:  44    -0.218695181587E+03   -0.21953E-01   -0.22035E-01  5760   0.321E+00 0.480E-02
CGA:  45    -0.218722782749E+03   -0.27601E-01   -0.26878E-01  5760   0.137E+00 0.295E-02
CGA:  46    -0.218742872058E+03   -0.20089E-01   -0.20080E-01  5760   0.173E+00 0.314E-02
CGA:  47    -0.218753048537E+03   -0.10176E-01   -0.10053E-01  5760   0.642E-01 0.174E-02
CGA:  48    -0.218767898783E+03   -0.14850E-01   -0.14971E-01  5760   0.906E-01 0.330E-03
CGA:  49    -0.218772746683E+03   -0.48479E-02   -0.48928E-02  5760   0.529E-01-0.170E-02
CGA:  50    -0.218784054141E+03   -0.11307E-01   -0.11245E-01  5760   0.373E-01 0.121E-02
CGA:  51    -0.218788890467E+03   -0.48363E-02   -0.48310E-02  5760   0.101E+00-0.311E-02
CGA:  52    -0.218796672065E+03   -0.77816E-02   -0.76755E-02  5760   0.324E-01 0.259E-03
CGA:  53    -0.218804527639E+03   -0.78556E-02   -0.78011E-02  5760   0.135E+00-0.992E-03
CGA:  54    -0.218810637013E+03   -0.61094E-02   -0.65807E-02  5760   0.419E-01-0.805E-02
CGA:  55    -0.218821595763E+03   -0.10959E-01   -0.10698E-01  5760   0.298E-01 0.845E-03
CGA:  56    -0.218830770758E+03   -0.91750E-02   -0.86232E-02  5760   0.497E-01 0.442E-02
CGA:  57    -0.218833293991E+03   -0.25232E-02   -0.24364E-02  5760   0.403E-01 0.205E-02
CGA:  58    -0.218841463456E+03   -0.81695E-02   -0.85960E-02  5760   0.109E+00-0.776E-02
CGA:  59    -0.218844256448E+03   -0.27930E-02   -0.47155E-02  5760   0.504E-01-0.219E-01
CGA:  60    -0.218850910763E+03   -0.66543E-02   -0.82251E-02  5760   0.124E+00-0.230E-01
CGA:  61    -0.218852917743E+03   -0.20070E-02   -0.17536E-02  5760   0.993E-01 0.175E-01
CGA:  62    -0.218856573503E+03   -0.36558E-02   -0.77218E-02  5760   0.110E+00-0.308E-01
CGA:  63    -0.218859812268E+03   -0.32388E-02   -0.18181E-02  5760   0.509E-01 0.436E-01
CGA:  64    -0.218862499982E+03   -0.26877E-02   -0.22716E-02  5760   0.475E-01 0.989E-02
CGA:  65    -0.218866004269E+03   -0.35043E-02   -0.33016E-02  5760   0.974E-01 0.411E-02
CGA:  66    -0.218868769354E+03   -0.27651E-02   -0.33176E-02  5760   0.661E-01-0.397E-02
CGA:  67    -0.218870176778E+03   -0.14074E-02   -0.22678E-02  5760   0.662E-01-0.953E-02
CGA:  68    -0.218873843851E+03   -0.36671E-02   -0.41803E-02  5760   0.762E-01 0.723E-02
CGA:  69    -0.218876167675E+03   -0.23238E-02   -0.21148E-02  5760   0.289E-01 0.802E-02
CGA:  70    -0.218877776407E+03   -0.16087E-02   -0.14611E-02  5760   0.455E-01-0.503E-02
SDA:  71    -0.218879679984E+03   -0.19036E-02   -0.14876E-02  5760   0.590E-01-0.846E-02
CGA:  72    -0.218882132946E+03   -0.24530E-02   -0.27155E-02  5760   0.275E-01-0.357E-03
CGA:  73    -0.218886475838E+03   -0.43429E-02   -0.42764E-02  5760   0.187E-01 0.156E-02
CGA:  74    -0.218890176909E+03   -0.37011E-02   -0.34090E-02  5760   0.271E-01 0.293E-02
CGA:  75    -0.218892141569E+03   -0.19647E-02   -0.19218E-02  5760   0.120E-01 0.207E-02
CGA:  76    -0.218894374002E+03   -0.22324E-02   -0.19519E-02  5760   0.113E-01 0.445E-02
CGA:  77    -0.218896633049E+03   -0.22590E-02   -0.22437E-02  5760   0.315E-01 0.139E-02
CGA:  78    -0.218899616468E+03   -0.29834E-02   -0.31367E-02  5760   0.203E-01 0.273E-02
CGA:  79    -0.218900651941E+03   -0.10355E-02   -0.10943E-02  5760   0.139E-01-0.142E-02
CGA:  80    -0.218902224597E+03   -0.15727E-02   -0.15939E-02  5760   0.525E-02-0.472E-03
CGA:  81    -0.218902745045E+03   -0.52045E-03   -0.52057E-03  5760   0.989E-02 0.273E-04
CGA:  82    -0.218903578813E+03   -0.83377E-03   -0.83768E-03  5760   0.272E-02-0.117E-03
CGA:  83    -0.218903978898E+03   -0.40009E-03   -0.40378E-03  5760   0.644E-02-0.475E-04
CGA:  84    -0.218904367554E+03   -0.38866E-03   -0.38902E-03  5760   0.263E-02 0.408E-04
CGA:  85    -0.218904955896E+03   -0.58834E-03   -0.57609E-03  5760   0.688E-02 0.468E-04
CGA:  86    -0.218905306880E+03   -0.35098E-03   -0.34810E-03  5760   0.237E-02-0.792E-04
CGA:  87    -0.218905924890E+03   -0.61801E-03   -0.62981E-03  5760   0.351E-02-0.510E-04
CGA:  88    -0.218906135464E+03   -0.21057E-03   -0.21078E-03  5760   0.332E-02 0.170E-04
CGA:  89    -0.218906677824E+03   -0.54236E-03   -0.53944E-03  5760   0.179E-02 0.201E-04
CGA:  90    -0.218906899611E+03   -0.22179E-03   -0.22177E-03  5760   0.423E-02 0.123E-05
CGA:  91    -0.218907263465E+03   -0.36385E-03   -0.36307E-03  5760   0.151E-02 0.156E-05
CGA:  92    -0.218907707081E+03   -0.44362E-03   -0.44266E-03  5760   0.550E-02 0.162E-05
CGA:  93    -0.218908004756E+03   -0.29768E-03   -0.30152E-03  5760   0.254E-02-0.678E-05
CGA:  94    -0.218908779790E+03   -0.77503E-03   -0.74967E-03  5760   0.336E-02 0.115E-03
CGA:  95    -0.218909090338E+03   -0.31055E-03   -0.30798E-03  5760   0.636E-02-0.431E-04
CGA:  96    -0.218910064622E+03   -0.97428E-03   -0.97575E-03  5760   0.392E-02-0.154E-04
CGA:  97    -0.218910372003E+03   -0.30738E-03   -0.31090E-03  5760   0.644E-02 0.352E-04
CGA:  98    -0.218911129646E+03   -0.75764E-03   -0.75794E-03  5760   0.341E-02-0.308E-04
CGA:  99    -0.218911641132E+03   -0.51149E-03   -0.51382E-03  5760   0.931E-02-0.109E-03
CGA: 100    -0.218912186565E+03   -0.54543E-03   -0.54602E-03  5760   0.277E-02-0.373E-04
CGA: 101    -0.218912675196E+03   -0.48863E-03   -0.48413E-03  5760   0.878E-02 0.899E-04
SDA: 102    -0.218913209653E+03   -0.53446E-03   -0.53159E-03  5760   0.301E-02-0.315E-04
CGA: 103    -0.218913589109E+03   -0.37946E-03   -0.37916E-03  5760   0.158E-02 0.181E-04
CGA: 104    -0.218913744172E+03   -0.15506E-03   -0.15544E-03  5760   0.300E-02 0.346E-05
CGA: 105    -0.218914214643E+03   -0.47047E-03   -0.46903E-03  5760   0.118E-02 0.319E-04
CGA: 106    -0.218914625118E+03   -0.41047E-03   -0.39898E-03  5760   0.159E-02 0.370E-04
CGA: 107    -0.218914922825E+03   -0.29771E-03   -0.29813E-03  5760   0.441E-02-0.124E-04
CGA: 108    -0.218915204203E+03   -0.28138E-03   -0.29034E-03  5760   0.124E-02-0.556E-04
CGA: 109    -0.218915554822E+03   -0.35062E-03   -0.34941E-03  5760   0.143E-02 0.903E-07
CGA: 110    -0.218915687701E+03   -0.13288E-03   -0.13247E-03  5760   0.247E-02-0.106E-04
CGA: 111    -0.218916030277E+03   -0.34258E-03   -0.34254E-03  5760   0.107E-02-0.297E-05
CGA: 112    -0.218916266011E+03   -0.23573E-03   -0.23421E-03  5760   0.199E-02 0.141E-05
CGA: 113    -0.218916388704E+03   -0.12269E-03   -0.12280E-03  5760   0.148E-02 0.259E-05
CGA: 114    -0.218916831548E+03   -0.44284E-03   -0.44073E-03  5760   0.148E-02 0.904E-05
CGA: 115    -0.218917133147E+03   -0.30160E-03   -0.30136E-03  5760   0.408E-02 0.126E-04
CGA: 116    -0.218917393881E+03   -0.26073E-03   -0.26202E-03  5760   0.174E-02 0.214E-04
CGA: 117    -0.218917914629E+03   -0.52075E-03   -0.51893E-03  5760   0.178E-02 0.355E-05
CGA: 118    -0.218918058466E+03   -0.14384E-03   -0.14415E-03  5760   0.251E-02 0.665E-05
CGA: 119    -0.218918412557E+03   -0.35409E-03   -0.35417E-03  5760   0.114E-02 0.321E-04
CGA: 120    -0.218918760829E+03   -0.34827E-03   -0.33782E-03  5760   0.312E-02 0.371E-04
CGA: 121    -0.218918954553E+03   -0.19372E-03   -0.19440E-03  5760   0.184E-02-0.123E-04
CGA: 122    -0.218919427824E+03   -0.47327E-03   -0.47427E-03  5760   0.171E-02-0.911E-05
CGA: 123    -0.218919841880E+03   -0.41406E-03   -0.41052E-03  5760   0.557E-02 0.544E-04
CGA: 124    -0.218920213718E+03   -0.37184E-03   -0.36867E-03  5760   0.155E-02-0.112E-03
CGA: 125    -0.218920649151E+03   -0.43543E-03   -0.44950E-03  5760   0.281E-02-0.504E-04
CGA: 126    -0.218920878394E+03   -0.22924E-03   -0.23358E-03  5760   0.355E-02-0.594E-04
CGA: 127    -0.218921497622E+03   -0.61923E-03   -0.62238E-03  5760   0.263E-02-0.211E-03
CGA: 128    -0.218922122868E+03   -0.62525E-03   -0.63846E-03  5760   0.787E-02-0.168E-03
CGA: 129    -0.218922570733E+03   -0.44786E-03   -0.44848E-03  5760   0.265E-02-0.208E-04
CGA: 130    -0.218923580353E+03   -0.10096E-02   -0.10095E-02  5760   0.293E-02-0.710E-05
CGA: 131    -0.218924225937E+03   -0.64558E-03   -0.64040E-03  5760   0.327E-02 0.545E-04
CGA: 132    -0.218924433600E+03   -0.20766E-03   -0.20527E-03  5760   0.239E-02 0.436E-04
SDA: 133    -0.218924948160E+03   -0.51456E-03   -0.50928E-03  5760   0.129E-02 0.112E-03
CGA: 134    -0.218925228323E+03   -0.28016E-03   -0.27735E-03  5760   0.759E-03 0.437E-04
CGA: 135    -0.218925522541E+03   -0.29422E-03   -0.29693E-03  5760   0.349E-02 0.283E-05
CGA: 136    -0.218925725898E+03   -0.20336E-03   -0.21325E-03  5760   0.128E-02-0.436E-04
CGA: 137    -0.218926031038E+03   -0.30514E-03   -0.30326E-03  5760   0.985E-03 0.814E-05
CGA: 138    -0.218926178881E+03   -0.14784E-03   -0.14754E-03  5760   0.257E-02 0.135E-04
CGA: 139    -0.218926405105E+03   -0.22622E-03   -0.23272E-03  5760   0.735E-03 0.388E-04
CGA: 140    -0.218926595091E+03   -0.18999E-03   -0.18636E-03  5760   0.137E-02 0.522E-05
CGA: 141    -0.218926673860E+03   -0.78769E-04   -0.76145E-04  5760   0.722E-03 0.277E-05
CGA: 142    -0.218926878639E+03   -0.20478E-03   -0.20590E-03  5760   0.613E-03-0.226E-05
CGA: 143    -0.218927013542E+03   -0.13490E-03   -0.13429E-03  5760   0.143E-02-0.458E-05
CGA: 144    -0.218927096057E+03   -0.82516E-04   -0.81403E-04  5760   0.490E-03 0.741E-06
CGA: 145    -0.218927247456E+03   -0.15140E-03   -0.15261E-03  5760   0.425E-03-0.110E-04
CGA: 146    -0.218927358152E+03   -0.11070E-03   -0.10936E-03  5760   0.549E-03 0.742E-05
CGA: 147    -0.218927393799E+03   -0.35647E-04   -0.35833E-04  5760   0.443E-03 0.612E-06
CGA: 148    -0.218927487818E+03   -0.94019E-04   -0.94030E-04  5760   0.322E-03 0.243E-07
CGA: 149    -0.218927597490E+03   -0.10967E-03   -0.11061E-03  5760   0.462E-03-0.965E-05
CGA: 150    -0.218927627410E+03   -0.29920E-04   -0.30105E-04  5760   0.405E-03-0.129E-05
CGA: 151    -0.218927700985E+03   -0.73575E-04   -0.73572E-04  5760   0.212E-03 0.594E-05
CGA: 152    -0.218927779163E+03   -0.78178E-04   -0.77972E-04  5760   0.417E-03 0.784E-06
CGA: 153    -0.218927802090E+03   -0.22927E-04   -0.22933E-04  5760   0.218E-03-0.130E-05
CGA: 154    -0.218927853801E+03   -0.51711E-04   -0.51496E-04  5760   0.145E-03 0.112E-05
CGA: 155    -0.218927898470E+03   -0.44669E-04   -0.44028E-04  5760   0.257E-03 0.322E-05
CGA: 156    -0.218927915371E+03   -0.16902E-04   -0.17376E-04  5760   0.194E-03-0.314E-06
CGA: 157    -0.218927948912E+03   -0.33540E-04   -0.33541E-04  5760   0.102E-03-0.445E-06
CGA: 158    -0.218927977722E+03   -0.28810E-04   -0.29317E-04  5760   0.348E-03-0.593E-05
CGA: 159    -0.218927998854E+03   -0.21132E-04   -0.20839E-04  5760   0.149E-03-0.328E-05
CGA: 160    -0.218928039882E+03   -0.41028E-04   -0.40642E-04  5760   0.106E-03 0.374E-05
CGA: 161    -0.218928059904E+03   -0.20023E-04   -0.20020E-04  5760   0.391E-03-0.207E-05
CGA: 162    -0.218928098276E+03   -0.38372E-04   -0.38061E-04  5760   0.168E-03-0.267E-05
CGA: 163    -0.218928139416E+03   -0.41140E-04   -0.41176E-04  5760   0.390E-03 0.174E-06
SDA: 164    -0.218928158376E+03   -0.18960E-04   -0.19674E-04  5760   0.142E-03-0.505E-05
CGA: 165    -0.218928175836E+03   -0.17460E-04   -0.17539E-04  5760   0.223E-03 0.114E-05
CGA: 166    -0.218928191822E+03   -0.15985E-04   -0.16263E-04  5760   0.966E-04 0.410E-06
CGA: 167    -0.218928214547E+03   -0.22725E-04   -0.22627E-04  5760   0.407E-04 0.124E-05
CGA: 168    -0.218928230350E+03   -0.15803E-04   -0.16013E-04  5760   0.697E-04-0.113E-05
CGA: 169    -0.218928236255E+03   -0.59049E-05   -0.59803E-05  5760   0.958E-04 0.418E-06
CGA: 170    -0.218928248625E+03   -0.12370E-04   -0.12520E-04  5760   0.309E-04 0.250E-05
CGA: 171    -0.218928260729E+03   -0.12104E-04   -0.12228E-04  5760   0.418E-04-0.590E-06
CGA: 172    -0.218928272021E+03   -0.11292E-04   -0.11467E-04  5760   0.110E-03-0.214E-05
CGA: 173    -0.218928277554E+03   -0.55332E-05   -0.54576E-05  5760   0.355E-04-0.918E-06
CGA: 174    -0.218928288967E+03   -0.11413E-04   -0.11254E-04  5760   0.480E-04 0.910E-06
CGA: 175    -0.218928294030E+03   -0.50631E-05   -0.50453E-05  5760   0.915E-04-0.371E-06
CGA: 176    -0.218928305338E+03   -0.11308E-04   -0.11342E-04  5760   0.395E-04-0.116E-05
CGA: 177    -0.218928312084E+03   -0.67459E-05   -0.67376E-05  5760   0.102E-03-0.655E-06
CGA: 178    -0.218928318412E+03   -0.63280E-05   -0.63870E-05  5760   0.399E-04-0.301E-05
CGA: 179    -0.218928328445E+03   -0.10033E-04   -0.97945E-05  5760   0.950E-04 0.322E-05
CGA: 180    -0.218928333487E+03   -0.50412E-05   -0.52767E-05  5760   0.346E-04-0.315E-06
CGA: 181    -0.218928344077E+03   -0.10590E-04   -0.10612E-04  5760   0.281E-04-0.574E-06
CGA: 182    -0.218928355965E+03   -0.11888E-04   -0.11769E-04  5760   0.315E-04 0.554E-06
CGA: 183    -0.218928364872E+03   -0.89068E-05   -0.88308E-05  5760   0.698E-04 0.609E-06
CGA: 184    -0.218928369106E+03   -0.42343E-05   -0.42344E-05  5760   0.388E-04 0.223E-06
CGA: 185    -0.218928381692E+03   -0.12586E-04   -0.12654E-04  5760   0.343E-04-0.907E-06
CGA: 186    -0.218928389840E+03   -0.81478E-05   -0.81830E-05  5760   0.692E-04-0.288E-06
CGA: 187    -0.218928393584E+03   -0.37441E-05   -0.38446E-05  5760   0.290E-04-0.135E-05
CGA: 188    -0.218928402349E+03   -0.87651E-05   -0.88268E-05  5760   0.246E-04-0.611E-06
CGA: 189    -0.218928409876E+03   -0.75276E-05   -0.76620E-05  5760   0.292E-04-0.115E-05
CGA: 190    -0.218928411973E+03   -0.20969E-05   -0.20966E-05  5760   0.332E-04-0.986E-07
CGA: 191    -0.218928418080E+03   -0.61071E-05   -0.61160E-05  5760   0.178E-04 0.376E-06
CGA: 192    -0.218928424247E+03   -0.61666E-05   -0.59305E-05  5760   0.140E-04 0.155E-05
CGA: 193    -0.218928427539E+03   -0.32920E-05   -0.32963E-05  5760   0.400E-04-0.274E-06
CGA: 194    -0.218928429951E+03   -0.24115E-05   -0.24818E-05  5760   0.167E-04-0.197E-08
SDA: 195    -0.218928435389E+03   -0.54388E-05   -0.51574E-05  5760   0.418E-04 0.128E-05
CGA: 196    -0.218928437038E+03   -0.16487E-05   -0.16565E-05  5760   0.117E-04-0.513E-06
CGA: 197    -0.218928439833E+03   -0.27953E-05   -0.28261E-05  5760   0.109E-04-0.632E-06
CGA: 198    -0.218928442332E+03   -0.24990E-05   -0.24795E-05  5760   0.139E-04 0.376E-06
CGA: 199    -0.218928443176E+03   -0.84337E-06   -0.85546E-06  5760   0.839E-05-0.410E-06
CGA: 200    -0.218928445266E+03   -0.20898E-05   -0.21408E-05  5760   0.901E-05-0.587E-06
CGA: 201    -0.218928446344E+03   -0.10784E-05   -0.10938E-05  5760   0.167E-04-0.947E-07
CGA: 202    -0.218928448109E+03   -0.17654E-05   -0.17561E-05  5760   0.664E-05 0.129E-06
CGA: 203    -0.218928449148E+03   -0.10383E-05   -0.10454E-05  5760   0.120E-04-0.308E-07
CGA: 204    -0.218928450179E+03   -0.10317E-05   -0.10248E-05  5760   0.591E-05 0.155E-06
CGA: 205    -0.218928451415E+03   -0.12358E-05   -0.12320E-05  5760   0.108E-04 0.777E-07
CGA: 206    -0.218928452207E+03   -0.79236E-06   -0.80223E-06  5760   0.553E-05 0.233E-06
CGA: 207    -0.218928453264E+03   -0.10570E-05   -0.10516E-05  5760   0.662E-05 0.392E-06
CGA: 208    -0.218928453872E+03   -0.60747E-06   -0.61360E-06  5760   0.607E-05 0.122E-06
   1 F= -.23034950E+03 E0= -.23034423E+03  d E =-.105302E-01  mag=     6.0000
