       N       E                     dE             d eps       ncg     rms          ort
DAV:   1     0.348021856076E+04    0.34802E+04   -0.13934E+05  5760   0.217E+03
DAV:   2     0.415376105953E+03   -0.30648E+04   -0.28261E+04  5760   0.529E+02
DAV:   3    -0.218080357435E+03   -0.63346E+03   -0.58071E+03  5760   0.253E+02
DAV:   4    -0.269463185734E+03   -0.51383E+02   -0.50197E+02  5760   0.741E+01
DAV:   5    -0.271267566733E+03   -0.18044E+01   -0.18008E+01  5760   0.139E+01
SDA:   6     0.660865388215E+02    0.33735E+03   -0.18008E+01  5760   0.269E+04 0.000E+00
CGA:   7    -0.417034977405E+02   -0.10779E+03   -0.21059E+03  5760   0.129E+05-0.692E+03
CGA:   8     0.714687643127E+03    0.75639E+03   -0.38474E+03  5760   0.451E+04 0.911E+04
CGA:   9     0.313207259352E+03   -0.40148E+03   -0.38015E+03  5760   0.267E+04 0.111E+04
CGA:  10     0.234152558042E+03   -0.79055E+02   -0.14681E+03  5760   0.252E+04 0.797E+03
CGA:  11     0.260834353910E+02   -0.20807E+03   -0.27017E+03  5760   0.207E+04-0.181E+02
CGA:  12     0.167556914416E+02   -0.93277E+01   -0.70487E+02  5760   0.398E+04-0.690E+03
CGA:  13     0.167944769321E+03    0.15119E+03   -0.11446E+03  5760   0.419E+04 0.988E+03
CGA:  14     0.303914485037E+03    0.13597E+03   -0.23119E+03  5760   0.606E+04-0.158E+04
CGA:  15     0.594941640449E+03    0.29103E+03   -0.15529E+03  5760   0.475E+04 0.118E+04
CGA:  16     0.424303308091E+03   -0.17064E+03   -0.25990E+03  5760   0.244E+04-0.712E+03
CGA:  17     0.241574577596E+03   -0.18273E+03   -0.16510E+03  5760   0.111E+04-0.240E+02
CGA:  18     0.167590207219E+03   -0.73984E+02   -0.82188E+02  5760   0.119E+04 0.872E+02
CGA:  19     0.807743672619E+02   -0.86816E+02   -0.10022E+03  5760   0.472E+03 0.125E+03
CGA:  20     0.185342057420E+02   -0.62240E+02   -0.63235E+02  5760   0.382E+03 0.864E+02
CGA:  21    -0.303819034761E+02   -0.48916E+02   -0.49941E+02  5760   0.269E+03 0.544E+02
CGA:  22    -0.694038790553E+02   -0.39022E+02   -0.39161E+02  5760   0.122E+03 0.373E+02
CGA:  23    -0.101618362731E+03   -0.32214E+02   -0.30080E+02  5760   0.105E+03 0.197E+02
CGA:  24    -0.127940094672E+03   -0.26322E+02   -0.26574E+02  5760   0.163E+03-0.667E+01
CGA:  25    -0.137563889919E+03   -0.96238E+01   -0.70910E+01  5760   0.870E+02 0.326E+02
CGA:  26    -0.149959270970E+03   -0.12395E+02   -0.11796E+02  5760   0.197E+03-0.109E+02
CGA:  27    -0.150018726689E+03   -0.59456E-01   -0.42187E+01  5760   0.149E+03 0.682E+01
CGA:  28    -0.152124555145E+03   -0.21058E+01   -0.49418E+01  5760   0.188E+03 0.874E+01
CGA:  29    -0.153211637436E+03   -0.10871E+01   -0.56582E+01  5760   0.171E+03 0.449E+02
CGA:  30    -0.152573266083E+03    0.63837E+00   -0.45820E+01  5760   0.131E+03 0.336E+02
CGA:  31    -0.152909578388E+03   -0.33631E+00   -0.34597E+01  5760   0.155E+03 0.336E+02
CGA:  32    -0.151874755156E+03    0.10348E+01   -0.36851E+01  5760   0.172E+03 0.662E+02
CGA:  33    -0.147492167718E+03    0.43826E+01   -0.30301E+01  5760   0.152E+03 0.134E+03
CGA:  34    -0.158076532781E+03   -0.10584E+02   -0.10756E+02  5760   0.232E+03-0.128E+01
CGA:  35    -0.176986967196E+03   -0.18910E+02   -0.19100E+02  5760   0.131E+03 0.309E+01
CGA:  36    -0.196018873552E+03   -0.19032E+02   -0.18921E+02  5760   0.781E+02 0.105E+00
CGA:  37    -0.200730927222E+03   -0.47121E+01   -0.44746E+01  5760   0.663E+02-0.253E+01
CGA:  38    -0.207001290717E+03   -0.62704E+01   -0.62723E+01  5760   0.388E+02-0.439E+01
CGA:  39    -0.211411758455E+03   -0.44105E+01   -0.43549E+01  5760   0.538E+02 0.686E+00
CGA:  40    -0.215237648205E+03   -0.38259E+01   -0.37488E+01  5760   0.235E+02-0.127E+01
CGA:  41    -0.216935682652E+03   -0.16980E+01   -0.16975E+01  5760   0.145E+02 0.517E+00
CGA:  42    -0.217581698343E+03   -0.64602E+00   -0.72205E+00  5760   0.815E+01 0.151E+00
CGA:  43    -0.218760600032E+03   -0.11789E+01   -0.11328E+01  5760   0.518E+01 0.783E+00
CGA:  44    -0.219163922873E+03   -0.40332E+00   -0.41283E+00  5760   0.714E+01 0.106E+01
CGA:  45    -0.219777343453E+03   -0.61342E+00   -0.66140E+00  5760   0.423E+01 0.120E+01
CGA:  46    -0.220114186493E+03   -0.33684E+00   -0.34087E+00  5760   0.444E+01 0.101E+00
CGA:  47    -0.220410973598E+03   -0.29679E+00   -0.30284E+00  5760   0.235E+01 0.791E-01
CGA:  48    -0.220639270823E+03   -0.22830E+00   -0.22643E+00  5760   0.195E+01 0.317E+00
CGA:  49    -0.220968287100E+03   -0.32902E+00   -0.32396E+00  5760   0.151E+01 0.108E+00
CGA:  50    -0.221195790445E+03   -0.22750E+00   -0.22384E+00  5760   0.134E+01 0.657E-01
CGA:  51    -0.221393197083E+03   -0.19741E+00   -0.19049E+00  5760   0.136E+01 0.157E+00
CGA:  52    -0.221608310066E+03   -0.21511E+00   -0.20714E+00  5760   0.119E+01 0.180E+00
CGA:  53    -0.221797810024E+03   -0.18950E+00   -0.18760E+00  5760   0.108E+01 0.538E-01
CGA:  54    -0.221978660852E+03   -0.18085E+00   -0.17525E+00  5760   0.994E+00 0.894E-01
CGA:  55    -0.222112780655E+03   -0.13412E+00   -0.13175E+00  5760   0.732E+00 0.915E-01
CGA:  56    -0.222256053806E+03   -0.14327E+00   -0.13906E+00  5760   0.681E+00 0.545E-01
CGA:  57    -0.222392717250E+03   -0.13666E+00   -0.13504E+00  5760   0.478E+00-0.488E-01
CGA:  58    -0.222483637258E+03   -0.90920E-01   -0.96863E-01  5760   0.633E+00-0.644E-01
CGA:  59    -0.222577366126E+03   -0.93729E-01   -0.96799E-01  5760   0.588E+00-0.496E-01
CGA:  60    -0.222653709480E+03   -0.76343E-01   -0.76424E-01  5760   0.513E+00-0.951E-02
CGA:  61    -0.222737903406E+03   -0.84194E-01   -0.82383E-01  5760   0.534E+00 0.262E-01
CGA:  62    -0.222848371251E+03   -0.11047E+00   -0.10880E+00  5760   0.369E+00 0.161E-01
CGA:  63    -0.222923597654E+03   -0.75226E-01   -0.76303E-01  5760   0.398E+00-0.123E-01
SDA:  64    -0.223004291885E+03   -0.80694E-01   -0.80466E-01  5760   0.399E+00 0.393E-02
CGA:  65    -0.223099583596E+03   -0.95292E-01   -0.94604E-01  5760   0.297E+00 0.630E-02
CGA:  66    -0.223198067031E+03   -0.98483E-01   -0.98989E-01  5760   0.167E+00-0.291E-02
CGA:  67    -0.223241610431E+03   -0.43543E-01   -0.43199E-01  5760   0.958E-01 0.274E-02
CGA:  68    -0.223273819000E+03   -0.32209E-01   -0.32390E-01  5760   0.682E-01-0.107E-02
CGA:  69    -0.223294506322E+03   -0.20687E-01   -0.20651E-01  5760   0.330E-01 0.230E-03
CGA:  70    -0.223308263682E+03   -0.13757E-01   -0.13769E-01  5760   0.378E-01-0.546E-04
CGA:  71    -0.223324595394E+03   -0.16332E-01   -0.16418E-01  5760   0.381E-01-0.386E-03
CGA:  72    -0.223335076746E+03   -0.10481E-01   -0.10456E-01  5760   0.281E-01 0.231E-03
CGA:  73    -0.223346372739E+03   -0.11296E-01   -0.11336E-01  5760   0.202E-01-0.207E-03
CGA:  74    -0.223351483612E+03   -0.51109E-02   -0.51081E-02  5760   0.131E-01 0.619E-04
CGA:  75    -0.223356146358E+03   -0.46627E-02   -0.46594E-02  5760   0.925E-02 0.214E-04
CGA:  76    -0.223359834280E+03   -0.36879E-02   -0.36948E-02  5760   0.114E-01-0.385E-04
CGA:  77    -0.223363703992E+03   -0.38697E-02   -0.38669E-02  5760   0.789E-02 0.237E-04
CGA:  78    -0.223366428970E+03   -0.27250E-02   -0.27261E-02  5760   0.840E-02-0.958E-05
CGA:  79    -0.223369821933E+03   -0.33930E-02   -0.33966E-02  5760   0.797E-02-0.208E-04
CGA:  80    -0.223372878626E+03   -0.30567E-02   -0.30590E-02  5760   0.107E-01-0.143E-04
CGA:  81    -0.223379349630E+03   -0.64710E-02   -0.65122E-02  5760   0.143E-01-0.128E-03
CGA:  82    -0.223385774241E+03   -0.64246E-02   -0.64336E-02  5760   0.233E-01-0.563E-04
CGA:  83    -0.223394913640E+03   -0.91394E-02   -0.92874E-02  5760   0.225E-01-0.990E-03
CGA:  84    -0.223403276261E+03   -0.83626E-02   -0.83783E-02  5760   0.176E-01-0.131E-03
CGA:  85    -0.223410526231E+03   -0.72500E-02   -0.72842E-02  5760   0.229E-01-0.230E-03
CGA:  86    -0.223418605962E+03   -0.80797E-02   -0.81190E-02  5760   0.223E-01-0.425E-03
CGA:  87    -0.223427201939E+03   -0.85960E-02   -0.86124E-02  5760   0.265E-01-0.132E-03
CGA:  88    -0.223437342960E+03   -0.10141E-01   -0.10247E-01  5760   0.273E-01-0.934E-03
CGA:  89    -0.223444741145E+03   -0.73982E-02   -0.73763E-02  5760   0.189E-01-0.259E-03
CGA:  90    -0.223451597509E+03   -0.68564E-02   -0.68542E-02  5760   0.191E-01 0.342E-04
CGA:  91    -0.223456612844E+03   -0.50153E-02   -0.50025E-02  5760   0.137E-01-0.788E-04
CGA:  92    -0.223461923270E+03   -0.53104E-02   -0.53202E-02  5760   0.153E-01-0.859E-04
CGA:  93    -0.223466502894E+03   -0.45796E-02   -0.45826E-02  5760   0.139E-01 0.131E-03
CGA:  94    -0.223471449877E+03   -0.49470E-02   -0.49492E-02  5760   0.110E-01-0.285E-04
SDA:  95    -0.223474703585E+03   -0.32537E-02   -0.32526E-02  5760   0.961E-02-0.243E-04
CGA:  96    -0.223477316745E+03   -0.26132E-02   -0.26133E-02  5760   0.953E-02 0.533E-05
CGA:  97    -0.223481748262E+03   -0.44315E-02   -0.44326E-02  5760   0.101E-01-0.749E-05
CGA:  98    -0.223486323301E+03   -0.45750E-02   -0.45758E-02  5760   0.156E-01-0.594E-05
CGA:  99    -0.223491227811E+03   -0.49045E-02   -0.49041E-02  5760   0.119E-01-0.118E-04
CGA: 100    -0.223497141904E+03   -0.59141E-02   -0.59207E-02  5760   0.152E-01-0.328E-04
CGA: 101    -0.223502852616E+03   -0.57107E-02   -0.57104E-02  5760   0.135E-01 0.436E-06
CGA: 102    -0.223508333972E+03   -0.54814E-02   -0.54868E-02  5760   0.140E-01-0.464E-04
CGA: 103    -0.223512839262E+03   -0.45053E-02   -0.45056E-02  5760   0.104E-01 0.686E-05
CGA: 104    -0.223517142364E+03   -0.43031E-02   -0.43044E-02  5760   0.131E-01-0.153E-04
CGA: 105    -0.223521327402E+03   -0.41850E-02   -0.41841E-02  5760   0.893E-02-0.721E-05
CGA: 106    -0.223525493949E+03   -0.41665E-02   -0.41626E-02  5760   0.861E-02 0.226E-04
CGA: 107    -0.223528889274E+03   -0.33953E-02   -0.33960E-02  5760   0.703E-02-0.131E-04
CGA: 108    -0.223531443474E+03   -0.25542E-02   -0.25544E-02  5760   0.507E-02-0.422E-05
CGA: 109    -0.223533222859E+03   -0.17794E-02   -0.17794E-02  5760   0.394E-02 0.308E-05
CGA: 110    -0.223534705990E+03   -0.14831E-02   -0.14830E-02  5760   0.300E-02 0.163E-05
CGA: 111    -0.223535593318E+03   -0.88733E-03   -0.88771E-03  5760   0.251E-02 0.714E-05
CGA: 112    -0.223536603662E+03   -0.10103E-02   -0.10104E-02  5760   0.201E-02 0.205E-06
CGA: 113    -0.223537225926E+03   -0.62226E-03   -0.62221E-03  5760   0.183E-02-0.371E-05
CGA: 114    -0.223538052664E+03   -0.82674E-03   -0.82676E-03  5760   0.170E-02-0.758E-07
CGA: 115    -0.223538758439E+03   -0.70577E-03   -0.70584E-03  5760   0.195E-02-0.156E-06
CGA: 116    -0.223539604826E+03   -0.84639E-03   -0.84643E-03  5760   0.172E-02-0.144E-05
CGA: 117    -0.223540364515E+03   -0.75969E-03   -0.75990E-03  5760   0.227E-02-0.127E-05
CGA: 118    -0.223541121612E+03   -0.75710E-03   -0.75702E-03  5760   0.157E-02 0.365E-06
CGA: 119    -0.223541751897E+03   -0.63029E-03   -0.63034E-03  5760   0.192E-02-0.157E-05
CGA: 120    -0.223542425731E+03   -0.67383E-03   -0.67385E-03  5760   0.126E-02 0.227E-05
CGA: 121    -0.223543042559E+03   -0.61683E-03   -0.61698E-03  5760   0.120E-02-0.264E-07
CGA: 122    -0.223543510502E+03   -0.46794E-03   -0.46801E-03  5760   0.147E-02-0.480E-05
CGA: 123    -0.223543998014E+03   -0.48751E-03   -0.48750E-03  5760   0.999E-03 0.766E-06
CGA: 124    -0.223544347311E+03   -0.34930E-03   -0.34935E-03  5760   0.113E-02 0.258E-05
CGA: 125    -0.223544848232E+03   -0.50092E-03   -0.50115E-03  5760   0.754E-03-0.356E-05
SDA: 126    -0.223545157022E+03   -0.30879E-03   -0.30877E-03  5760   0.816E-03 0.757E-06
CGA: 127    -0.223545333794E+03   -0.17677E-03   -0.17682E-03  5760   0.420E-03 0.253E-06
CGA: 128    -0.223545533807E+03   -0.20001E-03   -0.19983E-03  5760   0.519E-03 0.168E-05
CGA: 129    -0.223545694429E+03   -0.16062E-03   -0.16061E-03  5760   0.411E-03-0.182E-06
CGA: 130    -0.223545885925E+03   -0.19150E-03   -0.19163E-03  5760   0.568E-03-0.139E-05
CGA: 131    -0.223546073071E+03   -0.18715E-03   -0.18720E-03  5760   0.385E-03 0.149E-05
CGA: 132    -0.223546269918E+03   -0.19685E-03   -0.19691E-03  5760   0.413E-03-0.596E-06
CGA: 133    -0.223546425546E+03   -0.15563E-03   -0.15563E-03  5760   0.410E-03-0.171E-05
CGA: 134    -0.223546566291E+03   -0.14075E-03   -0.14077E-03  5760   0.283E-03 0.817E-06
CGA: 135    -0.223546681359E+03   -0.11507E-03   -0.11506E-03  5760   0.287E-03 0.358E-06
CGA: 136    -0.223546783045E+03   -0.10169E-03   -0.10168E-03  5760   0.197E-03-0.908E-07
CGA: 137    -0.223546849364E+03   -0.66320E-04   -0.66355E-04  5760   0.183E-03 0.848E-06
CGA: 138    -0.223546919053E+03   -0.69689E-04   -0.69686E-04  5760   0.106E-03 0.691E-06
CGA: 139    -0.223546966993E+03   -0.47940E-04   -0.48054E-04  5760   0.125E-03-0.150E-05
CGA: 140    -0.223547010238E+03   -0.43245E-04   -0.43273E-04  5760   0.766E-04 0.975E-06
CGA: 141    -0.223547047138E+03   -0.36900E-04   -0.36883E-04  5760   0.118E-03 0.168E-06
CGA: 142    -0.223547084115E+03   -0.36978E-04   -0.36871E-04  5760   0.873E-04-0.153E-05
CGA: 143    -0.223547119373E+03   -0.35258E-04   -0.35269E-04  5760   0.111E-03-0.358E-06
CGA: 144    -0.223547165646E+03   -0.46273E-04   -0.46240E-04  5760   0.833E-04 0.926E-06
CGA: 145    -0.223547207116E+03   -0.41470E-04   -0.41571E-04  5760   0.105E-03-0.906E-06
CGA: 146    -0.223547248628E+03   -0.41511E-04   -0.41501E-04  5760   0.808E-04 0.106E-05
CGA: 147    -0.223547290256E+03   -0.41629E-04   -0.41492E-04  5760   0.773E-04 0.115E-05
CGA: 148    -0.223547321429E+03   -0.31173E-04   -0.31178E-04  5760   0.963E-04-0.181E-05
CGA: 149    -0.223547355715E+03   -0.34286E-04   -0.34306E-04  5760   0.699E-04 0.676E-06
CGA: 150    -0.223547380112E+03   -0.24397E-04   -0.24439E-04  5760   0.677E-04 0.919E-06
CGA: 151    -0.223547409206E+03   -0.29094E-04   -0.29148E-04  5760   0.616E-04-0.161E-05
CGA: 152    -0.223547429467E+03   -0.20261E-04   -0.20291E-04  5760   0.492E-04 0.568E-06
CGA: 153    -0.223547449992E+03   -0.20525E-04   -0.20504E-04  5760   0.448E-04 0.925E-06
CGA: 154    -0.223547464945E+03   -0.14954E-04   -0.14882E-04  5760   0.429E-04-0.111E-05
CGA: 155    -0.223547483452E+03   -0.18507E-04   -0.18497E-04  5760   0.410E-04 0.194E-06
CGA: 156    -0.223547497948E+03   -0.14496E-04   -0.14552E-04  5760   0.474E-04 0.150E-05
SDA: 157    -0.223547526856E+03   -0.28908E-04   -0.29046E-04  5760   0.608E-04-0.688E-06
CGA: 158    -0.223547541772E+03   -0.14916E-04   -0.14924E-04  5760   0.394E-04 0.418E-07
CGA: 159    -0.223547556676E+03   -0.14904E-04   -0.14900E-04  5760   0.320E-04-0.254E-06
CGA: 160    -0.223547569568E+03   -0.12891E-04   -0.12895E-04  5760   0.364E-04-0.226E-06
CGA: 161    -0.223547584555E+03   -0.14988E-04   -0.14983E-04  5760   0.389E-04 0.175E-06
CGA: 162    -0.223547598232E+03   -0.13677E-04   -0.13670E-04  5760   0.387E-04-0.169E-06
CGA: 163    -0.223547616253E+03   -0.18021E-04   -0.18033E-04  5760   0.466E-04-0.159E-06
CGA: 164    -0.223547637665E+03   -0.21412E-04   -0.21378E-04  5760   0.622E-04 0.525E-06
CGA: 165    -0.223547660918E+03   -0.23253E-04   -0.23251E-04  5760   0.486E-04-0.983E-07
CGA: 166    -0.223547693013E+03   -0.32094E-04   -0.32191E-04  5760   0.953E-04-0.360E-06
CGA: 167    -0.223547721120E+03   -0.28107E-04   -0.28175E-04  5760   0.740E-04 0.607E-06
CGA: 168    -0.223547761849E+03   -0.40729E-04   -0.40753E-04  5760   0.109E-03-0.185E-06
CGA: 169    -0.223547809725E+03   -0.47875E-04   -0.47904E-04  5760   0.108E-03-0.913E-06
CGA: 170    -0.223547879126E+03   -0.69401E-04   -0.69202E-04  5760   0.185E-03 0.755E-06
CGA: 171    -0.223547951128E+03   -0.72002E-04   -0.71926E-04  5760   0.176E-03-0.117E-05
CGA: 172    -0.223548065265E+03   -0.11414E-03   -0.11429E-03  5760   0.348E-03-0.710E-06
CGA: 173    -0.223548169300E+03   -0.10403E-03   -0.10382E-03  5760   0.318E-03 0.116E-05
CGA: 174    -0.223548352849E+03   -0.18355E-03   -0.18547E-03  5760   0.551E-03-0.983E-05
CGA: 175    -0.223548587873E+03   -0.23502E-03   -0.23530E-03  5760   0.611E-03-0.248E-04
CGA: 176    -0.223548863159E+03   -0.27529E-03   -0.28022E-03  5760   0.873E-03-0.662E-04
CGA: 177    -0.223549061927E+03   -0.19877E-03   -0.18058E-03  5760   0.908E-03 0.357E-04
CGA: 178    -0.223549295717E+03   -0.23379E-03   -0.21844E-03  5760   0.109E-02 0.279E-04
CGA: 179    -0.223549528144E+03   -0.23243E-03   -0.21419E-03  5760   0.120E-02 0.581E-04
CGA: 180    -0.223549743378E+03   -0.21523E-03   -0.19771E-03  5760   0.121E-02 0.814E-04
CGA: 181    -0.223549950601E+03   -0.20722E-03   -0.19202E-03  5760   0.132E-02 0.756E-04
CGA: 182    -0.223550155843E+03   -0.20524E-03   -0.18920E-03  5760   0.136E-02 0.905E-04
CGA: 183    -0.223550337028E+03   -0.18119E-03   -0.16902E-03  5760   0.121E-02 0.827E-04
CGA: 184    -0.223550489606E+03   -0.15258E-03   -0.14693E-03  5760   0.114E-02 0.375E-04
CGA: 185    -0.223550632118E+03   -0.14251E-03   -0.13996E-03  5760   0.115E-02 0.163E-04
CGA: 186    -0.223550762481E+03   -0.13036E-03   -0.12945E-03  5760   0.993E-03 0.870E-05
CGA: 187    -0.223550865563E+03   -0.10308E-03   -0.10348E-03  5760   0.793E-03 0.613E-06
SDA: 188    -0.223550950642E+03   -0.85078E-04   -0.85967E-04  5760   0.714E-03-0.265E-05
CGA: 189    -0.223551586489E+03   -0.63585E-03   -0.63780E-03  5760   0.222E-02-0.357E-05
CGA: 190    -0.223552304760E+03   -0.71827E-03   -0.71826E-03  5760   0.142E-02 0.798E-06
CGA: 191    -0.223552748286E+03   -0.44353E-03   -0.44356E-03  5760   0.112E-02 0.178E-05
CGA: 192    -0.223553212080E+03   -0.46379E-03   -0.46405E-03  5760   0.919E-03-0.287E-05
CGA: 193    -0.223553776411E+03   -0.56433E-03   -0.56429E-03  5760   0.171E-02 0.175E-06
CGA: 194    -0.223554566235E+03   -0.78982E-03   -0.79018E-03  5760   0.189E-02-0.265E-05
CGA: 195    -0.223555384185E+03   -0.81795E-03   -0.81816E-03  5760   0.233E-02-0.228E-05
CGA: 196    -0.223556130184E+03   -0.74600E-03   -0.74594E-03  5760   0.119E-02-0.999E-06
CGA: 197    -0.223556615718E+03   -0.48553E-03   -0.48560E-03  5760   0.101E-02-0.670E-06
CGA: 198    -0.223556987110E+03   -0.37139E-03   -0.37141E-03  5760   0.650E-03-0.194E-05
CGA: 199    -0.223557313895E+03   -0.32678E-03   -0.32661E-03  5760   0.644E-03 0.128E-05
CGA: 200    -0.223557506462E+03   -0.19257E-03   -0.19264E-03  5760   0.458E-03 0.121E-05
CGA: 201    -0.223557697393E+03   -0.19093E-03   -0.19096E-03  5760   0.472E-03-0.416E-06
CGA: 202    -0.223557833166E+03   -0.13577E-03   -0.13588E-03  5760   0.249E-03 0.140E-05
CGA: 203    -0.223557926401E+03   -0.93235E-04   -0.93225E-04  5760   0.253E-03 0.814E-06
CGA: 204    -0.223558003173E+03   -0.76772E-04   -0.76725E-04  5760   0.109E-03-0.802E-06
CGA: 205    -0.223558050223E+03   -0.47050E-04   -0.47058E-04  5760   0.101E-03-0.105E-06
CGA: 206    -0.223558083803E+03   -0.33580E-04   -0.33579E-04  5760   0.625E-04-0.343E-07
CGA: 207    -0.223558105149E+03   -0.21346E-04   -0.21342E-04  5760   0.695E-04-0.233E-06
CGA: 208    -0.223558132225E+03   -0.27076E-04   -0.27087E-04  5760   0.504E-04-0.357E-06
CGA: 209    -0.223558153095E+03   -0.20870E-04   -0.20847E-04  5760   0.565E-04 0.428E-06
CGA: 210    -0.223558173683E+03   -0.20588E-04   -0.20587E-04  5760   0.428E-04-0.208E-06
CGA: 211    -0.223558189791E+03   -0.16108E-04   -0.16112E-04  5760   0.458E-04-0.265E-06
CGA: 212    -0.223558203139E+03   -0.13348E-04   -0.13376E-04  5760   0.274E-04 0.404E-06
CGA: 213    -0.223558217415E+03   -0.14276E-04   -0.14244E-04  5760   0.277E-04 0.212E-06
CGA: 214    -0.223558226778E+03   -0.93630E-05   -0.93460E-05  5760   0.204E-04-0.503E-06
CGA: 215    -0.223558236385E+03   -0.96069E-05   -0.95672E-05  5760   0.210E-04 0.360E-06
CGA: 216    -0.223558241575E+03   -0.51898E-05   -0.51747E-05  5760   0.115E-04-0.117E-06
CGA: 217    -0.223558246847E+03   -0.52717E-05   -0.53234E-05  5760   0.151E-04-0.523E-06
CGA: 218    -0.223558250664E+03   -0.38171E-05   -0.38441E-05  5760   0.724E-05 0.262E-06
SDA: 219    -0.223558254754E+03   -0.40907E-05   -0.40503E-05  5760   0.110E-04 0.220E-06
CGA: 220    -0.223558256980E+03   -0.22252E-05   -0.21494E-05  5760   0.479E-05-0.418E-06
CGA: 221    -0.223558258993E+03   -0.20134E-05   -0.20109E-05  5760   0.539E-05 0.352E-07
CGA: 222    -0.223558261069E+03   -0.20757E-05   -0.20715E-05  5760   0.467E-05 0.374E-06
CGA: 223    -0.223558263729E+03   -0.26605E-05   -0.27733E-05  5760   0.922E-05-0.610E-06
CGA: 224    -0.223558266923E+03   -0.31938E-05   -0.31892E-05  5760   0.922E-05 0.253E-06
CGA: 225    -0.223558270416E+03   -0.34929E-05   -0.34992E-05  5760   0.787E-05 0.543E-06
CGA: 226    -0.223558273555E+03   -0.31388E-05   -0.31359E-05  5760   0.992E-05-0.805E-06
CGA: 227    -0.223558277179E+03   -0.36241E-05   -0.36271E-05  5760   0.723E-05-0.105E-06
CGA: 228    -0.223558278732E+03   -0.15533E-05   -0.16401E-05  5760   0.422E-05 0.571E-06
CGA: 229    -0.223558280848E+03   -0.21156E-05   -0.21184E-05  5760   0.515E-05-0.284E-07
CGA: 230    -0.223558282330E+03   -0.14827E-05   -0.14545E-05  5760   0.418E-05-0.300E-06
CGA: 231    -0.223558283819E+03   -0.14884E-05   -0.14872E-05  5760   0.379E-05 0.230E-06
CGA: 232    -0.223558284871E+03   -0.10518E-05   -0.10686E-05  5760   0.288E-05 0.158E-06
CGA: 233    -0.223558286115E+03   -0.12447E-05   -0.12560E-05  5760   0.346E-05-0.222E-06
CGA: 234    -0.223558287251E+03   -0.11354E-05   -0.11360E-05  5760   0.364E-05 0.468E-07
CGA: 235    -0.223558288502E+03   -0.12511E-05   -0.12562E-05  5760   0.295E-05 0.169E-06
CGA: 236    -0.223558289536E+03   -0.10344E-05   -0.10278E-05  5760   0.325E-05-0.188E-06
CGA: 237    -0.223558290644E+03   -0.11082E-05   -0.11079E-05  5760   0.287E-05-0.112E-06
CGA: 238    -0.223558291485E+03   -0.84050E-06   -0.84974E-06  5760   0.243E-05 0.153E-06
   1 F= -.23261526E+03 E0= -.23261526E+03  d E =-.558249E-07  mag=     6.0000
