       N       E                     dE             d eps       ncg     rms          ort
DAV:   1     0.349352456293E+04    0.34935E+04   -0.13981E+05  5760   0.218E+03
DAV:   2     0.414031172634E+03   -0.30795E+04   -0.28387E+04  5760   0.533E+02
DAV:   3    -0.219086244485E+03   -0.63312E+03   -0.57877E+03  5760   0.255E+02
DAV:   4    -0.270110996556E+03   -0.51025E+02   -0.49955E+02  5760   0.745E+01
DAV:   5    -0.271861387382E+03   -0.17504E+01   -0.17473E+01  5760   0.138E+01
SDA:   6     0.977004274859E+02    0.36956E+03   -0.17473E+01  5760   0.444E+04 0.000E+00
CGA:   7     0.829435335280E+01   -0.89406E+02   -0.14220E+03  5760   0.478E+04 0.271E+02
CGA:   8    -0.961873774387E+02   -0.10448E+03   -0.19668E+03  5760   0.514E+04 0.141E+04
CGA:   9    -0.132613191891E+03   -0.36426E+02   -0.19360E+03  5760   0.280E+04-0.987E+03
CGA:  10    -0.148108807725E+03   -0.15496E+02   -0.35641E+02  5760   0.581E+03-0.439E+03
CGA:  11    -0.166618749228E+03   -0.18510E+02   -0.11213E+02  5760   0.448E+03 0.918E+02
CGA:  12    -0.165805968615E+03    0.81278E+00   -0.18143E+02  5760   0.194E+04-0.751E+03
CGA:  13    -0.196359550818E+03   -0.30554E+02   -0.43504E+02  5760   0.155E+03-0.178E+03
CGA:  14    -0.206239482716E+03   -0.98799E+01   -0.10539E+02  5760   0.148E+03-0.503E-01
CGA:  15    -0.211759613274E+03   -0.55201E+01   -0.58621E+01  5760   0.774E+02-0.392E+01
CGA:  16    -0.214620418434E+03   -0.28608E+01   -0.36840E+01  5760   0.744E+02-0.123E+02
CGA:  17    -0.218164030403E+03   -0.35436E+01   -0.39264E+01  5760   0.218E+02-0.356E+01
CGA:  18    -0.218860221656E+03   -0.69619E+00   -0.78820E+00  5760   0.122E+02-0.237E+01
CGA:  19    -0.219391266574E+03   -0.53104E+00   -0.56597E+00  5760   0.440E+01-0.368E+00
CGA:  20    -0.219649535898E+03   -0.25827E+00   -0.26896E+00  5760   0.483E+01-0.111E+00
CGA:  21    -0.220045899602E+03   -0.39636E+00   -0.40716E+00  5760   0.536E+01 0.712E-01
CGA:  22    -0.220333610156E+03   -0.28771E+00   -0.31058E+00  5760   0.283E+01-0.245E+00
CGA:  23    -0.220499268051E+03   -0.16566E+00   -0.16488E+00  5760   0.194E+01 0.875E-02
CGA:  24    -0.220627562293E+03   -0.12829E+00   -0.13681E+00  5760   0.175E+01-0.291E-01
CGA:  25    -0.220795363490E+03   -0.16780E+00   -0.16349E+00  5760   0.299E+01-0.919E-01
CGA:  26    -0.221041278072E+03   -0.24591E+00   -0.25308E+00  5760   0.155E+01 0.124E+00
CGA:  27    -0.221248098467E+03   -0.20682E+00   -0.20445E+00  5760   0.197E+01 0.773E-01
CGA:  28    -0.221406101356E+03   -0.15800E+00   -0.15661E+00  5760   0.281E+01-0.106E-01
CGA:  29    -0.221586305371E+03   -0.18020E+00   -0.18543E+00  5760   0.170E+01-0.224E-01
CGA:  30    -0.221756539737E+03   -0.17023E+00   -0.17015E+00  5760   0.138E+01-0.731E-02
CGA:  31    -0.221831022506E+03   -0.74483E-01   -0.73720E-01  5760   0.119E+01 0.651E-02
CGA:  32    -0.221940467710E+03   -0.10945E+00   -0.11014E+00  5760   0.109E+01 0.264E-01
CGA:  33    -0.222048984035E+03   -0.10852E+00   -0.10798E+00  5760   0.124E+01-0.461E-01
CGA:  34    -0.222118839396E+03   -0.69855E-01   -0.70452E-01  5760   0.952E+00-0.122E-01
CGA:  35    -0.222172583097E+03   -0.53744E-01   -0.55337E-01  5760   0.544E+00-0.878E-02
CGA:  36    -0.222211164274E+03   -0.38581E-01   -0.38526E-01  5760   0.745E+00 0.117E-02
CGA:  37    -0.222269077728E+03   -0.57913E-01   -0.59184E-01  5760   0.680E+00-0.183E-01
CGA:  38    -0.222311422064E+03   -0.42344E-01   -0.41960E-01  5760   0.595E+00-0.172E-01
CGA:  39    -0.222355905806E+03   -0.44484E-01   -0.45504E-01  5760   0.641E+00 0.669E-01
CGA:  40    -0.222411265565E+03   -0.55360E-01   -0.57118E-01  5760   0.334E+00-0.508E-01
CGA:  41    -0.222445550082E+03   -0.34285E-01   -0.38236E-01  5760   0.113E+01-0.151E+00
CGA:  42    -0.222469599183E+03   -0.24049E-01   -0.17743E-01  5760   0.135E+01 0.556E-02
SDA:  43    -0.222505201072E+03   -0.35602E-01   -0.36182E-01  5760   0.632E+00 0.150E-01
CGA:  44    -0.222578409341E+03   -0.73208E-01   -0.71288E-01  5760   0.525E+00 0.429E-01
CGA:  45    -0.222610065756E+03   -0.31656E-01   -0.34028E-01  5760   0.401E+00 0.225E-01
CGA:  46    -0.222691530285E+03   -0.81465E-01   -0.73177E-01  5760   0.464E+00 0.587E-01
CGA:  47    -0.222742168775E+03   -0.50638E-01   -0.50693E-01  5760   0.447E+00-0.459E-02
CGA:  48    -0.222797363134E+03   -0.55194E-01   -0.52648E-01  5760   0.294E+00 0.715E-01
CGA:  49    -0.222820161899E+03   -0.22799E-01   -0.23542E-01  5760   0.216E+00-0.296E-02
CGA:  50    -0.222846507905E+03   -0.26346E-01   -0.26058E-01  5760   0.112E+00 0.675E-02
CGA:  51    -0.222858205256E+03   -0.11697E-01   -0.11664E-01  5760   0.169E+00-0.159E-02
CGA:  52    -0.222873538140E+03   -0.15333E-01   -0.15340E-01  5760   0.559E-01 0.126E-02
CGA:  53    -0.222879806330E+03   -0.62682E-02   -0.62463E-02  5760   0.817E-01 0.718E-03
CGA:  54    -0.222890108862E+03   -0.10303E-01   -0.10102E-01  5760   0.378E-01 0.541E-02
CGA:  55    -0.222899180353E+03   -0.90715E-02   -0.86334E-02  5760   0.911E-01 0.681E-02
CGA:  56    -0.222906022674E+03   -0.68423E-02   -0.73806E-02  5760   0.347E-01 0.665E-03
CGA:  57    -0.222911495570E+03   -0.54729E-02   -0.56658E-02  5760   0.103E+00 0.194E-02
CGA:  58    -0.222918368405E+03   -0.68728E-02   -0.76322E-02  5760   0.355E-01 0.147E-03
CGA:  59    -0.222921018625E+03   -0.26502E-02   -0.25922E-02  5760   0.465E-01-0.323E-02
CGA:  60    -0.222925681126E+03   -0.46625E-02   -0.47191E-02  5760   0.612E-01 0.829E-02
CGA:  61    -0.222928089234E+03   -0.24081E-02   -0.35066E-02  5760   0.314E-01-0.144E-03
CGA:  62    -0.222930835029E+03   -0.27458E-02   -0.27418E-02  5760   0.769E-01-0.196E-01
CGA:  63    -0.222933104168E+03   -0.22691E-02   -0.32544E-02  5760   0.191E-01-0.101E-01
CGA:  64    -0.222934718284E+03   -0.16141E-02   -0.16110E-02  5760   0.203E-01 0.687E-03
CGA:  65    -0.222936505703E+03   -0.17874E-02   -0.18121E-02  5760   0.116E-01 0.125E-02
CGA:  66    -0.222939161943E+03   -0.26562E-02   -0.25454E-02  5760   0.277E-01 0.160E-02
CGA:  67    -0.222941309213E+03   -0.21473E-02   -0.23109E-02  5760   0.143E-01-0.188E-02
CGA:  68    -0.222942550414E+03   -0.12412E-02   -0.12414E-02  5760   0.177E-01-0.558E-03
CGA:  69    -0.222944436026E+03   -0.18856E-02   -0.18280E-02  5760   0.429E-02 0.335E-02
CGA:  70    -0.222946140859E+03   -0.17048E-02   -0.17313E-02  5760   0.299E-01-0.125E-02
CGA:  71    -0.222947189937E+03   -0.10491E-02   -0.10230E-02  5760   0.184E-01-0.563E-03
CGA:  72    -0.222948065856E+03   -0.87592E-03   -0.91436E-03  5760   0.220E-01-0.144E-02
CGA:  73    -0.222949654675E+03   -0.15888E-02   -0.16301E-02  5760   0.395E-01 0.222E-02
CGA:  74    -0.222951457536E+03   -0.18029E-02   -0.22384E-02  5760   0.302E-01-0.215E-02
CGA:  75    -0.222953074398E+03   -0.16169E-02   -0.16237E-02  5760   0.377E-01-0.312E-02
CGA:  76    -0.222957185957E+03   -0.41116E-02   -0.40548E-02  5760   0.897E-01-0.100E-02
CGA:  77    -0.222961930977E+03   -0.47450E-02   -0.41343E-02  5760   0.444E-01 0.860E-03
CGA:  78    -0.222965871304E+03   -0.39403E-02   -0.39351E-02  5760   0.851E-01 0.167E-03
CGA:  79    -0.222971395162E+03   -0.55239E-02   -0.55402E-02  5760   0.595E-01 0.329E-03
CGA:  80    -0.222973513484E+03   -0.21183E-02   -0.23331E-02  5760   0.316E-01-0.499E-04
CGA:  81    -0.222976196946E+03   -0.26835E-02   -0.26915E-02  5760   0.748E-01-0.448E-02
CGA:  82    -0.222979716702E+03   -0.35198E-02   -0.34798E-02  5760   0.938E-01-0.104E-02
CGA:  83    -0.222981618421E+03   -0.19017E-02   -0.27751E-02  5760   0.384E-01 0.221E-03
CGA:  84    -0.222982839898E+03   -0.12215E-02   -0.15167E-02  5760   0.407E-01-0.634E-02
CGA:  85    -0.222986136222E+03   -0.32963E-02   -0.34281E-02  5760   0.900E-01-0.137E-01
CGA:  86    -0.222987822581E+03   -0.16864E-02   -0.15101E-02  5760   0.415E-01 0.166E-02
CGA:  87    -0.222989282990E+03   -0.14604E-02   -0.15072E-02  5760   0.507E-01-0.271E-02
CGA:  88    -0.222991368604E+03   -0.20856E-02   -0.21980E-02  5760   0.118E+00 0.764E-02
CGA:  89    -0.222993288057E+03   -0.19195E-02   -0.36462E-02  5760   0.117E+00 0.290E-01
CGA:  90    -0.222993934340E+03   -0.64628E-03   -0.32506E-02  5760   0.464E-01-0.110E-01
CGA:  91    -0.222994484885E+03   -0.55055E-03   -0.10522E-02  5760   0.389E-01-0.124E-01
CGA:  92    -0.222996091745E+03   -0.16069E-02   -0.14684E-02  5760   0.762E-01-0.241E-01
CGA:  93    -0.222998316012E+03   -0.22243E-02   -0.29919E-02  5760   0.197E-01-0.394E-02
CGA:  94    -0.223000783723E+03   -0.24677E-02   -0.24074E-02  5760   0.301E-01 0.677E-03
CGA:  95    -0.223003296853E+03   -0.25131E-02   -0.25064E-02  5760   0.163E-01 0.295E-03
CGA:  96    -0.223005965642E+03   -0.26688E-02   -0.25997E-02  5760   0.349E-01-0.157E-03
CGA:  97    -0.223007845187E+03   -0.18795E-02   -0.20043E-02  5760   0.992E-02 0.963E-03
CGA:  98    -0.223010390725E+03   -0.25455E-02   -0.22590E-02  5760   0.113E-01 0.109E-02
CGA:  99    -0.223011470407E+03   -0.10797E-02   -0.10723E-02  5760   0.779E-02 0.115E-02
CGA: 100    -0.223012993071E+03   -0.15227E-02   -0.15936E-02  5760   0.208E-01-0.125E-02
CGA: 101    -0.223013861545E+03   -0.86847E-03   -0.86723E-03  5760   0.935E-02 0.777E-04
CGA: 102    -0.223014602933E+03   -0.74139E-03   -0.75540E-03  5760   0.112E-01 0.170E-02
CGA: 103    -0.223015495578E+03   -0.89264E-03   -0.91298E-03  5760   0.154E-01-0.361E-02
CGA: 104    -0.223016273968E+03   -0.77839E-03   -0.75918E-03  5760   0.145E-01-0.133E-02
CGA: 105    -0.223016858986E+03   -0.58502E-03   -0.59348E-03  5760   0.149E-01-0.651E-03
CGA: 106    -0.223018029393E+03   -0.11704E-02   -0.11696E-02  5760   0.189E-01 0.405E-02
CGA: 107    -0.223018801899E+03   -0.77251E-03   -0.91081E-03  5760   0.103E-01-0.383E-02
CGA: 108    -0.223019908862E+03   -0.11070E-02   -0.15459E-02  5760   0.450E-01-0.386E-02
CGA: 109    -0.223020939620E+03   -0.10308E-02   -0.10775E-02  5760   0.329E-01 0.391E-02
CGA: 110    -0.223021926604E+03   -0.98698E-03   -0.13072E-02  5760   0.243E-01 0.498E-02
CGA: 111    -0.223022877634E+03   -0.95103E-03   -0.12684E-02  5760   0.204E-01-0.714E-02
CGA: 112    -0.223023827407E+03   -0.94977E-03   -0.80295E-03  5760   0.421E-01-0.112E-01
CGA: 113    -0.223024771223E+03   -0.94382E-03   -0.14767E-02  5760   0.952E-02-0.179E-02
CGA: 114    -0.223025557130E+03   -0.78591E-03   -0.78911E-03  5760   0.118E-01-0.374E-04
CGA: 115    -0.223026817572E+03   -0.12604E-02   -0.12320E-02  5760   0.932E-02-0.578E-03
CGA: 116    -0.223027414350E+03   -0.59678E-03   -0.60462E-03  5760   0.981E-02-0.193E-03
CGA: 117    -0.223028328475E+03   -0.91413E-03   -0.86110E-03  5760   0.360E-02 0.314E-02
CGA: 118    -0.223028900808E+03   -0.57233E-03   -0.51634E-03  5760   0.507E-02 0.274E-03
CGA: 119    -0.223029846742E+03   -0.94593E-03   -0.16682E-02  5760   0.218E-01-0.188E-02
CGA: 120    -0.223029875399E+03   -0.28657E-04   -0.30790E-03  5760   0.145E-01 0.476E-03
CGA: 121    -0.223030157962E+03   -0.28256E-03   -0.48539E-03  5760   0.166E-01-0.391E-02
CGA: 122    -0.223031240840E+03   -0.10829E-02   -0.11559E-02  5760   0.392E-01-0.155E-01
CGA: 123    -0.223032100818E+03   -0.85998E-03   -0.13786E-02  5760   0.111E-01-0.591E-02
CGA: 124    -0.223032867197E+03   -0.76638E-03   -0.76637E-03  5760   0.978E-02-0.677E-04
CGA: 125    -0.223033735841E+03   -0.86864E-03   -0.86781E-03  5760   0.719E-02 0.776E-04
CGA: 126    -0.223034094703E+03   -0.35886E-03   -0.38910E-03  5760   0.476E-02-0.785E-03
CGA: 127    -0.223034654944E+03   -0.56024E-03   -0.50087E-03  5760   0.202E-02 0.817E-03
CGA: 128    -0.223035285470E+03   -0.63053E-03   -0.51932E-03  5760   0.578E-02 0.290E-03
CGA: 129    -0.223035744078E+03   -0.45861E-03   -0.47887E-03  5760   0.454E-02 0.194E-03
CGA: 130    -0.223036055914E+03   -0.31184E-03   -0.31353E-03  5760   0.331E-02-0.584E-04
CGA: 131    -0.223036667927E+03   -0.61201E-03   -0.64787E-03  5760   0.169E-01-0.525E-03
CGA: 132    -0.223037431469E+03   -0.76354E-03   -0.88082E-03  5760   0.110E-01 0.135E-02
CGA: 133    -0.223037845979E+03   -0.41451E-03   -0.47543E-03  5760   0.107E-01-0.188E-02
CGA: 134    -0.223039983484E+03   -0.21375E-02   -0.18756E-02  5760   0.216E-01 0.221E-03
CGA: 135    -0.223041451957E+03   -0.14685E-02   -0.14467E-02  5760   0.551E-01-0.270E-02
CGA: 136    -0.223041628081E+03   -0.17612E-03   -0.99254E-04  5760   0.554E-01 0.467E-01
CGA: 137    -0.223042917228E+03   -0.12891E-02   -0.16617E-02  5760   0.150E-01-0.495E-02
CGA: 138    -0.223045186820E+03   -0.22696E-02   -0.22815E-02  5760   0.179E-01-0.142E-04
CGA: 139    -0.223046136585E+03   -0.94977E-03   -0.98101E-03  5760   0.173E-01-0.112E-02
CGA: 140    -0.223048626780E+03   -0.24902E-02   -0.23465E-02  5760   0.146E-01 0.506E-03
CGA: 141    -0.223049773584E+03   -0.11468E-02   -0.12199E-02  5760   0.555E-02 0.190E-02
CGA: 142    -0.223050682887E+03   -0.90930E-03   -0.90746E-03  5760   0.205E-01-0.194E-03
CGA: 143    -0.223052051535E+03   -0.13686E-02   -0.13096E-02  5760   0.162E-01-0.245E-02
CGA: 144    -0.223053687167E+03   -0.16356E-02   -0.15561E-02  5760   0.583E-01 0.884E-02
CGA: 145    -0.223055127309E+03   -0.14401E-02   -0.18795E-02  5760   0.218E-01-0.625E-02
CGA: 146    -0.223058030717E+03   -0.29034E-02   -0.38510E-02  5760   0.902E-01-0.525E-02
CGA: 147    -0.223059106732E+03   -0.10760E-02   -0.24560E-02  5760   0.594E-01 0.115E-01
CGA: 148    -0.223060473795E+03   -0.13671E-02   -0.29181E-02  5760   0.778E-01-0.104E-01
CGA: 149    -0.223074991497E+03   -0.14518E-01    0.11261E-01  5760   0.133E+00 0.161E+00
CGA: 150    -0.223082208228E+03   -0.72167E-02   -0.92122E-02  5760   0.874E-01 0.522E-01
CGA: 151    -0.223090977629E+03   -0.87694E-02   -0.90147E-02  5760   0.202E+00 0.565E-01
CGA: 152    -0.223095482081E+03   -0.45045E-02   -0.69979E-02  5760   0.995E-01-0.286E-02
CGA: 153    -0.223120406135E+03   -0.24924E-01   -0.17921E-01  5760   0.306E+00 0.117E+00
CGA: 154    -0.223128997469E+03   -0.85913E-02   -0.14394E-01  5760   0.211E+00 0.465E-01
CGA: 155    -0.223160747026E+03   -0.31750E-01   -0.28769E-01  5760   0.296E+00 0.970E-01
CGA: 156    -0.223190757289E+03   -0.30010E-01   -0.31320E-01  5760   0.345E+00 0.885E-01
CGA: 157    -0.223214016624E+03   -0.23259E-01   -0.29375E-01  5760   0.230E+00 0.116E+00
CGA: 158    -0.223240043533E+03   -0.26027E-01   -0.25962E-01  5760   0.147E+00 0.150E-02
CGA: 159    -0.223274724471E+03   -0.34681E-01   -0.34240E-01  5760   0.118E+00 0.188E-03
CGA: 160    -0.223298748009E+03   -0.24024E-01   -0.25643E-01  5760   0.116E+00 0.944E-02
CGA: 161    -0.223311811115E+03   -0.13063E-01   -0.13126E-01  5760   0.677E-01-0.479E-02
CGA: 162    -0.223320882152E+03   -0.90710E-02   -0.90323E-02  5760   0.376E-01-0.338E-03
CGA: 163    -0.223326444151E+03   -0.55620E-02   -0.53493E-02  5760   0.225E-01 0.370E-02
CGA: 164    -0.223329491159E+03   -0.30470E-02   -0.31179E-02  5760   0.223E-01-0.140E-02
CGA: 165    -0.223333407086E+03   -0.39159E-02   -0.42318E-02  5760   0.212E-01-0.226E-02
CGA: 166    -0.223337792037E+03   -0.43850E-02   -0.43318E-02  5760   0.169E-01 0.761E-03
CGA: 167    -0.223339330715E+03   -0.15387E-02   -0.15330E-02  5760   0.783E-02 0.112E-02
CGA: 168    -0.223340776370E+03   -0.14457E-02   -0.13816E-02  5760   0.495E-02 0.112E-03
CGA: 169    -0.223341849854E+03   -0.10735E-02   -0.11208E-02  5760   0.676E-02-0.842E-04
CGA: 170    -0.223342578758E+03   -0.72890E-03   -0.72097E-03  5760   0.420E-02 0.530E-07
CGA: 171    -0.223343149667E+03   -0.57091E-03   -0.56431E-03  5760   0.235E-02 0.173E-03
CGA: 172    -0.223343612407E+03   -0.46274E-03   -0.48442E-03  5760   0.452E-02 0.133E-03
CGA: 173    -0.223344308120E+03   -0.69571E-03   -0.70371E-03  5760   0.436E-02-0.205E-03
CGA: 174    -0.223345224511E+03   -0.91639E-03   -0.91487E-03  5760   0.465E-02 0.963E-04
CGA: 175    -0.223345757100E+03   -0.53259E-03   -0.52396E-03  5760   0.469E-02 0.718E-04
CGA: 176    -0.223346855663E+03   -0.10986E-02   -0.11246E-02  5760   0.492E-02-0.195E-03
CGA: 177    -0.223347664949E+03   -0.80929E-03   -0.81654E-03  5760   0.652E-02 0.196E-03
CGA: 178    -0.223348552026E+03   -0.88708E-03   -0.87874E-03  5760   0.474E-02-0.329E-03
CGA: 179    -0.223349736804E+03   -0.11848E-02   -0.12612E-02  5760   0.705E-02-0.215E-03
CGA: 180    -0.223351047678E+03   -0.13109E-02   -0.13087E-02  5760   0.600E-02 0.749E-04
CGA: 181    -0.223351729869E+03   -0.68219E-03   -0.66443E-03  5760   0.468E-02 0.181E-03
CGA: 182    -0.223353117595E+03   -0.13877E-02   -0.14506E-02  5760   0.547E-02-0.311E-03
CGA: 183    -0.223354099752E+03   -0.98216E-03   -0.98591E-03  5760   0.396E-02 0.517E-04
SDA: 184    -0.223354589298E+03   -0.48955E-03   -0.47676E-03  5760   0.299E-02 0.826E-04
CGA: 185    -0.223354885101E+03   -0.29580E-03   -0.27742E-03  5760   0.187E-02 0.175E-03
CGA: 186    -0.223355285663E+03   -0.40056E-03   -0.41106E-03  5760   0.187E-02-0.903E-04
CGA: 187    -0.223355653484E+03   -0.36782E-03   -0.36811E-03  5760   0.807E-03-0.318E-05
CGA: 188    -0.223355983588E+03   -0.33010E-03   -0.33494E-03  5760   0.118E-02-0.375E-05
CGA: 189    -0.223356174283E+03   -0.19069E-03   -0.18999E-03  5760   0.870E-03 0.112E-04
CGA: 190    -0.223356277020E+03   -0.10274E-03   -0.99561E-04  5760   0.527E-03 0.845E-05
CGA: 191    -0.223356393397E+03   -0.11638E-03   -0.11737E-03  5760   0.356E-03-0.762E-05
CGA: 192    -0.223356475504E+03   -0.82107E-04   -0.82689E-04  5760   0.251E-03-0.408E-05
CGA: 193    -0.223356552060E+03   -0.76556E-04   -0.77101E-04  5760   0.331E-03-0.250E-06
CGA: 194    -0.223356637487E+03   -0.85426E-04   -0.87945E-04  5760   0.525E-03-0.346E-05
CGA: 195    -0.223356694513E+03   -0.57026E-04   -0.55374E-04  5760   0.263E-03 0.592E-05
CGA: 196    -0.223356761235E+03   -0.66723E-04   -0.68429E-04  5760   0.261E-03-0.125E-04
CGA: 197    -0.223356826151E+03   -0.64915E-04   -0.65116E-04  5760   0.274E-03 0.577E-05
CGA: 198    -0.223356859841E+03   -0.33691E-04   -0.32510E-04  5760   0.214E-03 0.113E-04
CGA: 199    -0.223356910078E+03   -0.50237E-04   -0.51331E-04  5760   0.209E-03-0.104E-04
CGA: 200    -0.223356965135E+03   -0.55057E-04   -0.55038E-04  5760   0.203E-03 0.188E-05
CGA: 201    -0.223357036608E+03   -0.71473E-04   -0.71224E-04  5760   0.263E-03 0.379E-05
CGA: 202    -0.223357102199E+03   -0.65591E-04   -0.65640E-04  5760   0.265E-03 0.335E-05
CGA: 203    -0.223357141418E+03   -0.39219E-04   -0.38009E-04  5760   0.279E-03 0.112E-04
CGA: 204    -0.223357202620E+03   -0.61202E-04   -0.61301E-04  5760   0.151E-03-0.397E-05
CGA: 205    -0.223357237777E+03   -0.35156E-04   -0.35327E-04  5760   0.122E-03-0.271E-05
CGA: 206    -0.223357270533E+03   -0.32756E-04   -0.33004E-04  5760   0.142E-03-0.264E-07
CGA: 207    -0.223357289092E+03   -0.18559E-04   -0.17872E-04  5760   0.101E-03 0.470E-05
CGA: 208    -0.223357308972E+03   -0.19880E-04   -0.19826E-04  5760   0.809E-04-0.143E-05
CGA: 209    -0.223357330276E+03   -0.21304E-04   -0.21473E-04  5760   0.714E-04-0.121E-05
CGA: 210    -0.223357344050E+03   -0.13774E-04   -0.13744E-04  5760   0.633E-04-0.396E-06
CGA: 211    -0.223357353361E+03   -0.93113E-05   -0.91281E-05  5760   0.569E-04 0.693E-06
CGA: 212    -0.223357365006E+03   -0.11645E-04   -0.11655E-04  5760   0.370E-04-0.722E-06
CGA: 213    -0.223357374432E+03   -0.94255E-05   -0.93850E-05  5760   0.328E-04 0.555E-06
CGA: 214    -0.223357379946E+03   -0.55147E-05   -0.54093E-05  5760   0.333E-04 0.120E-05
SDA: 215    -0.223357385893E+03   -0.59468E-05   -0.58988E-05  5760   0.278E-04-0.541E-06
CGA: 216    -0.223357389225E+03   -0.33322E-05   -0.32587E-05  5760   0.183E-04 0.159E-05
CGA: 217    -0.223357392059E+03   -0.28332E-05   -0.27481E-05  5760   0.137E-04 0.628E-07
CGA: 218    -0.223357396770E+03   -0.47119E-05   -0.47631E-05  5760   0.139E-04-0.328E-06
CGA: 219    -0.223357400874E+03   -0.41031E-05   -0.41710E-05  5760   0.198E-04-0.118E-06
CGA: 220    -0.223357403516E+03   -0.26428E-05   -0.25108E-05  5760   0.157E-04 0.707E-06
CGA: 221    -0.223357407236E+03   -0.37199E-05   -0.37336E-05  5760   0.145E-04-0.220E-06
CGA: 222    -0.223357410567E+03   -0.33303E-05   -0.33277E-05  5760   0.108E-04 0.177E-06
CGA: 223    -0.223357413026E+03   -0.24593E-05   -0.24656E-05  5760   0.103E-04-0.204E-06
CGA: 224    -0.223357414798E+03   -0.17723E-05   -0.17443E-05  5760   0.136E-04 0.472E-06
CGA: 225    -0.223357417441E+03   -0.26424E-05   -0.26343E-05  5760   0.732E-05-0.393E-07
CGA: 226    -0.223357419874E+03   -0.24339E-05   -0.24875E-05  5760   0.850E-05-0.111E-07
CGA: 227    -0.223357421242E+03   -0.13676E-05   -0.13399E-05  5760   0.972E-05 0.167E-06
CGA: 228    -0.223357423044E+03   -0.18020E-05   -0.17823E-05  5760   0.611E-05-0.259E-06
CGA: 229    -0.223357424798E+03   -0.17545E-05   -0.17808E-05  5760   0.526E-05-0.247E-06
CGA: 230    -0.223357425561E+03   -0.76223E-06   -0.73059E-06  5760   0.552E-05 0.322E-06
CGA: 231    -0.223357426742E+03   -0.11813E-05   -0.11802E-05  5760   0.302E-05-0.787E-07
CGA: 232    -0.223357427417E+03   -0.67475E-06   -0.68140E-06  5760   0.305E-05-0.138E-06
   1 F= -.23276615E+03 E0= -.23276200E+03  d E =-.829346E-02  mag=     6.0000
