 vasp.5.4.4.18Apr17-6-g9f103f2a35 (build Nov 22 2021 14:44:17) complex          
  
 executed on             LinuxIFC date 2022.08.08  10:58:54
 running on   64 total cores
 distrk:  each k-point on   64 cores,    1 groups
 distr:  one band on NCORES_PER_BAND=   4 cores,   16 groups


--------------------------------------------------------------------------------------------------------


 INCAR:
 POTCAR:    PAW_PBE Li 17Jan2003                  
 POTCAR:    PAW_PBE Co 02Aug2007                  
 POTCAR:    PAW_PBE O 08Apr2002                   
 POTCAR:    PAW_PBE Li 17Jan2003                  
   VRHFIN =Li: s1p0                                                             
   LEXCH  = PE                                                                  
   EATOM  =     5.3001 eV,    0.3895 Ry                                         
                                                                                
   TITEL  = PAW_PBE Li 17Jan2003                                                
   LULTRA =        F    use ultrasoft PP ?                                      
   IUNSCR =        1    unscreen: 0-lin 1-nonlin 2-no                           
   RPACOR =    1.500    partial core radius                                     
   POMASS =    7.010; ZVAL   =    1.000    mass and valenz                      
   RCORE  =    2.050    outmost cutoff radius                                   
   RWIGS  =    2.600; RWIGS  =    1.376    wigner-seitz radius (au A)           
   ENMAX  =  140.000; ENMIN  =  100.000 eV                                      
   ICORE  =        2    local potential                                         
   LCOR   =        T    correct aug charges                                     
   LPAW   =        T    paw PP                                                  
   EAUG   =  331.638                                                            
   DEXC   =    0.000                                                            
   RMAX   =    2.098    core radius for proj-oper                               
   RAUG   =    1.300    factor for augmentation sphere                          
   RDEP   =    2.094    radius for radial grids                                 
   RDEPT  =    1.810    core radius for aug-charge                              
                                                                                
   Atomic configuration                                                         
    4 entries                                                                   
     n  l   j            E        occ.                                          
     1  0  0.50       -51.8549   2.0000                                         
     2  0  0.50        -2.8742   1.0000                                         
     2  1  0.50        -1.3606   0.0000                                         
     3  2  1.50        -1.3606   0.0000                                         
   Description                                                                  
     l       E           TYP  RCUT    TYP  RCUT                                 
     0     -2.8742052     23  2.050                                             
     0     27.2116520     23  2.050                                             
     1     -1.3605826     23  2.050                                             
     2     -1.3605826     23  2.050                                             
  local pseudopotential read in
  partial core-charges read in
  partial kinetic energy density read in
  atomic valenz-charges read in
  non local Contribution for L=           0  read in
    real space projection operators read in
  non local Contribution for L=           0  read in
    real space projection operators read in
  non local Contribution for L=           1  read in
    real space projection operators read in
    PAW grid and wavefunctions read in
 
   number of l-projection  operators is LMAX  =           3
   number of lm-projection operators is LMMAX =           5
 
 POTCAR:    PAW_PBE Co 02Aug2007                  
   VRHFIN =Co: d8 s1                                                            
   LEXCH  = PE                                                                  
   EATOM  =   813.3670 eV,   59.7808 Ry                                         
                                                                                
   TITEL  = PAW_PBE Co 02Aug2007                                                
   LULTRA =        F    use ultrasoft PP ?                                      
   IUNSCR =        1    unscreen: 0-lin 1-nonlin 2-no                           
   RPACOR =    2.000    partial core radius                                     
   POMASS =   58.933; ZVAL   =    9.000    mass and valenz                      
   RCORE  =    2.300    outmost cutoff radius                                   
   RWIGS  =    2.460; RWIGS  =    1.302    wigner-seitz radius (au A)           
   ENMAX  =  267.968; ENMIN  =  200.976 eV                                      
   RCLOC  =    1.203    cutoff for local pot                                    
   LCOR   =        T    correct aug charges                                     
   LPAW   =        T    paw PP                                                  
   EAUG   =  477.818                                                            
   DEXC   =    0.000                                                            
   RMAX   =    2.360    core radius for proj-oper                               
   RAUG   =    1.300    factor for augmentation sphere                          
   RDEP   =    2.393    radius for radial grids                                 
   RDEPT  =    1.864    core radius for aug-charge                              
                                                                                
   Atomic configuration                                                         
    9 entries                                                                   
     n  l   j            E        occ.                                          
     1  0  0.50     -7587.6674   2.0000                                         
     2  0  0.50      -893.6084   2.0000                                         
     2  1  1.50      -764.5805   6.0000                                         
     3  0  0.50       -97.5973   2.0000                                         
     3  1  1.50       -60.9648   6.0000                                         
     3  2  2.50        -4.2382   8.0000                                         
     4  0  0.50        -4.3746   1.0000                                         
     4  1  1.50        -4.0817   0.0000                                         
     4  3  2.50        -1.3606   0.0000                                         
   Description                                                                  
     l       E           TYP  RCUT    TYP  RCUT                                 
     2     -4.2382362     23  2.300                                             
     2     -5.5988188     23  2.300                                             
     0     -4.3745797     23  2.300                                             
     0      5.7660125     23  2.300                                             
     1     -2.7211652     23  2.300                                             
     1     16.9860234     23  2.300                                             
  local pseudopotential read in
  partial core-charges read in
  partial kinetic energy density read in
  atomic valenz-charges read in
  non local Contribution for L=           2  read in
    real space projection operators read in
  non local Contribution for L=           2  read in
    real space projection operators read in
  non local Contribution for L=           0  read in
    real space projection operators read in
  non local Contribution for L=           0  read in
    real space projection operators read in
  non local Contribution for L=           1  read in
    real space projection operators read in
  non local Contribution for L=           1  read in
    real space projection operators read in
    PAW grid and wavefunctions read in
 
   number of l-projection  operators is LMAX  =           6
   number of lm-projection operators is LMMAX =          18
 
 POTCAR:    PAW_PBE O 08Apr2002                   
   VRHFIN =O: s2p4                                                              
   LEXCH  = PE                                                                  
   EATOM  =   432.3788 eV,   31.7789 Ry                                         
                                                                                
   TITEL  = PAW_PBE O 08Apr2002                                                 
   LULTRA =        F    use ultrasoft PP ?                                      
   IUNSCR =        1    unscreen: 0-lin 1-nonlin 2-no                           
   RPACOR =    1.200    partial core radius                                     
   POMASS =   16.000; ZVAL   =    6.000    mass and valenz                      
   RCORE  =    1.520    outmost cutoff radius                                   
   RWIGS  =    1.550; RWIGS  =    0.820    wigner-seitz radius (au A)           
   ENMAX  =  400.000; ENMIN  =  300.000 eV                                      
   ICORE  =        2    local potential                                         
   LCOR   =        T    correct aug charges                                     
   LPAW   =        T    paw PP                                                  
   EAUG   =  605.392                                                            
   DEXC   =    0.000                                                            
   RMAX   =    1.553    core radius for proj-oper                               
   RAUG   =    1.300    factor for augmentation sphere                          
   RDEP   =    1.550    radius for radial grids                                 
   RDEPT  =    1.329    core radius for aug-charge                              
                                                                                
   Atomic configuration                                                         
    4 entries                                                                   
     n  l   j            E        occ.                                          
     1  0  0.50      -514.6923   2.0000                                         
     2  0  0.50       -23.9615   2.0000                                         
     2  1  0.50        -9.0305   4.0000                                         
     3  2  1.50        -9.5241   0.0000                                         
   Description                                                                  
     l       E           TYP  RCUT    TYP  RCUT                                 
     0    -23.9615318     23  1.200                                             
     0     -9.5240782     23  1.200                                             
     1     -9.0304911     23  1.520                                             
     1      8.1634956     23  1.520                                             
     2     -9.5240782      7  1.500                                             
  local pseudopotential read in
  partial core-charges read in
  partial kinetic energy density read in
  kinetic energy density of atom read in
  atomic valenz-charges read in
  non local Contribution for L=           0  read in
    real space projection operators read in
  non local Contribution for L=           0  read in
    real space projection operators read in
  non local Contribution for L=           1  read in
    real space projection operators read in
  non local Contribution for L=           1  read in
    real space projection operators read in
    PAW grid and wavefunctions read in
 
   number of l-projection  operators is LMAX  =           4
   number of lm-projection operators is LMMAX =           8
 
 Optimization of the real space projectors (new method)

 maximal supplied QI-value         = 18.33
 optimisation between [QCUT,QGAM] = [ 12.46, 24.93] = [ 43.51,174.03] Ry 
 Optimized for a Real-space Cutoff    1.13 Angstroem

   l    n(q)    QCUT    max X(q) W(low)/X(q) W(high)/X(q)  e(spline) 
   0      8    12.465    33.825    0.12E-03    0.29E-03    0.99E-07
   0      8    12.465     8.944    0.86E-04    0.22E-03    0.72E-07
   1      8    12.465     4.214    0.27E-03    0.11E-03    0.82E-07
 Optimization of the real space projectors (new method)

 maximal supplied QI-value         = 16.25
 optimisation between [QCUT,QGAM] = [ 12.51, 25.03] = [ 43.85,175.40] Ry 
 Optimized for a Real-space Cutoff    1.31 Angstroem

   l    n(q)    QCUT    max X(q) W(low)/X(q) W(high)/X(q)  e(spline) 
   2      9    12.514    65.824    0.30E-03    0.46E-03    0.43E-06
   2      9    12.514    61.429    0.31E-03    0.46E-03    0.44E-06
   0     10    12.514    56.174    0.90E-04    0.33E-03    0.30E-06
   0     10    12.514    31.263    0.81E-04    0.30E-03    0.28E-06
   1      9    12.514    19.828    0.38E-03    0.65E-04    0.24E-06
   1      9    12.514    15.139    0.32E-03    0.60E-04    0.20E-06
 Optimization of the real space projectors (new method)

 maximal supplied QI-value         = 24.76
 optimisation between [QCUT,QGAM] = [ 12.38, 25.00] = [ 42.90,175.06] Ry 
 Optimized for a Real-space Cutoff    1.13 Angstroem

   l    n(q)    QCUT    max X(q) W(low)/X(q) W(high)/X(q)  e(spline) 
   0      8    12.378    20.381    0.16E-03    0.54E-05    0.27E-06
   0      8    12.378    15.268    0.17E-03    0.61E-05    0.29E-06
   1      8    12.378     5.964    0.38E-03    0.23E-03    0.28E-06
   1      8    12.378     5.382    0.33E-03    0.20E-03    0.25E-06
  PAW_PBE Li 17Jan2003                  :
 energy of atom  1       EATOM=   -5.3001
 kinetic energy error for atom=    0.0000 (will be added to EATOM!!)
  PAW_PBE Co 02Aug2007                  :
 energy of atom  2       EATOM= -813.3670
 kinetic energy error for atom=    0.0018 (will be added to EATOM!!)
  PAW_PBE O 08Apr2002                   :
 energy of atom  3       EATOM= -432.3788
 kinetic energy error for atom=    0.0168 (will be added to EATOM!!)
 
 
 POSCAR: Li6 Co12 O24                            
  positions in cartesian coordinates
  No initial velocities read in
 exchange correlation table for  LEXCH =        8
   RHO(1)=    0.500       N(1)  =     2000
   RHO(2)=  100.500       N(2)  =     4000
 


--------------------------------------------------------------------------------------------------------


 ion  position               nearest neighbor table
   1  0.525  0.026  0.997-  38 1.78  37 1.82  25 1.89  36 1.93  23 1.95  24 2.09  17 2.33  16 2.52
                             9 2.53  15 2.56  10 2.71   8 2.74
   2  0.795  0.638  0.327-  34 1.79  22 1.84  33 1.94  20 1.99  32 2.06  19 2.08  14 2.46   9 2.57
                            11 2.61  10 2.66  12 2.67   8 2.71
   3  0.136  0.332  0.687-  39 1.83  40 1.83  42 2.02  29 2.04  28 2.14  27 2.32  17 2.57  16 2.65
                             6 2.65  15 2.72   4 2.75   5 2.75   4 2.86   5 2.87   6 2.93  12 3.01
   4  0.166  0.856  0.678-  39 1.93  41 1.98  40 2.01  27 2.01  28 2.17  30 2.18   5 2.57  15 2.59
                             6 2.71  18 2.74   3 2.75   3 2.86  13 2.88   6 2.90  11 2.90  16 2.90
   5  0.635  0.307  0.670-  27 1.92  41 2.01  29 2.12  42 2.13  40 2.14  30 2.24   4 2.57  15 2.68
                             6 2.73  13 2.74   3 2.75  14 2.86  17 2.86   3 2.87   6 2.89  18 2.93
   6  0.676  0.843  0.681-  41 1.88  39 1.90  42 1.98  29 2.12  28 2.24  30 2.24   3 2.65   4 2.71
                            17 2.72   5 2.73  18 2.74  16 2.74   5 2.89   4 2.90   3 2.93  11 2.95
   7  0.178  0.339  0.166-  22 1.84  23 1.87  20 1.89  24 1.90  19 1.91  25 1.96   9 2.67   8 2.73
                            10 2.76  10 2.81   8 2.87   9 2.94
   8  0.167  0.846  0.166-  20 1.81  23 1.81  21 1.83  19 1.85  24 1.88  26 1.90   2 2.71   9 2.72
                             7 2.73  10 2.73   1 2.74   9 2.85   7 2.87  10 2.87
   9  0.653  0.336  0.159-  22 1.83  26 1.84  21 1.86  23 1.86  25 1.89  20 1.90   1 2.53   2 2.57
                             7 2.67   8 2.72  10 2.79  10 2.82   8 2.85   7 2.94
  10  0.680  0.847  0.164-  25 1.81  19 1.82  22 1.82  24 1.85  26 1.86  21 1.90   2 2.66   1 2.71
                             8 2.73   7 2.76   9 2.79   7 2.81   9 2.82   8 2.87
  11  0.002  0.988  0.484-  32 1.78  31 1.83  30 1.86  34 1.87  29 1.92  27 1.98   2 2.61  13 2.76
                            14 2.78  12 2.79  14 2.79  12 2.81  13 2.84   4 2.90   6 2.95   3 3.05
  12  0.009  0.489  0.480-  33 1.78  32 1.84  31 1.87  28 1.91  30 1.92  29 1.95   2 2.67  14 2.73
                            13 2.77  11 2.79  13 2.80  11 2.81  14 2.87   5 2.99   3 3.01   4 3.06
  13  0.498  0.995  0.488-  33 1.84  27 1.86  32 1.94  34 1.95  28 1.99  29 2.02   5 2.74  11 2.76
                            12 2.77  14 2.78  12 2.80  14 2.82  11 2.84   4 2.88   6 2.97
  14  0.497  0.491  0.486-  34 1.81  31 1.85  30 1.94  28 1.95  33 1.95  27 1.96   2 2.46  12 2.73
                            11 2.78  13 2.78  11 2.79  13 2.82   5 2.86  12 2.87   6 2.99   3 3.08
  15  0.327  0.163  0.847-  36 1.83  37 1.85  35 1.89  39 1.92  41 1.94  42 1.96   1 2.56   4 2.59
                             5 2.68   3 2.72  18 2.73  16 2.76  17 2.78  17 2.83  16 2.84  18 2.84
  16  0.333  0.659  0.854-  36 1.72  42 1.77  35 1.81  38 1.88  41 1.94  40 2.01   1 2.52   3 2.65
                            17 2.73   6 2.74  18 2.75  15 2.76  17 2.84  15 2.84  18 2.85   4 2.90
  17  0.831  0.180  0.854-  37 1.78  35 1.85  39 1.93  38 1.95  40 1.98  41 1.98   1 2.33   3 2.57
                             6 2.72  16 2.73  18 2.77  15 2.78  18 2.82  15 2.83  16 2.84   5 2.86
  18  0.833  0.677  0.854-  37 1.86  38 1.86  36 1.92  40 1.92  42 1.99  39 2.01  15 2.73   4 2.74
                             6 2.74  16 2.75  17 2.77  17 2.82  15 2.84  16 2.85   5 2.93
  19  0.992  0.003  0.242-  10 1.82   8 1.85   7 1.91   2 2.08
  20  0.997  0.514  0.230-   8 1.81   7 1.89   9 1.90   2 1.99
  21  0.497  0.013  0.236-   8 1.83   9 1.86  10 1.90
  22  0.511  0.521  0.234-  10 1.82   9 1.83   7 1.84   2 1.84
  23  0.321  0.153  0.086-   8 1.81   9 1.86   7 1.87   1 1.95
  24  0.347  0.682  0.095-  10 1.85   8 1.88   7 1.90   1 2.09
  25  0.829  0.163  0.089-  10 1.81   9 1.89   1 1.89   7 1.96
  26  0.833  0.667  0.089-   9 1.84  10 1.86   8 1.90
  27  0.339  0.157  0.571-  13 1.86   5 1.92  14 1.96  11 1.98   4 2.01   3 2.32
  28  0.317  0.650  0.572-  12 1.91  14 1.95  13 1.99   3 2.14   4 2.17   6 2.24
  29  0.851  0.167  0.570-  11 1.92  12 1.95  13 2.02   3 2.04   5 2.12   6 2.12
  30  0.843  0.664  0.561-  11 1.86  12 1.92  14 1.94   4 2.18   5 2.24   6 2.24
  31  0.174  0.311  0.410-  11 1.83  14 1.85  12 1.87
  32  0.154  0.821  0.412-  11 1.78  12 1.84  13 1.94   2 2.06
  33  0.686  0.319  0.414-  12 1.78  13 1.84   2 1.94  14 1.95
  34  0.667  0.808  0.412-   2 1.79  14 1.81  11 1.87  13 1.95
  35  0.161  0.337  0.924-  16 1.81  17 1.85  15 1.89
  36  0.190  0.836  0.917-  16 1.72  15 1.83  18 1.92   1 1.93
  37  0.657  0.335  0.919-  17 1.78   1 1.82  15 1.85  18 1.86
  38  0.661  0.836  0.932-   1 1.78  18 1.86  16 1.88  17 1.95
  39  0.996  0.018  0.765-   3 1.83   6 1.90  15 1.92  17 1.93   4 1.93  18 2.01
  40  0.995  0.513  0.765-   3 1.83  18 1.92  17 1.98   4 2.01  16 2.01   5 2.14
  41  0.496  0.985  0.767-   6 1.88  15 1.94  16 1.94  17 1.98   4 1.98   5 2.01
  42  0.487  0.514  0.771-  16 1.77  15 1.96   6 1.98  18 1.99   3 2.02   5 2.13
 

IMPORTANT INFORMATION: All symmetrisations will be switched off!
NOSYMM: (Re-)initialisation of all symmetry stuff for point group C_1.

 
 

Automatic generation of k-mesh.
 generate k-points for:    6    6    2
Space group operators:
 irot       det(A)        alpha          n_x          n_y          n_z        tau_x        tau_y        tau_z
    1     1.000000     0.000000     1.000000     0.000000     0.000000     0.000000     0.000000     0.000000
 
 Subroutine IBZKPT returns following result:
 ===========================================
 
 Found     36 irreducible k-points:
 
 Following reciprocal coordinates:
            Coordinates               Weight
  0.083333  0.083333  0.250000      2.000000
  0.250000  0.083333  0.250000      2.000000
  0.416667  0.083333  0.250000      2.000000
 -0.416667  0.083333  0.250000      2.000000
 -0.250000  0.083333  0.250000      2.000000
 -0.083333  0.083333  0.250000      2.000000
  0.083333  0.250000  0.250000      2.000000
  0.250000  0.250000  0.250000      2.000000
  0.416667  0.250000  0.250000      2.000000
 -0.416667  0.250000  0.250000      2.000000
 -0.250000  0.250000  0.250000      2.000000
 -0.083333  0.250000  0.250000      2.000000
  0.083333  0.416667  0.250000      2.000000
  0.250000  0.416667  0.250000      2.000000
  0.416667  0.416667  0.250000      2.000000
 -0.416667  0.416667  0.250000      2.000000
 -0.250000  0.416667  0.250000      2.000000
 -0.083333  0.416667  0.250000      2.000000
  0.083333 -0.416667  0.250000      2.000000
  0.250000 -0.416667  0.250000      2.000000
  0.416667 -0.416667  0.250000      2.000000
 -0.416667 -0.416667  0.250000      2.000000
 -0.250000 -0.416667  0.250000      2.000000
 -0.083333 -0.416667  0.250000      2.000000
  0.083333 -0.250000  0.250000      2.000000
  0.250000 -0.250000  0.250000      2.000000
  0.416667 -0.250000  0.250000      2.000000
 -0.416667 -0.250000  0.250000      2.000000
 -0.250000 -0.250000  0.250000      2.000000
 -0.083333 -0.250000  0.250000      2.000000
  0.083333 -0.083333  0.250000      2.000000
  0.250000 -0.083333  0.250000      2.000000
  0.416667 -0.083333  0.250000      2.000000
 -0.416667 -0.083333  0.250000      2.000000
 -0.250000 -0.083333  0.250000      2.000000
 -0.083333 -0.083333  0.250000      2.000000
 
 Following cartesian coordinates:
            Coordinates               Weight
  0.014876  0.025977  0.019665      2.000000
  0.044629  0.043423  0.019162      2.000000
  0.074382  0.060869  0.018659      2.000000
 -0.074382 -0.026361  0.021175      2.000000
 -0.044629 -0.008915  0.020671      2.000000
 -0.014876  0.008531  0.020168      2.000000
  0.014876  0.060485  0.020207      2.000000
  0.044629  0.077931  0.019703      2.000000
  0.074382  0.095377  0.019200      2.000000
 -0.074382  0.008147  0.021716      2.000000
 -0.044629  0.025593  0.021213      2.000000
 -0.014876  0.043039  0.020710      2.000000
  0.014876  0.094993  0.020748      2.000000
  0.044629  0.112439  0.020245      2.000000
  0.074382  0.129885  0.019742      2.000000
 -0.074382  0.042655  0.022258      2.000000
 -0.044629  0.060101  0.021755      2.000000
 -0.014876  0.077547  0.021251      2.000000
  0.014876 -0.077547  0.018040      2.000000
  0.044629 -0.060101  0.017537      2.000000
  0.074382 -0.042655  0.017034      2.000000
 -0.074382 -0.129885  0.019550      2.000000
 -0.044629 -0.112439  0.019047      2.000000
 -0.014876 -0.094993  0.018543      2.000000
  0.014876 -0.043039  0.018582      2.000000
  0.044629 -0.025593  0.018079      2.000000
  0.074382 -0.008147  0.017575      2.000000
 -0.074382 -0.095377  0.020091      2.000000
 -0.044629 -0.077931  0.019588      2.000000
 -0.014876 -0.060485  0.019085      2.000000
  0.014876 -0.008531  0.019123      2.000000
  0.044629  0.008915  0.018620      2.000000
  0.074382  0.026361  0.018117      2.000000
 -0.074382 -0.060869  0.020633      2.000000
 -0.044629 -0.043423  0.020130      2.000000
 -0.014876 -0.025977  0.019627      2.000000
 


--------------------------------------------------------------------------------------------------------




 Dimension of arrays:
   k-points           NKPTS =     36   k-points in BZ     NKDIM =     36   number of bands    NBANDS=    160
   number of dos      NEDOS =    301   number of ions     NIONS =     42
   non local maximal  LDIM  =      6   non local SUM 2l+1 LMDIM =     18
   total plane-waves  NPLWV = 103680
   max r-space proj   IRMAX =   2864   max aug-charges    IRDMAX=  12075
   dimension x,y,z NGX =    36 NGY =   36 NGZ =   80
   dimension x,y,z NGXF=    72 NGYF=   72 NGZF=  160
   support grid    NGXF=    72 NGYF=   72 NGZF=  160
   ions per type =               6  12  24
   NGX,Y,Z   is equivalent  to a cutoff of  10.68, 10.69, 10.45 a.u.
   NGXF,Y,Z  is equivalent  to a cutoff of  21.37, 21.38, 20.89 a.u.

 SYSTEM =  LiCoO2                                  
 POSCAR =  Li6 Co12 O24                            

 Startparameter for this run:
   NWRITE =      2    write-flag & timer
   PREC   = normal    normal or accurate (medium, high low for compatibility)
   ISTART =      0    job   : 0-new  1-cont  2-samecut
   ICHARG =      2    charge: 1-file 2-atom 10-const
   ISPIN  =      2    spin polarized calculation?
   LNONCOLLINEAR =      F non collinear calculations
   LSORBIT =      F    spin-orbit coupling
   INIWAV =      1    electr: 0-lowe 1-rand  2-diag
   LASPH  =      F    aspherical Exc in radial PAW
   METAGGA=      F    non-selfconsistent MetaGGA calc.

 Electronic Relaxation 1
   ENCUT  =  600.0 eV  44.10 Ry    6.64 a.u.  11.19 11.18 25.43*2*pi/ulx,y,z
   ENINI  =  600.0     initial cutoff
   ENAUG  =  605.4 eV  augmentation charge cutoff
   NELM   =    600;   NELMIN=  2; NELMDL= -5     # of ELM steps 
   EDIFF  = 0.1E-05   stopping-criterion for ELM
   LREAL  =      T    real-space projection
   NLSPLINE    = F    spline interpolate recip. space projectors
   LCOMPAT=      F    compatible to vasp.4.4
   GGA_COMPAT  = T    GGA compatible to vasp.4.4-vasp.4.6
   LMAXPAW     = -100 max onsite density
   LMAXMIX     =    2 max onsite mixed and CHGCAR
   VOSKOWN=      0    Vosko Wilk Nusair interpolation
   ROPT   =   -0.00050  -0.00050  -0.00050
 Ionic relaxation
   EDIFFG = 0.1E-04   stopping-criterion for IOM
   NSW    =      0    number of steps for IOM
   NBLOCK =      1;   KBLOCK =      1    inner block; outer block 
   IBRION =     -1    ionic relax: 0-MD 1-quasi-New 2-CG
   NFREE  =      0    steps in history (QN), initial steepest desc. (CG)
   ISIF   =      2    stress and relaxation
   IWAVPR =     10    prediction:  0-non 1-charg 2-wave 3-comb
   ISYM   =      0    0-nonsym 1-usesym 2-fastsym
   LCORR  =      T    Harris-Foulkes like correction to forces

   POTIM  = 0.5000    time-step for ionic-motion
   TEIN   =    0.0    initial temperature
   TEBEG  =    0.0;   TEEND  =   0.0 temperature during run
   SMASS  =  -3.00    Nose mass-parameter (am)
   estimated Nose-frequenzy (Omega)   =  0.10E-29 period in steps =****** mass=  -0.717E-27a.u.
   SCALEE = 1.0000    scale energy and forces
   NPACO  =    256;   APACO  = 16.0  distance and # of slots for P.C.
   PSTRESS=    0.0 pullay stress

  Mass of Ions in am
   POMASS =   7.01 58.93 16.00
  Ionic Valenz
   ZVAL   =   1.00  9.00  6.00
  Atomic Wigner-Seitz radii
   RWIGS  =  -1.00 -1.00 -1.00
  virtual crystal weights 
   VCA    =   1.00  1.00  1.00
   NELECT =     258.0000    total number of electrons
   NUPDOWN=       6.0000    fix difference up-down

 DOS related values:
   EMIN   =  10.00;   EMAX   =-10.00  energy-range for DOS
   EFERMI =   0.00
   ISMEAR =     0;   SIGMA  =   0.05  broadening in eV -4-tet -1-fermi 0-gaus

 Electronic relaxation 2 (details)
   IALGO  =     58    algorithm
   LDIAG  =      T    sub-space diagonalisation (order eigenvalues)
   LSUBROT=      F    optimize rotation matrix (better conditioning)
   TURBO    =      0    0=normal 1=particle mesh
   IRESTART =      0    0=no restart 2=restart with 2 vectors
   NREBOOT  =      0    no. of reboots
   NMIN     =      0    reboot dimension
   EREF     =   0.00    reference energy to select bands
   IMIX   =      4    mixing-type and parameters
     AMIX     =   0.40;   BMIX     =  1.00
     AMIX_MAG =   1.60;   BMIX_MAG =  1.00
     AMIN     =   0.10
     WC   =   100.;   INIMIX=   1;  MIXPRE=   1;  MAXMIX= -45

 Intra band minimization:
   WEIMIN = 0.0000     energy-eigenvalue tresh-hold
   EBREAK =  0.16E-08  absolut break condition
   DEPER  =   0.30     relativ break condition  

   TIME   =   0.40     timestep for ELM

  volume/ion in A,a.u.               =       8.20        55.32
  Fermi-wavevector in a.u.,A,eV,Ry     =   1.486989  2.810002 30.084334  2.211136
  Thomas-Fermi vector in A             =   2.600206
 
 Write flags
   LWAVE        =      F    write WAVECAR
   LDOWNSAMPLE  =      F    k-point downsampling of WAVECAR
   LCHARG       =      F    write CHGCAR
   LVTOT        =      F    write LOCPOT, total local potential
   LVHAR        =      F    write LOCPOT, Hartree potential only
   LELF         =      F    write electronic localiz. function (ELF)
   LORBIT       =     11    0 simple, 1 ext, 2 COOP (PROOUT), +10 PAW based schemes


 Dipole corrections
   LMONO  =      F    monopole corrections only (constant potential shift)
   LDIPOL =      F    correct potential (dipole corrections)
   IDIPOL =      0    1-x, 2-y, 3-z, 4-all directions 
   EPSILON=  1.0000000 bulk dielectric constant

 LDA+U is selected, type is set to LDAUTYPE =  2
   angular momentum for each species LDAUL =    -1    2   -1
   U (eV)           for each species LDAUU =   0.0  5.1  0.0
   J (eV)           for each species LDAUJ =   0.0  0.0  0.0
 Exchange correlation treatment:
   GGA     =    --    GGA type
   LEXCH   =     8    internal setting for exchange type
   VOSKOWN=      0    Vosko Wilk Nusair interpolation
   LHFCALC =     F    Hartree Fock is set to
   LHFONE  =     F    Hartree Fock one center treatment
   AEXX    =    0.0000 exact exchange contribution

 Linear response parameters
   LEPSILON=     F    determine dielectric tensor
   LRPA    =     F    only Hartree local field effects (RPA)
   LNABLA  =     F    use nabla operator in PAW spheres
   LVEL    =     F    velocity operator in full k-point grid
   LINTERFAST=   F  fast interpolation
   KINTER  =     0    interpolate to denser k-point grid
   CSHIFT  =0.1000    complex shift for real part using Kramers Kronig
   OMEGAMAX=  -1.0    maximum frequency
   DEG_THRESHOLD= 0.2000000E-02 threshold for treating states as degnerate
   RTIME   =   -0.100 relaxation time in fs
  (WPLASMAI=    0.000 imaginary part of plasma frequency in eV, 0.658/RTIME)
   DFIELD  = 0.0000000 0.0000000 0.0000000 field for delta impulse in time
 
 Orbital magnetization related:
   ORBITALMAG=     F  switch on orbital magnetization
   LCHIMAG   =     F  perturbation theory with respect to B field
   DQ        =  0.001000  dq finite difference perturbation B field
   LLRAUG    =     F  two centre corrections for induced B field



--------------------------------------------------------------------------------------------------------


 Static calculation
 charge density and potential will be updated during run
 spin polarized calculation
 Conjugate gradient for all bands (Freysoldt, et al. PRB 79, 241103 (2009))
 preconditioned conjugated gradient                                        
 perform sub-space diagonalisation
    before iterative eigenvector-optimisation
 modified Broyden-mixing scheme, WC =      100.0
 initial mixing is a Kerker type mixing with AMIX =  0.4000 and BMIX =      1.0000
 Hartree-type preconditioning will be used
 using additional bands           31
 real space projection scheme for non local part
 use partial core corrections
 no Harris-corrections to forces 
 use gradient corrections 
 use of overlap-Matrix (Vanderbilt PP)
 Gauss-broadening in eV      SIGMA  =   0.05


--------------------------------------------------------------------------------------------------------


  energy-cutoff  :      600.00
  volume of cell :      344.29
      direct lattice vectors                 reciprocal lattice vectors
     5.601722717  0.000000000  0.000000000     0.178516512  0.104674967 -0.003019426
    -2.832001448  4.829798698  0.000000000     0.000000000  0.207047967  0.003249749
     0.332352012 -0.199732691 12.725367546     0.000000000  0.000000000  0.078583192

  length of vectors
     5.601722717  5.598855925 12.731273707     0.206964032  0.207073469  0.078583192


 
 k-points in units of 2pi/SCALE and weight: read from INCAR                         
   0.01487638  0.02597691  0.01966499       0.028
   0.04462913  0.04342274  0.01916175       0.028
   0.07438188  0.06086857  0.01865852       0.028
  -0.07438188 -0.02636057  0.02117470       0.028
  -0.04462913 -0.00891474  0.02067147       0.028
  -0.01487638  0.00853108  0.02016823       0.028
   0.01487638  0.06048491  0.02020662       0.028
   0.04462913  0.07793073  0.01970338       0.028
   0.07438188  0.09537656  0.01920014       0.028
  -0.07438188  0.00814742  0.02171633       0.028
  -0.04462913  0.02559325  0.02121309       0.028
  -0.01487638  0.04303908  0.02070985       0.028
   0.01487638  0.09499290  0.02074824       0.028
   0.04462913  0.11243873  0.02024500       0.028
   0.07438188  0.12988456  0.01974177       0.028
  -0.07438188  0.04265542  0.02225795       0.028
  -0.04462913  0.06010124  0.02175472       0.028
  -0.01487638  0.07754707  0.02125148       0.028
   0.01487638 -0.07754707  0.01804012       0.028
   0.04462913 -0.06010124  0.01753688       0.028
   0.07438188 -0.04265542  0.01703364       0.028
  -0.07438188 -0.12988456  0.01954983       0.028
  -0.04462913 -0.11243873  0.01904659       0.028
  -0.01487638 -0.09499290  0.01854335       0.028
   0.01487638 -0.04303908  0.01858174       0.028
   0.04462913 -0.02559325  0.01807850       0.028
   0.07438188 -0.00814742  0.01757527       0.028
  -0.07438188 -0.09537656  0.02009146       0.028
  -0.04462913 -0.07793073  0.01958822       0.028
  -0.01487638 -0.06048491  0.01908498       0.028
   0.01487638 -0.00853108  0.01912337       0.028
   0.04462913  0.00891474  0.01862013       0.028
   0.07438188  0.02636057  0.01811689       0.028
  -0.07438188 -0.06086857  0.02063308       0.028
  -0.04462913 -0.04342274  0.02012984       0.028
  -0.01487638 -0.02597691  0.01962660       0.028
 
 k-points in reciprocal lattice and weights: read from INCAR                         
   0.08333333  0.08333333  0.25000000       0.028
   0.25000000  0.08333333  0.25000000       0.028
   0.41666667  0.08333333  0.25000000       0.028
  -0.41666667  0.08333333  0.25000000       0.028
  -0.25000000  0.08333333  0.25000000       0.028
  -0.08333333  0.08333333  0.25000000       0.028
   0.08333333  0.25000000  0.25000000       0.028
   0.25000000  0.25000000  0.25000000       0.028
   0.41666667  0.25000000  0.25000000       0.028
  -0.41666667  0.25000000  0.25000000       0.028
  -0.25000000  0.25000000  0.25000000       0.028
  -0.08333333  0.25000000  0.25000000       0.028
   0.08333333  0.41666667  0.25000000       0.028
   0.25000000  0.41666667  0.25000000       0.028
   0.41666667  0.41666667  0.25000000       0.028
  -0.41666667  0.41666667  0.25000000       0.028
  -0.25000000  0.41666667  0.25000000       0.028
  -0.08333333  0.41666667  0.25000000       0.028
   0.08333333 -0.41666667  0.25000000       0.028
   0.25000000 -0.41666667  0.25000000       0.028
   0.41666667 -0.41666667  0.25000000       0.028
  -0.41666667 -0.41666667  0.25000000       0.028
  -0.25000000 -0.41666667  0.25000000       0.028
  -0.08333333 -0.41666667  0.25000000       0.028
   0.08333333 -0.25000000  0.25000000       0.028
   0.25000000 -0.25000000  0.25000000       0.028
   0.41666667 -0.25000000  0.25000000       0.028
  -0.41666667 -0.25000000  0.25000000       0.028
  -0.25000000 -0.25000000  0.25000000       0.028
  -0.08333333 -0.25000000  0.25000000       0.028
   0.08333333 -0.08333333  0.25000000       0.028
   0.25000000 -0.08333333  0.25000000       0.028
   0.41666667 -0.08333333  0.25000000       0.028
  -0.41666667 -0.08333333  0.25000000       0.028
  -0.25000000 -0.08333333  0.25000000       0.028
  -0.08333333 -0.08333333  0.25000000       0.028
 
 position of ions in fractional coordinates (direct lattice) 
   0.52547627  0.02603441  0.99748792
   0.79485077  0.63763001  0.32710961
   0.13649643  0.33164966  0.68682337
   0.16589096  0.85609749  0.67799849
   0.63537734  0.30672373  0.66966478
   0.67576940  0.84266313  0.68102633
   0.17832886  0.33937354  0.16590091
   0.16676239  0.84622230  0.16643842
   0.65276874  0.33623528  0.15925669
   0.68029366  0.84741225  0.16427266
   0.00239214  0.98842954  0.48377541
   0.00853482  0.48913936  0.48001441
   0.49817959  0.99494626  0.48805270
   0.49707135  0.49094792  0.48574787
   0.32698366  0.16313534  0.84683608
   0.33303045  0.65942426  0.85447433
   0.83050673  0.18041898  0.85372782
   0.83321017  0.67729531  0.85379070
   0.99236784  0.00303010  0.24209753
   0.99657469  0.51411050  0.23025818
   0.49689429  0.01269005  0.23581716
   0.51084957  0.52141309  0.23386358
   0.32131315  0.15257514  0.08625134
   0.34656982  0.68224787  0.09492614
   0.82915484  0.16302297  0.08941038
   0.83260477  0.66683939  0.08911963
   0.33873954  0.15722253  0.57077880
   0.31713233  0.65048064  0.57151669
   0.85100146  0.16701762  0.57041968
   0.84317121  0.66421930  0.56057635
   0.17418319  0.31055803  0.41021211
   0.15412870  0.82090732  0.41168556
   0.68587749  0.31902848  0.41412008
   0.66709326  0.80828195  0.41234645
   0.16146953  0.33654487  0.92440553
   0.19047324  0.83631050  0.91693223
   0.65672252  0.33542957  0.91941546
   0.66099754  0.83564441  0.93166658
   0.99647979  0.01813000  0.76509383
   0.99535921  0.51271236  0.76496021
   0.49571656  0.98504401  0.76659478
   0.48711104  0.51360523  0.77138048
 
 position of ions in cartesian coordinates  (Angst):
   3.20135999 -0.07349000 12.69340038
   2.75548005  3.01429009  4.16259003
   0.05365000  1.46461999  8.74007988
  -1.26986003  3.99936008  8.62777996
   2.91313004  1.34765995  8.52173042
   1.62539005  3.93387008  8.66631031
   0.09298000  1.60597003  2.11115003
  -1.40702999  4.05384016  2.11799002
   2.75733995  1.59213996  2.02659988
   1.46554005  4.06001997  2.09043002
  -2.62505007  4.67728996  6.15621996
  -1.17789996  2.26657009  6.10835981
   0.13518000  4.70791006  6.21064997
   1.55552995  2.27415991  6.18132019
   1.65111995  0.61877000 10.77630043
   0.28204000  3.01422000 10.87349987
   4.42505980  0.70086998 10.86400032
   3.03307009  3.10067010 10.86480045
   5.63084984 -0.03372000  3.08078003
   4.20310020  2.43706012  2.93011999
   2.82590008  0.01419000  3.00085998
   1.46272004  2.47161007  2.97600007
   1.39647996  0.71968001  1.09757996
   0.04081000  3.27616000  1.20797002
   4.21272993  0.76950997  1.13777995
   2.80515003  3.20289993  1.13408005
   1.64197004  0.64534998  7.26337004
   0.12427000  3.02753997  7.27275991
   4.48366022  0.69273001  7.25880003
   3.02845001  3.09608006  7.13354015
   0.23255999  1.41799998  5.22009993
  -1.32459998  3.88259006  5.23885012
   3.07624006  1.45813000  5.26983023
   1.58485997  3.82148004  5.24726009
   0.25863999  1.44080997 11.76340008
  -0.99671000  3.85607004 11.66829968
   3.03441000  1.43641996 11.69989967
   1.64582002  3.84991002 11.85579968
   5.78493977 -0.06525000  9.73610020
   4.37796021  2.32350993  9.73439980
   0.24200000  4.60445023  9.75520039
   1.53050005  2.32653999  9.81610012
 


--------------------------------------------------------------------------------------------------------


 k-point  1 :   0.0833 0.0833 0.2500  plane waves:   11477
 k-point  2 :   0.2500 0.0833 0.2500  plane waves:   11491
 k-point  3 :   0.4167 0.0833 0.2500  plane waves:   11504
 k-point  4 :  -0.4167 0.0833 0.2500  plane waves:   11493
 k-point  5 :  -0.2500 0.0833 0.2500  plane waves:   11470
 k-point  6 :  -0.0833 0.0833 0.2500  plane waves:   11469
 k-point  7 :   0.0833 0.2500 0.2500  plane waves:   11503
 k-point  8 :   0.2500 0.2500 0.2500  plane waves:   11497
 k-point  9 :   0.4167 0.2500 0.2500  plane waves:   11495
 k-point 10 :  -0.4167 0.2500 0.2500  plane waves:   11479
 k-point 11 :  -0.2500 0.2500 0.2500  plane waves:   11444
 k-point 12 :  -0.0833 0.2500 0.2500  plane waves:   11468
 k-point 13 :   0.0833 0.4167 0.2500  plane waves:   11487
 k-point 14 :   0.2500 0.4167 0.2500  plane waves:   11509
 k-point 15 :   0.4167 0.4167 0.2500  plane waves:   11511
 k-point 16 :  -0.4167 0.4167 0.2500  plane waves:   11483
 k-point 17 :  -0.2500 0.4167 0.2500  plane waves:   11481
 k-point 18 :  -0.0833 0.4167 0.2500  plane waves:   11491
 k-point 19 :   0.0833-0.4167 0.2500  plane waves:   11497
 k-point 20 :   0.2500-0.4167 0.2500  plane waves:   11499
 k-point 21 :   0.4167-0.4167 0.2500  plane waves:   11493
 k-point 22 :  -0.4167-0.4167 0.2500  plane waves:   11509
 k-point 23 :  -0.2500-0.4167 0.2500  plane waves:   11498
 k-point 24 :  -0.0833-0.4167 0.2500  plane waves:   11507
 k-point 25 :   0.0833-0.2500 0.2500  plane waves:   11480
 k-point 26 :   0.2500-0.2500 0.2500  plane waves:   11482
 k-point 27 :   0.4167-0.2500 0.2500  plane waves:   11501
 k-point 28 :  -0.4167-0.2500 0.2500  plane waves:   11504
 k-point 29 :  -0.2500-0.2500 0.2500  plane waves:   11500
 k-point 30 :  -0.0833-0.2500 0.2500  plane waves:   11496
 k-point 31 :   0.0833-0.0833 0.2500  plane waves:   11495
 k-point 32 :   0.2500-0.0833 0.2500  plane waves:   11483
 k-point 33 :   0.4167-0.0833 0.2500  plane waves:   11493
 k-point 34 :  -0.4167-0.0833 0.2500  plane waves:   11487
 k-point 35 :  -0.2500-0.0833 0.2500  plane waves:   11501
 k-point 36 :  -0.0833-0.0833 0.2500  plane waves:   11481

 maximum and minimum number of plane-waves per node :      2901     2839

 maximum number of plane-waves:     11511
 maximum index in each direction: 
   IXMAX=   11   IYMAX=   11   IZMAX=   25
   IXMIN=  -11   IYMIN=  -11   IZMIN=  -25


 real space projection operators:
  total allocation   :       7648.40 KBytes
  max/ min on nodes  :       1921.05       1900.76


 parallel 3D FFT for wavefunctions:
    minimum data exchange during FFTs selected (reduces bandwidth)
 parallel 3D FFT for charge:
    minimum data exchange during FFTs selected (reduces bandwidth)


 total amount of memory used by VASP MPI-rank0   144844. kBytes
=======================================================================

   base      :      30000. kBytes
   nonlr-proj:       4360. kBytes
   fftplans  :       1502. kBytes
   grid      :       4132. kBytes
   one-center:        342. kBytes
   wavefun   :     104508. kBytes
 
     INWAV:  cpu time    0.0000: real time    0.0003
 Broyden mixing: mesh for mixing (old mesh)
   NGX = 23   NGY = 23   NGZ = 51
  (NGX  = 72   NGY  = 72   NGZ  =160)
  gives a total of  26979 points

 initial charge density was supplied:
 charge density of overlapping atoms calculated
 number of electron     258.0000000 magnetization       6.0000000
 keeping initial charge density in first step


--------------------------------------------------------------------------------------------------------


 Maximum index for non-local projection operator          693
 Maximum index for augmentation-charges          959 (set IRDMAX)


--------------------------------------------------------------------------------------------------------


 First call to EWALD:  gamma=   0.253
 Maximum number of real-space cells 4x 4x 2
 Maximum number of reciprocal cells 2x 2x 5

    FEWALD:  cpu time    0.0056: real time    0.0056


--------------------------------------- Iteration      1(   1)  ---------------------------------------


    POTLOK:  cpu time    0.0674: real time    0.0732
    SETDIJ:  cpu time    0.0204: real time    0.0214
    TRIAL :  cpu time   23.1388: real time   23.3339
    CORREC:  cpu time    0.0042: real time    0.0042
    --------------------------------------------
      LOOP:  cpu time   23.4256: real time   23.6287

 eigenvalue-minimisations  : 23040
 total energy-change (2. order) : 0.3547604E+04  (-0.1401628E+05)
 number of electron     258.0000000 magnetization       6.0000000
 augmentation part      258.0000000 magnetization       6.0000000

 Free energy of the ion-electron system (eV)
  ---------------------------------------------------
  alpha Z        PSCENC =       851.51780860
  Ewald energy   TEWEN  =    -15661.64262480
  -Hartree energ DENC   =     -5811.01801463
  -exchange      EXHF   =         0.00000000
  -V(xc)+E(xc)   XCENC  =       848.93447414
  PAW double counting   =     17015.18481625   -17491.61297812
  entropy T*S    EENTRO =        -0.00749707
  eigenvalues    EBANDS =      3627.37718203
  atomic energy  EATOM  =     20168.87094289
  ---------------------------------------------------
  free energy    TOTEN  =      3547.60410929 eV

  energy without entropy =     3547.61160636  energy(sigma->0) =     3547.60785783


--------------------------------------------------------------------------------------------------------




--------------------------------------- Iteration      1(   2)  ---------------------------------------


    TRIAL :  cpu time   22.9822: real time   23.0433
    CORREC:  cpu time    0.0043: real time    0.0043
    --------------------------------------------
      LOOP:  cpu time   22.9909: real time   23.0520

 eigenvalue-minimisations  : 24576
 total energy-change (2. order) :-0.3141116E+04  (-0.2898285E+04)
 number of electron     258.0000000 magnetization       6.0000000
 augmentation part      258.0000000 magnetization       6.0000000

 Free energy of the ion-electron system (eV)
  ---------------------------------------------------
  alpha Z        PSCENC =       851.51780860
  Ewald energy   TEWEN  =    -15661.64262480
  -Hartree energ DENC   =     -5811.01801463
  -exchange      EXHF   =         0.00000000
  -V(xc)+E(xc)   XCENC  =       848.93447414
  PAW double counting   =     17015.18481625   -17491.61297812
  entropy T*S    EENTRO =        -0.02026583
  eigenvalues    EBANDS =       486.27433853
  atomic energy  EATOM  =     20168.87094289
  ---------------------------------------------------
  free energy    TOTEN  =       406.48849703 eV

  energy without entropy =      406.50876286  energy(sigma->0) =      406.49862995


--------------------------------------------------------------------------------------------------------




--------------------------------------- Iteration      1(   3)  ---------------------------------------


    TRIAL :  cpu time   24.2723: real time   24.3385
    CORREC:  cpu time    0.0043: real time    0.0043
    --------------------------------------------
      LOOP:  cpu time   24.2806: real time   24.3468

 eigenvalue-minimisations  : 24832
 total energy-change (2. order) :-0.6265932E+03  (-0.5615953E+03)
 number of electron     258.0000000 magnetization       6.0000000
 augmentation part      258.0000000 magnetization       6.0000000

 Free energy of the ion-electron system (eV)
  ---------------------------------------------------
  alpha Z        PSCENC =       851.51780860
  Ewald energy   TEWEN  =    -15661.64262480
  -Hartree energ DENC   =     -5811.01801463
  -exchange      EXHF   =         0.00000000
  -V(xc)+E(xc)   XCENC  =       848.93447414
  PAW double counting   =     17015.18481625   -17491.61297812
  entropy T*S    EENTRO =        -0.02915950
  eigenvalues    EBANDS =      -140.31001609
  atomic energy  EATOM  =     20168.87094289
  ---------------------------------------------------
  free energy    TOTEN  =      -220.10475126 eV

  energy without entropy =     -220.07559177  energy(sigma->0) =     -220.09017151


--------------------------------------------------------------------------------------------------------




--------------------------------------- Iteration      1(   4)  ---------------------------------------


    TRIAL :  cpu time   24.5848: real time   24.6482
    CORREC:  cpu time    0.0043: real time    0.0043
    --------------------------------------------
      LOOP:  cpu time   24.5935: real time   24.6569

 eigenvalue-minimisations  : 25344
 total energy-change (2. order) :-0.5094006E+02  (-0.4993952E+02)
 number of electron     258.0000000 magnetization       6.0000000
 augmentation part      258.0000000 magnetization       6.0000000

 Free energy of the ion-electron system (eV)
  ---------------------------------------------------
  alpha Z        PSCENC =       851.51780860
  Ewald energy   TEWEN  =    -15661.64262480
  -Hartree energ DENC   =     -5811.01801463
  -exchange      EXHF   =         0.00000000
  -V(xc)+E(xc)   XCENC  =       848.93447414
  PAW double counting   =     17015.18481625   -17491.61297812
  entropy T*S    EENTRO =        -0.03024320
  eigenvalues    EBANDS =      -191.24898873
  atomic energy  EATOM  =     20168.87094289
  ---------------------------------------------------
  free energy    TOTEN  =      -271.04480760 eV

  energy without entropy =     -271.01456440  energy(sigma->0) =     -271.02968600


--------------------------------------------------------------------------------------------------------




--------------------------------------- Iteration      1(   5)  ---------------------------------------


    TRIAL :  cpu time   28.3930: real time   28.5134
    CORREC:  cpu time    0.0050: real time    0.0051
    CHARGE:  cpu time    0.4350: real time    0.4364
    --------------------------------------------
      LOOP:  cpu time   28.8372: real time   28.9591

 eigenvalue-minimisations  : 27760
 total energy-change (2. order) :-0.1599954E+01  (-0.1597516E+01)
 number of electron     257.9999862 magnetization       5.9999989
 augmentation part       68.1637782 magnetization       4.2806103

 Free energy of the ion-electron system (eV)
  ---------------------------------------------------
  alpha Z        PSCENC =       851.51780860
  Ewald energy   TEWEN  =    -15661.64262480
  -Hartree energ DENC   =     -5811.01801463
  -exchange      EXHF   =         0.00000000
  -V(xc)+E(xc)   XCENC  =       848.93447414
  PAW double counting   =     17015.18481625   -17491.61297812
  entropy T*S    EENTRO =        -0.03016522
  eigenvalues    EBANDS =      -192.84902073
  atomic energy  EATOM  =     20168.87094289
  ---------------------------------------------------
  free energy    TOTEN  =      -272.64476163 eV

  energy without entropy =     -272.61459640  energy(sigma->0) =     -272.62967902


--------------------------------------------------------------------------------------------------------




--------------------------------------- Iteration      1(   6)  ---------------------------------------


    POTLOK:  cpu time    0.0469: real time    0.0470
    SETDIJ:  cpu time    0.0128: real time    0.0128
    TRIAL :  cpu time   13.0006: real time   13.0436
    CORREC:  cpu time    4.3585: real time    4.3698
    CHARGE:  cpu time    0.3689: real time    0.3697
    --------------------------------------------
      LOOP:  cpu time   17.7920: real time   17.8471

 eigenvalue-minimisations  :     0
 total energy-change (2. order) : 0.3889427E+03  (-0.3537681E+03)
 number of electron     257.9999858 magnetization       5.9999995
 augmentation part       71.6093363 magnetization       4.4384348

 Free energy of the ion-electron system (eV)
  ---------------------------------------------------
  alpha Z        PSCENC =       851.51780860
  Ewald energy   TEWEN  =    -15661.64262480
  -Hartree energ DENC   =     -5478.81232464
  -exchange      EXHF   =         0.00000000
  -V(xc)+E(xc)   XCENC  =       882.86740691
  PAW double counting   =     24421.58676837   -24633.50479092
  entropy T*S    EENTRO =        -0.05428197
  eigenvalues    EBANDS =      -434.55507772
  atomic energy  EATOM  =     20168.87094289
  ---------------------------------------------------
  free energy    TOTEN  =       116.29794347 eV

  energy without entropy =      116.35222543  energy(sigma->0) =      116.32508445


--------------------------------------------------------------------------------------------------------




--------------------------------------- Iteration      1(   7)  ---------------------------------------


    POTLOK:  cpu time    0.0465: real time    0.0466
    SETDIJ:  cpu time    0.0128: real time    0.0128
    TRIAL :  cpu time   13.0549: real time   13.0903
    CORREC:  cpu time    4.2358: real time    4.2457
    CHARGE:  cpu time    0.3758: real time    0.3763
    --------------------------------------------
      LOOP:  cpu time   17.7304: real time   17.7763

 eigenvalue-minimisations  :     0
 total energy-change (2. order) :-0.1358324E+03  (-0.1632615E+03)
 number of electron     257.9999868 magnetization       5.9999988
 augmentation part       75.2531141 magnetization       4.2560339

 Free energy of the ion-electron system (eV)
  ---------------------------------------------------
  alpha Z        PSCENC =       851.51780860
  Ewald energy   TEWEN  =    -15661.64262480
  -Hartree energ DENC   =     -5751.11328216
  -exchange      EXHF   =         0.00000000
  -V(xc)+E(xc)   XCENC  =       870.97231618
  PAW double counting   =     24558.96566802   -24910.47239730
  entropy T*S    EENTRO =        -0.03179150
  eigenvalues    EBANDS =      -146.57863526
  atomic energy  EATOM  =     20168.87094289
  ---------------------------------------------------
  free energy    TOTEN  =       -19.53448581 eV

  energy without entropy =      -19.50269431  energy(sigma->0) =      -19.51859006


--------------------------------------------------------------------------------------------------------




--------------------------------------- Iteration      1(   8)  ---------------------------------------


    POTLOK:  cpu time    0.0450: real time    0.0450
    SETDIJ:  cpu time    0.0128: real time    0.0128
    TRIAL :  cpu time   13.1602: real time   13.1996
    CORREC:  cpu time    4.3523: real time    4.3627
    CHARGE:  cpu time    0.4277: real time    0.4282
    --------------------------------------------
      LOOP:  cpu time   18.0016: real time   18.0521

 eigenvalue-minimisations  :     0
 total energy-change (2. order) :-0.1177134E+03  (-0.1256438E+03)
 number of electron     257.9999868 magnetization       5.9999989
 augmentation part       77.5147604 magnetization       4.0768211

 Free energy of the ion-electron system (eV)
  ---------------------------------------------------
  alpha Z        PSCENC =       851.51780860
  Ewald energy   TEWEN  =    -15661.64262480
  -Hartree energ DENC   =     -5667.80948048
  -exchange      EXHF   =         0.00000000
  -V(xc)+E(xc)   XCENC  =       859.71050472
  PAW double counting   =     24783.30668335   -25287.16674763
  entropy T*S    EENTRO =        -0.01569127
  eigenvalues    EBANDS =      -184.00316268
  atomic energy  EATOM  =     20168.87094289
  ---------------------------------------------------
  free energy    TOTEN  =      -137.24786755 eV

  energy without entropy =     -137.23217628  energy(sigma->0) =     -137.24002191


--------------------------------------------------------------------------------------------------------




--------------------------------------- Iteration      1(   9)  ---------------------------------------


    POTLOK:  cpu time    0.0453: real time    0.0454
    SETDIJ:  cpu time    0.0128: real time    0.0128
    TRIAL :  cpu time   13.8873: real time   14.2862
    CORREC:  cpu time    4.5712: real time    4.7695
    CHARGE:  cpu time    0.4623: real time    0.4630
    --------------------------------------------
      LOOP:  cpu time   18.9831: real time   19.5817

 eigenvalue-minimisations  :     0
 total energy-change (2. order) :-0.1772846E+02  (-0.5838839E+02)
 number of electron     257.9999866 magnetization       5.9999993
 augmentation part       78.3407501 magnetization       3.9237751

 Free energy of the ion-electron system (eV)
  ---------------------------------------------------
  alpha Z        PSCENC =       851.51780860
  Ewald energy   TEWEN  =    -15661.64262480
  -Hartree energ DENC   =     -5653.71694590
  -exchange      EXHF   =         0.00000000
  -V(xc)+E(xc)   XCENC  =       855.67451349
  PAW double counting   =     25194.44813723   -25794.10600329
  entropy T*S    EENTRO =        -0.02261482
  eigenvalues    EBANDS =      -116.00646681
  atomic energy  EATOM  =     20168.87094289
  ---------------------------------------------------
  free energy    TOTEN  =      -154.97632986 eV

  energy without entropy =     -154.95371504  energy(sigma->0) =     -154.96502245


--------------------------------------------------------------------------------------------------------




--------------------------------------- Iteration      1(  10)  ---------------------------------------


    POTLOK:  cpu time    0.0449: real time    0.0449
    SETDIJ:  cpu time    0.0128: real time    0.0128
    TRIAL :  cpu time   12.7949: real time   12.8291
    CORREC:  cpu time    4.3054: real time    4.3163
    CHARGE:  cpu time    0.3551: real time    0.3556
    --------------------------------------------
      LOOP:  cpu time   17.5173: real time   17.5629

 eigenvalue-minimisations  :     0
 total energy-change (2. order) :-0.3363018E+01  (-0.4676799E+02)
 number of electron     257.9999870 magnetization       5.9999991
 augmentation part       77.7415378 magnetization       3.9018882

 Free energy of the ion-electron system (eV)
  ---------------------------------------------------
  alpha Z        PSCENC =       851.51780860
  Ewald energy   TEWEN  =    -15661.64262480
  -Hartree energ DENC   =     -5880.15480689
  -exchange      EXHF   =         0.00000000
  -V(xc)+E(xc)   XCENC  =       853.14842651
  PAW double counting   =     25479.19408482   -26113.34818490
  entropy T*S    EENTRO =        -0.02068870
  eigenvalues    EBANDS =       144.09762085
  atomic energy  EATOM  =     20168.87094289
  ---------------------------------------------------
  free energy    TOTEN  =      -158.33934773 eV

  energy without entropy =     -158.31865903  energy(sigma->0) =     -158.32900338


--------------------------------------------------------------------------------------------------------




--------------------------------------- Iteration      1(  11)  ---------------------------------------


    POTLOK:  cpu time    0.0463: real time    0.0464
    SETDIJ:  cpu time    0.0128: real time    0.0128
    TRIAL :  cpu time   12.8592: real time   12.8995
    CORREC:  cpu time    4.2856: real time    4.2998
    CHARGE:  cpu time    0.3517: real time    0.3527
    --------------------------------------------
      LOOP:  cpu time   17.5600: real time   17.6154

 eigenvalue-minimisations  :     0
 total energy-change (2. order) : 0.4460024E+01  (-0.5804214E+02)
 number of electron     257.9999873 magnetization       5.9999990
 augmentation part       75.3884372 magnetization       3.8920927

 Free energy of the ion-electron system (eV)
  ---------------------------------------------------
  alpha Z        PSCENC =       851.51780860
  Ewald energy   TEWEN  =    -15661.64262480
  -Hartree energ DENC   =     -5838.82047069
  -exchange      EXHF   =         0.00000000
  -V(xc)+E(xc)   XCENC  =       852.98899060
  PAW double counting   =     25376.62333268   -25978.59902095
  entropy T*S    EENTRO =        -0.01322630
  eigenvalues    EBANDS =        75.20240714
  atomic energy  EATOM  =     20168.87094289
  ---------------------------------------------------
  free energy    TOTEN  =      -153.87932324 eV

  energy without entropy =     -153.86609694  energy(sigma->0) =     -153.87271009


--------------------------------------------------------------------------------------------------------




--------------------------------------- Iteration      1(  12)  ---------------------------------------


    POTLOK:  cpu time    0.0485: real time    0.0485
    SETDIJ:  cpu time    0.0127: real time    0.0127
    TRIAL :  cpu time   13.0982: real time   13.1320
    CORREC:  cpu time    4.4272: real time    4.4361
    CHARGE:  cpu time    0.3502: real time    0.3511
    --------------------------------------------
      LOOP:  cpu time   17.9410: real time   17.9847

 eigenvalue-minimisations  :     0
 total energy-change (2. order) :-0.5112287E+02  (-0.5855081E+01)
 number of electron     257.9999872 magnetization       5.9999990
 augmentation part       75.2310435 magnetization       3.8792665

 Free energy of the ion-electron system (eV)
  ---------------------------------------------------
  alpha Z        PSCENC =       851.51780860
  Ewald energy   TEWEN  =    -15661.64262480
  -Hartree energ DENC   =     -5716.75275146
  -exchange      EXHF   =         0.00000000
  -V(xc)+E(xc)   XCENC  =       852.48699573
  PAW double counting   =     24927.91362610   -25402.27855001
  entropy T*S    EENTRO =        -0.01658295
  eigenvalues    EBANDS =      -225.10440911
  atomic energy  EATOM  =     20168.87094289
  ---------------------------------------------------
  free energy    TOTEN  =      -205.00218836 eV

  energy without entropy =     -204.98560541  energy(sigma->0) =     -204.99389689


--------------------------------------------------------------------------------------------------------




--------------------------------------- Iteration      1(  13)  ---------------------------------------


    POTLOK:  cpu time    0.0438: real time    0.0438
    SETDIJ:  cpu time    0.0126: real time    0.0126
    TRIAL :  cpu time   12.7211: real time   12.7531
    CORREC:  cpu time    4.0334: real time    4.0435
    CHARGE:  cpu time    0.3819: real time    0.3828
    --------------------------------------------
      LOOP:  cpu time   17.1973: real time   17.2404

 eigenvalue-minimisations  :     0
 total energy-change (2. order) :-0.8227410E+01  (-0.1767035E+01)
 number of electron     257.9999871 magnetization       5.9999991
 augmentation part       75.2735979 magnetization       3.8642596

 Free energy of the ion-electron system (eV)
  ---------------------------------------------------
  alpha Z        PSCENC =       851.51780860
  Ewald energy   TEWEN  =    -15661.64262480
  -Hartree energ DENC   =     -5734.98659865
  -exchange      EXHF   =         0.00000000
  -V(xc)+E(xc)   XCENC  =       852.98369092
  PAW double counting   =     24864.50356473   -25327.49102199
  entropy T*S    EENTRO =        -0.01742495
  eigenvalues    EBANDS =      -226.96877707
  atomic energy  EATOM  =     20168.87094289
  ---------------------------------------------------
  free energy    TOTEN  =      -213.22959834 eV

  energy without entropy =     -213.21217339  energy(sigma->0) =     -213.22088586


--------------------------------------------------------------------------------------------------------




--------------------------------------- Iteration      1(  14)  ---------------------------------------


    POTLOK:  cpu time    0.0458: real time    0.0459
    SETDIJ:  cpu time    0.0123: real time    0.0123
    TRIAL :  cpu time   12.3219: real time   12.3532
    CORREC:  cpu time    4.0559: real time    4.0647
    CHARGE:  cpu time    0.3500: real time    0.3510
    --------------------------------------------
      LOOP:  cpu time   16.7882: real time   16.8294

 eigenvalue-minimisations  :     0
 total energy-change (2. order) :-0.1982998E+01  (-0.1859044E+01)
 number of electron     257.9999871 magnetization       5.9999990
 augmentation part       75.4735710 magnetization       3.8315315

 Free energy of the ion-electron system (eV)
  ---------------------------------------------------
  alpha Z        PSCENC =       851.51780860
  Ewald energy   TEWEN  =    -15661.64262480
  -Hartree energ DENC   =     -5742.87349418
  -exchange      EXHF   =         0.00000000
  -V(xc)+E(xc)   XCENC  =       853.88899811
  PAW double counting   =     24794.93225304   -25254.86518515
  entropy T*S    EENTRO =        -0.01690989
  eigenvalues    EBANDS =      -225.02387007
  atomic energy  EATOM  =     20168.87094289
  ---------------------------------------------------
  free energy    TOTEN  =      -215.21259651 eV

  energy without entropy =     -215.19568663  energy(sigma->0) =     -215.20414157


--------------------------------------------------------------------------------------------------------




--------------------------------------- Iteration      1(  15)  ---------------------------------------


    POTLOK:  cpu time    0.2001: real time    0.2004
    SETDIJ:  cpu time    0.0124: real time    0.0124
    TRIAL :  cpu time   12.0060: real time   12.0395
    CORREC:  cpu time    4.3036: real time    4.3130
    CHARGE:  cpu time    0.3417: real time    0.3424
    --------------------------------------------
      LOOP:  cpu time   16.8683: real time   16.9122

 eigenvalue-minimisations  :     0
 total energy-change (2. order) :-0.1725914E+01  (-0.6671221E+00)
 number of electron     257.9999870 magnetization       5.9999990
 augmentation part       75.6766456 magnetization       3.8051338

 Free energy of the ion-electron system (eV)
  ---------------------------------------------------
  alpha Z        PSCENC =       851.51780860
  Ewald energy   TEWEN  =    -15661.64262480
  -Hartree energ DENC   =     -5730.78687720
  -exchange      EXHF   =         0.00000000
  -V(xc)+E(xc)   XCENC  =       855.87318529
  PAW double counting   =     24666.61603290   -25124.89218700
  entropy T*S    EENTRO =        -0.01584592
  eigenvalues    EBANDS =      -242.47788160
  atomic energy  EATOM  =     20168.87094289
  ---------------------------------------------------
  free energy    TOTEN  =      -216.93851081 eV

  energy without entropy =     -216.92266490  energy(sigma->0) =     -216.93058786


--------------------------------------------------------------------------------------------------------




--------------------------------------- Iteration      1(  16)  ---------------------------------------


    POTLOK:  cpu time    0.0426: real time    0.0426
    SETDIJ:  cpu time    0.0125: real time    0.0125
    TRIAL :  cpu time   11.6691: real time   11.6988
    CORREC:  cpu time    4.0875: real time    4.0952
    CHARGE:  cpu time    0.3458: real time    0.3467
    --------------------------------------------
      LOOP:  cpu time   16.1619: real time   16.2003

 eigenvalue-minimisations  :     0
 total energy-change (2. order) :-0.5633668E+00  (-0.5968814E+00)
 number of electron     257.9999870 magnetization       5.9999990
 augmentation part       76.0040351 magnetization       3.7660401

 Free energy of the ion-electron system (eV)
  ---------------------------------------------------
  alpha Z        PSCENC =       851.51780860
  Ewald energy   TEWEN  =    -15661.64262480
  -Hartree energ DENC   =     -5723.27663064
  -exchange      EXHF   =         0.00000000
  -V(xc)+E(xc)   XCENC  =       856.97243218
  PAW double counting   =     24604.03532401   -25064.73690866
  entropy T*S    EENTRO =        -0.01526560
  eigenvalues    EBANDS =      -249.22637527
  atomic energy  EATOM  =     20168.87094289
  ---------------------------------------------------
  free energy    TOTEN  =      -217.50187761 eV

  energy without entropy =     -217.48661201  energy(sigma->0) =     -217.49424481


--------------------------------------------------------------------------------------------------------




--------------------------------------- Iteration      1(  17)  ---------------------------------------


    POTLOK:  cpu time    0.0463: real time    0.0464
    SETDIJ:  cpu time    0.0129: real time    0.0129
    TRIAL :  cpu time   12.7936: real time   12.8268
    CORREC:  cpu time    4.3481: real time    4.3574
    CHARGE:  cpu time    0.3444: real time    0.3449
    --------------------------------------------
      LOOP:  cpu time   17.5498: real time   17.5928

 eigenvalue-minimisations  :     0
 total energy-change (2. order) :-0.5769618E+00  (-0.3216666E+00)
 number of electron     257.9999869 magnetization       5.9999991
 augmentation part       76.1782888 magnetization       3.7430844

 Free energy of the ion-electron system (eV)
  ---------------------------------------------------
  alpha Z        PSCENC =       851.51780860
  Ewald energy   TEWEN  =    -15661.64262480
  -Hartree energ DENC   =     -5736.86516428
  -exchange      EXHF   =         0.00000000
  -V(xc)+E(xc)   XCENC  =       858.10802240
  PAW double counting   =     24547.02861254   -25014.39493386
  entropy T*S    EENTRO =        -0.01598688
  eigenvalues    EBANDS =      -230.68623732
  atomic energy  EATOM  =     20168.87094289
  ---------------------------------------------------
  free energy    TOTEN  =      -218.07883943 eV

  energy without entropy =     -218.06285255  energy(sigma->0) =     -218.07084599


--------------------------------------------------------------------------------------------------------




--------------------------------------- Iteration      1(  18)  ---------------------------------------


    POTLOK:  cpu time    0.0440: real time    0.0440
    SETDIJ:  cpu time    0.0126: real time    0.0126
    TRIAL :  cpu time   13.3397: real time   13.3735
    CORREC:  cpu time    4.4007: real time    4.4103
    CHARGE:  cpu time    0.4913: real time    0.4923
    --------------------------------------------
      LOOP:  cpu time   18.2929: real time   18.3373

 eigenvalue-minimisations  :     0
 total energy-change (2. order) :-0.3408823E+00  (-0.2120688E+00)
 number of electron     257.9999869 magnetization       5.9999991
 augmentation part       76.2574376 magnetization       3.7238509

 Free energy of the ion-electron system (eV)
  ---------------------------------------------------
  alpha Z        PSCENC =       851.51780860
  Ewald energy   TEWEN  =    -15661.64262480
  -Hartree energ DENC   =     -5753.93867177
  -exchange      EXHF   =         0.00000000
  -V(xc)+E(xc)   XCENC  =       858.50617006
  PAW double counting   =     24522.55906407   -24993.86589976
  entropy T*S    EENTRO =        -0.01667112
  eigenvalues    EBANDS =      -210.41052415
  atomic energy  EATOM  =     20168.87094289
  ---------------------------------------------------
  free energy    TOTEN  =      -218.41972175 eV

  energy without entropy =     -218.40305062  energy(sigma->0) =     -218.41138618


--------------------------------------------------------------------------------------------------------




--------------------------------------- Iteration      1(  19)  ---------------------------------------


    POTLOK:  cpu time    0.0457: real time    0.0457
    SETDIJ:  cpu time    0.0128: real time    0.0129
    TRIAL :  cpu time   13.6171: real time   13.6520
    CORREC:  cpu time    4.3773: real time    4.3873
    CHARGE:  cpu time    0.3530: real time    0.3534
    --------------------------------------------
      LOOP:  cpu time   18.4101: real time   18.4555

 eigenvalue-minimisations  :     0
 total energy-change (2. order) :-0.2101446E+00  (-0.1467230E+00)
 number of electron     257.9999870 magnetization       5.9999991
 augmentation part       76.2792659 magnetization       3.7047407

 Free energy of the ion-electron system (eV)
  ---------------------------------------------------
  alpha Z        PSCENC =       851.51780860
  Ewald energy   TEWEN  =    -15661.64262480
  -Hartree energ DENC   =     -5763.26029792
  -exchange      EXHF   =         0.00000000
  -V(xc)+E(xc)   XCENC  =       858.43066082
  PAW double counting   =     24505.63461749   -24978.62385092
  entropy T*S    EENTRO =        -0.01599906
  eigenvalues    EBANDS =      -199.54045141
  atomic energy  EATOM  =     20168.87094289
  ---------------------------------------------------
  free energy    TOTEN  =      -218.62986638 eV

  energy without entropy =     -218.61386732  energy(sigma->0) =     -218.62186685


--------------------------------------------------------------------------------------------------------




--------------------------------------- Iteration      1(  20)  ---------------------------------------


    POTLOK:  cpu time    0.0451: real time    0.0452
    SETDIJ:  cpu time    0.0127: real time    0.0128
    TRIAL :  cpu time   13.1343: real time   13.1691
    CORREC:  cpu time    4.4270: real time    4.4361
    CHARGE:  cpu time    0.3619: real time    0.3623
    --------------------------------------------
      LOOP:  cpu time   17.9859: real time   18.0304

 eigenvalue-minimisations  :     0
 total energy-change (2. order) :-0.1352235E+00  (-0.1412725E+00)
 number of electron     257.9999870 magnetization       5.9999990
 augmentation part       76.2235456 magnetization       3.6827162

 Free energy of the ion-electron system (eV)
  ---------------------------------------------------
  alpha Z        PSCENC =       851.51780860
  Ewald energy   TEWEN  =    -15661.64262480
  -Hartree energ DENC   =     -5761.39358873
  -exchange      EXHF   =         0.00000000
  -V(xc)+E(xc)   XCENC  =       858.16450749
  PAW double counting   =     24489.44228670   -24962.44423938
  entropy T*S    EENTRO =        -0.01533132
  eigenvalues    EBANDS =      -201.26418358
  atomic energy  EATOM  =     20168.87094289
  ---------------------------------------------------
  free energy    TOTEN  =      -218.76508989 eV

  energy without entropy =     -218.74975856  energy(sigma->0) =     -218.75742422


--------------------------------------------------------------------------------------------------------




--------------------------------------- Iteration      1(  21)  ---------------------------------------


    POTLOK:  cpu time    0.0457: real time    0.0458
    SETDIJ:  cpu time    0.0127: real time    0.0127
    TRIAL :  cpu time   12.5131: real time   12.5434
    CORREC:  cpu time    4.4047: real time    4.4133
    CHARGE:  cpu time    0.3998: real time    0.4003
    --------------------------------------------
      LOOP:  cpu time   17.3811: real time   17.4205

 eigenvalue-minimisations  :     0
 total energy-change (2. order) :-0.1331014E+00  (-0.1538996E+00)
 number of electron     257.9999871 magnetization       5.9999990
 augmentation part       76.1181625 magnetization       3.6627247

 Free energy of the ion-electron system (eV)
  ---------------------------------------------------
  alpha Z        PSCENC =       851.51780860
  Ewald energy   TEWEN  =    -15661.64262480
  -Hartree energ DENC   =     -5753.51716396
  -exchange      EXHF   =         0.00000000
  -V(xc)+E(xc)   XCENC  =       857.65347913
  PAW double counting   =     24465.32107618   -24935.53946480
  entropy T*S    EENTRO =        -0.01610354
  eigenvalues    EBANDS =      -211.54691322
  atomic energy  EATOM  =     20168.87094289
  ---------------------------------------------------
  free energy    TOTEN  =      -218.89819131 eV

  energy without entropy =     -218.88208778  energy(sigma->0) =     -218.89013954


--------------------------------------------------------------------------------------------------------




--------------------------------------- Iteration      1(  22)  ---------------------------------------


    POTLOK:  cpu time    0.0453: real time    0.0453
    SETDIJ:  cpu time    0.0127: real time    0.0127
    TRIAL :  cpu time   11.9764: real time   12.0074
    CORREC:  cpu time    4.1828: real time    4.1920
    CHARGE:  cpu time    0.3458: real time    0.3462
    --------------------------------------------
      LOOP:  cpu time   16.5679: real time   16.6085

 eigenvalue-minimisations  :     0
 total energy-change (2. order) :-0.1514705E+00  (-0.1052565E+00)
 number of electron     257.9999870 magnetization       5.9999991
 augmentation part       76.0376953 magnetization       3.6584104

 Free energy of the ion-electron system (eV)
  ---------------------------------------------------
  alpha Z        PSCENC =       851.51780860
  Ewald energy   TEWEN  =    -15661.64262480
  -Hartree energ DENC   =     -5749.17456258
  -exchange      EXHF   =         0.00000000
  -V(xc)+E(xc)   XCENC  =       857.07413272
  PAW double counting   =     24438.36983340   -24903.92135632
  entropy T*S    EENTRO =        -0.01604308
  eigenvalues    EBANDS =      -220.12773215
  atomic energy  EATOM  =     20168.87094289
  ---------------------------------------------------
  free energy    TOTEN  =      -219.04966177 eV

  energy without entropy =     -219.03361868  energy(sigma->0) =     -219.04164023


--------------------------------------------------------------------------------------------------------




--------------------------------------- Iteration      1(  23)  ---------------------------------------


    POTLOK:  cpu time    0.0454: real time    0.0455
    SETDIJ:  cpu time    0.0126: real time    0.0126
    TRIAL :  cpu time   12.3452: real time   12.3777
    CORREC:  cpu time    3.9363: real time    3.9456
    CHARGE:  cpu time    0.3349: real time    0.3357
    --------------------------------------------
      LOOP:  cpu time   16.6792: real time   16.7218

 eigenvalue-minimisations  :     0
 total energy-change (2. order) :-0.1049155E+00  (-0.1100610E+00)
 number of electron     257.9999870 magnetization       5.9999990
 augmentation part       75.9889062 magnetization       3.6649366

 Free energy of the ion-electron system (eV)
  ---------------------------------------------------
  alpha Z        PSCENC =       851.51780860
  Ewald energy   TEWEN  =    -15661.64262480
  -Hartree energ DENC   =     -5747.57795336
  -exchange      EXHF   =         0.00000000
  -V(xc)+E(xc)   XCENC  =       856.83604315
  PAW double counting   =     24422.79534515   -24884.71702988
  entropy T*S    EENTRO =        -0.01474214
  eigenvalues    EBANDS =      -225.22106589
  atomic energy  EATOM  =     20168.87094289
  ---------------------------------------------------
  free energy    TOTEN  =      -219.15457722 eV

  energy without entropy =     -219.13983508  energy(sigma->0) =     -219.14720615


--------------------------------------------------------------------------------------------------------




--------------------------------------- Iteration      1(  24)  ---------------------------------------


    POTLOK:  cpu time    0.0461: real time    0.0461
    SETDIJ:  cpu time    0.0123: real time    0.0123
    TRIAL :  cpu time   13.1224: real time   13.1446
    CORREC:  cpu time    4.3270: real time    4.3301
    CHARGE:  cpu time    0.3403: real time    0.3408
    --------------------------------------------
      LOOP:  cpu time   17.8527: real time   17.8786

 eigenvalue-minimisations  :     0
 total energy-change (2. order) :-0.1078596E+00  (-0.1047629E+00)
 number of electron     257.9999871 magnetization       5.9999990
 augmentation part       76.0206473 magnetization       3.6938696

 Free energy of the ion-electron system (eV)
  ---------------------------------------------------
  alpha Z        PSCENC =       851.51780860
  Ewald energy   TEWEN  =    -15661.64262480
  -Hartree energ DENC   =     -5743.28163947
  -exchange      EXHF   =         0.00000000
  -V(xc)+E(xc)   XCENC  =       856.82924139
  PAW double counting   =     24413.02994551   -24872.37595133
  entropy T*S    EENTRO =        -0.01340741
  eigenvalues    EBANDS =      -232.19541749
  atomic energy  EATOM  =     20168.87094289
  ---------------------------------------------------
  free energy    TOTEN  =      -219.26243684 eV

  energy without entropy =     -219.24902943  energy(sigma->0) =     -219.25573313


--------------------------------------------------------------------------------------------------------




--------------------------------------- Iteration      1(  25)  ---------------------------------------


    POTLOK:  cpu time    0.0433: real time    0.0433
    SETDIJ:  cpu time    0.0125: real time    0.0125
    TRIAL :  cpu time   12.5761: real time   12.6876
    CORREC:  cpu time    4.2569: real time    4.4100
    CHARGE:  cpu time    0.3350: real time    0.3473
    --------------------------------------------
      LOOP:  cpu time   17.2287: real time   17.5056

 eigenvalue-minimisations  :     0
[...]
   20        1.573   3.439   0.000   5.012
   21        1.585   3.385   0.000   4.970
   22        1.574   3.480   0.000   5.054
   23        1.582   3.435   0.000   5.017
   24        1.582   3.406   0.000   4.988
   25        1.580   3.418   0.000   4.999
   26        1.591   3.370   0.000   4.960
   27        1.559   3.476   0.000   5.035
   28        1.564   3.434   0.000   4.998
   29        1.563   3.440   0.000   5.003
   30        1.566   3.452   0.000   5.018
   31        1.587   3.380   0.000   4.967
   32        1.582   3.416   0.000   4.997
   33        1.575   3.440   0.000   5.015
   34        1.577   3.435   0.000   5.012
   35        1.583   3.389   0.000   4.973
   36        1.574   3.476   0.000   5.050
   37        1.569   3.486   0.000   5.055
   38        1.579   3.417   0.000   4.996
   39        1.551   3.528   0.000   5.079
   40        1.557   3.478   0.000   5.035
   41        1.556   3.498   0.000   5.054
   42        1.557   3.510   0.000   5.067
--------------------------------------------------
tot         44.049  93.240  88.151 225.440
 


 magnetization (x)
 
# of ion       s       p       d       tot
------------------------------------------
    1        0.001   0.001   0.000   0.002
    2        0.001   0.001   0.000   0.002
    3        0.000   0.000   0.000   0.001
    4        0.000   0.000   0.000   0.001
    5        0.000  -0.002   0.000  -0.002
    6        0.001  -0.001   0.000   0.000
    7        0.004   0.007   0.012   0.023
    8        0.012   0.018   1.227   1.257
    9        0.013   0.016   1.270   1.298
   10        0.011   0.015   1.202   1.229
   11        0.011   0.010   1.289   1.310
   12        0.011   0.013   1.274   1.297
   13        0.003   0.004   0.001   0.007
   14        0.004   0.005  -0.009  -0.000
   15        0.003   0.003  -0.001   0.005
   16        0.009   0.006   1.135   1.150
   17        0.001   0.001  -0.012  -0.010
   18        0.001   0.002  -0.015  -0.012
   19        0.001  -0.057   0.000  -0.055
   20        0.000  -0.078   0.000  -0.078
   21        0.001  -0.122   0.000  -0.121
   22        0.000  -0.069   0.000  -0.069
   23        0.001  -0.074   0.000  -0.073
   24        0.001  -0.105   0.000  -0.104
   25        0.000  -0.101   0.000  -0.101
   26        0.002  -0.138   0.000  -0.137
   27        0.001  -0.026   0.000  -0.026
   28        0.001  -0.021   0.000  -0.021
   29        0.001  -0.058   0.000  -0.058
   30        0.001  -0.064   0.000  -0.063
   31        0.001  -0.112   0.000  -0.110
   32        0.001  -0.100   0.000  -0.099
   33        0.001  -0.020   0.000  -0.019
   34        0.000  -0.087   0.000  -0.087
   35        0.000  -0.055   0.000  -0.055
   36        0.001   0.011   0.000   0.012
   37       -0.001   0.003   0.000   0.002
   38       -0.000  -0.079   0.000  -0.079
   39       -0.001  -0.007   0.000  -0.007
   40        0.000  -0.025   0.000  -0.025
   41        0.000  -0.019   0.000  -0.018
   42        0.001   0.004   0.000   0.005
--------------------------------------------------
tot          0.100  -1.301   7.372   6.171
 
    FORLOC:  cpu time    0.0086: real time    0.0086
    FORNL :  cpu time    4.0003: real time    4.0018
    STRESS:  cpu time   12.6200: real time   12.6285
    FORCOR:  cpu time    0.0477: real time    0.0477
    OFIELD:  cpu time    0.0004: real time    0.0004

  DFT-D2 method for vdW energy calculation
  -------------------------------------------------------------------

  Parameters of vdW forcefield:
         C6(Jnm^6/mol)     R0(A)
   -----------------------------
   Li       1.610          0.825
   Co      10.800          1.562
   O        0.700          1.342

  IVDW =   1
  VDW_RADIUS =    50.000 A
  VDW_S6 =     0.750
  VDW_SR =     1.000
  VDW_D =    20.000
  LVDW_EWALD = F

  Number of pair interactions contributing to vdW energy: 1372424
  Edisp (eV):  -11.20049
    FORVDW:  cpu time    0.1923: real time    0.1931

  FORCE on cell =-STRESS in cart. coord.  units (eV):
  Direction    XX          YY          ZZ          XY          YZ          ZX
  --------------------------------------------------------------------------------------
  Alpha Z   851.51781   851.51781   851.51781
  Ewald   -3196.30536 -3122.72822 -9342.68598   -90.41768   -14.24529   -54.78349
  Hartree  3342.64236  3384.12050  -980.16939   -29.52769    -5.11898   -20.97871
  E(xc)   -1291.28928 -1291.23361 -1291.58314    -0.00265    -0.02813     0.10437
  Local   -5197.29950 -5310.67636  5212.08550   113.78248    18.92113    74.49194
  n-local  -584.90768  -583.72667  -596.03641    -3.23662    -0.44964    -3.18300
  augment  2016.99901  2016.24315  2004.74309     1.81608     0.54357     0.38746
  Kinetic  4084.44109  4086.52456  4182.66831     6.75648     1.01729    -4.73587
  Fock        0.00000     0.00000     0.00000     0.00000     0.00000     0.00000
  vdW        -7.58324    -7.31524   -14.09068     0.26289    -0.09029    -0.28345
  -------------------------------------------------------------------------------------
  Total      18.21522    22.72592    26.44911    -0.56670     0.54967    -8.98076
  in kB      84.76643   105.75747   123.08373    -2.63722     2.55795   -41.79294
  external pressure =      104.54 kB  Pullay stress =        0.00 kB


 VOLUME and BASIS-vectors are now :
 -----------------------------------------------------------------------------
  energy-cutoff  :      600.00
  volume of cell :      344.29
      direct lattice vectors                 reciprocal lattice vectors
     5.601722717  0.000000000  0.000000000     0.178516512  0.104674967 -0.003019426
    -2.832001448  4.829798698  0.000000000     0.000000000  0.207047967  0.003249749
     0.332352012 -0.199732691 12.725367546     0.000000000  0.000000000  0.078583192

  length of vectors
     5.601722717  5.598855925 12.731273707     0.206964032  0.207073469  0.078583192


 FORCES acting on ions:
    Electron-Ion                     Ewald-Force                    Non-Local-Force
 -----------------------------------------------------------------------------------------------
   0.386E+01 0.480E+00 0.411E+00   -.372E+01 -.410E+00 -.308E+00   -.857E+00 -.382E+00 0.101E+01
   -.456E+01 0.264E+01 -.957E+01   0.417E+01 -.269E+01 0.922E+01   0.127E+01 0.741E-01 -.266E+00
   -.412E+01 -.124E+01 0.241E+02   0.373E+01 0.121E+01 -.236E+02   0.853E+00 0.450E+00 -.156E+01
   0.111E+01 0.246E+01 0.140E+02   -.107E+01 -.251E+01 -.135E+02   0.111E+00 -.498E+00 -.760E+00
   -.124E+01 -.519E+01 0.399E+01   0.123E+01 0.497E+01 -.377E+01   0.370E+00 0.755E+00 0.102E+00
   -.196E+01 0.363E+01 0.215E+02   0.181E+01 -.342E+01 -.206E+02   0.743E-01 -.547E+00 -.151E+01
   0.346E+02 -.197E+01 -.576E+02   -.370E+02 0.276E+01 0.568E+02   -.218E+00 -.527E+00 -.245E+00
   -.263E+01 0.198E+02 -.582E+02   0.321E+01 -.213E+02 0.576E+02   -.136E+00 -.140E-01 -.209E+00
   -.277E+02 0.521E+01 -.306E+02   0.299E+02 -.504E+01 0.302E+02   0.263E+00 -.491E-01 0.149E+00
   0.126E+02 -.141E+02 -.599E+02   -.140E+02 0.143E+02 0.592E+02   -.255E+00 -.386E+00 0.391E+00
   0.240E+02 -.269E+02 -.154E+03   -.248E+02 0.279E+02 0.154E+03   0.147E+00 -.165E+00 0.783E+00
   -.247E+02 0.832E+01 -.113E+03   0.254E+02 -.882E+01 0.114E+03   -.249E+00 0.912E-02 0.740E+00
   -.302E+02 0.253E+02 -.131E+03   0.311E+02 -.259E+02 0.130E+03   0.651E+00 -.866E+00 0.109E+01
   -.119E+00 0.112E+02 -.158E+03   -.119E+00 -.118E+02 0.159E+03   0.111E+01 -.484E+00 0.109E+01
   0.129E+02 -.745E+01 0.212E+03   -.134E+02 0.840E+01 -.210E+03   0.413E+00 0.345E+00 -.222E+01
   0.469E+01 0.924E+01 0.172E+03   -.459E+01 -.932E+01 -.171E+03   -.499E+00 0.460E+00 -.114E+01
   -.105E+02 0.115E+02 0.181E+03   0.120E+02 -.118E+02 -.181E+03   -.317E+00 -.989E+00 -.219E+01
   -.420E+01 -.198E+02 0.171E+03   0.453E+01 0.191E+02 -.170E+03   -.217E+00 0.565E+00 -.265E+01
   0.330E+01 -.286E+02 -.302E+03   -.336E+01 0.336E+02 0.326E+03   0.501E+00 -.460E+01 -.239E+02
   -.145E+02 0.320E+02 -.284E+03   0.177E+02 -.364E+02 0.304E+03   -.347E+01 0.392E+01 -.183E+02
   -.156E+02 -.194E+01 -.319E+03   0.178E+02 0.178E+01 0.345E+03   -.203E+01 0.431E+00 -.247E+02
   0.158E+02 0.121E+02 -.311E+03   -.198E+02 -.131E+02 0.333E+03   0.402E+01 0.209E+00 -.209E+02
   0.208E+02 -.110E+02 0.250E+03   -.260E+02 0.127E+02 -.275E+03   0.546E+01 -.695E+00 0.254E+02
   0.181E+02 0.277E+02 0.224E+03   -.191E+02 -.314E+02 -.246E+03   0.833E+00 0.352E+01 0.222E+02
   -.209E+02 -.393E+02 0.220E+03   0.263E+02 0.441E+02 -.241E+03   -.510E+01 -.408E+01 0.218E+02
   -.202E+02 0.649E+00 0.253E+03   0.217E+02 0.374E+00 -.280E+03   -.127E+01 -.453E+00 0.264E+02
   0.443E+01 -.127E+02 -.327E+03   -.762E+01 0.142E+02 0.342E+03   0.248E+01 -.129E+01 -.152E+02
   -.154E+02 -.121E+02 -.317E+03   0.156E+02 0.122E+02 0.334E+03   0.114E+00 0.537E+00 -.182E+02
   0.165E+02 0.926E+01 -.317E+03   -.165E+02 -.847E+01 0.332E+03   -.751E+00 -.125E+01 -.155E+02
   0.112E+02 0.171E+02 -.351E+03   -.106E+02 -.192E+02 0.368E+03   -.957E+00 0.181E+01 -.157E+02
   -.793E-01 -.129E+02 0.165E+03   0.759E+00 0.131E+02 -.193E+03   -.122E+01 0.370E+00 0.278E+02
   -.470E+02 -.726E+01 0.163E+03   0.527E+02 0.971E+01 -.188E+03   -.423E+01 -.238E+01 0.247E+02
   0.201E+02 0.210E+02 0.157E+03   -.226E+02 -.255E+02 -.181E+03   0.135E+01 0.469E+01 0.229E+02
   0.417E+02 -.227E+02 0.141E+03   -.477E+02 0.273E+02 -.163E+03   0.532E+01 -.320E+01 0.226E+02
   -.596E+01 0.216E+02 -.146E+03   0.767E+01 -.244E+02 0.173E+03   -.169E+01 0.298E+01 -.270E+02
   0.479E+02 0.128E+01 -.135E+03   -.542E+02 -.135E+01 0.158E+03   0.394E+01 0.162E+00 -.220E+02
   0.115E+02 -.248E+02 -.125E+03   -.149E+02 0.297E+02 0.147E+03   0.278E+01 -.411E+01 -.219E+02
   -.263E+02 -.634E+01 -.114E+03   0.305E+02 0.505E+01 0.137E+03   -.407E+01 0.146E+01 -.240E+02
   0.328E+01 0.204E+02 0.350E+03   -.452E+01 -.213E+02 -.361E+03   0.177E+01 -.273E+00 0.116E+02
   0.147E+02 0.294E+00 0.359E+03   -.152E+02 0.109E+01 -.372E+03   0.339E+00 -.175E+01 0.137E+02
   -.584E+01 -.129E+02 0.367E+03   0.724E+01 0.118E+02 -.378E+03   -.149E+01 0.203E+01 0.113E+02
   -.421E+02 0.988E+01 0.383E+03   0.460E+02 -.110E+02 -.398E+03   -.205E+01 0.163E+00 0.140E+02
 -----------------------------------------------------------------------------------------------
   -.307E+01 0.400E+01 0.103E+02   0.284E-13 0.338E-13 0.227E-12   0.309E+01 -.404E+01 -.104E+02
 
 
 POSITION                                       TOTAL-FORCE (eV/Angst)
 -----------------------------------------------------------------------------------
      3.20136     -0.07349     12.69340        -0.672816     -0.317890      1.189723
      2.75548      3.01429      4.16259         0.684506      0.055048     -0.669133
      0.05365      1.46462      8.74008         0.396501      0.249670     -0.791430
     -1.26986      3.99936      8.62778         0.101456     -0.413161     -0.164140
      2.91313      1.34766      8.52173         0.255030      0.381772      0.291924
      1.62539      3.93387      8.66631        -0.053959     -0.238499     -0.325393
      0.09298      1.60597      2.11115        -2.366843      0.307168     -0.938869
     -1.40703      4.05384      2.11799         0.465348     -1.406645     -0.801710
      2.75734      1.59214      2.02660         2.311564      0.162358     -0.154532
      1.46554      4.06002      2.09043        -1.515457     -0.214820     -0.353427
     -2.62505      4.67729      6.15622        -0.619292      0.591507      1.232593
     -1.17790      2.26657      6.10836         0.299293     -0.450360      1.787211
      0.13518      4.70791      6.21065         1.335843     -1.244929      0.258279
      1.55553      2.27416      6.18132         0.766554     -0.931266      1.779452
      1.65112      0.61877     10.77630         0.000581      1.188450     -0.670566
      0.28204      3.01422     10.87350        -0.342199      0.354773     -0.874135
      4.42506      0.70087     10.86400         1.158912     -0.990370     -2.304852
      3.03307      3.10067     10.86480         0.094858     -0.215314     -1.084691
      5.63085     -0.03372      3.08078         0.450406      0.431976     -0.101326
      4.20310      2.43706      2.93012        -0.226124     -0.590903      1.160913
      2.82590      0.01419      3.00086         0.185000      0.276351      0.585273
      1.46272      2.47161      2.97600        -0.116437     -0.915414      1.002301
      1.39648      0.71968      1.09758         0.145267      0.966895      0.514733
      0.04081      3.27616      1.20797        -0.162433     -0.275410     -0.265351
      4.21273      0.76951      1.13778         0.377949      0.799142      0.491281
      2.80515      3.20290      1.13408         0.189671      0.550658     -0.050577
      1.64197      0.64535      7.26337        -0.768139      0.299782     -0.507275
      0.12427      3.02754      7.27276         0.423336      0.663434     -1.170256
      4.48366      0.69273      7.25880        -0.800322     -0.471092     -0.978088
      3.02845      3.09608      7.13354        -0.487722     -0.374667      0.810775
      0.23256      1.41800      5.22010        -0.541136      0.543813      0.127800
     -1.32460      3.88259      5.23885         1.533750      0.124213     -0.433434
      3.07624      1.45813      5.26983        -1.150681      0.150277     -0.370785
      1.58486      3.82148      5.24726        -0.784669      1.439269      0.568038
      0.25864      1.44081     11.76340         0.010137      0.121269      0.049408
     -0.99671      3.85607     11.66830        -2.452693      0.049879      1.257803
      3.03441      1.43642     11.69990        -0.552533      0.845004      0.739240
      1.64582      3.84991     11.85580         0.191214      0.149357     -1.538873
      5.78494     -0.06525      9.73610         0.534350     -1.175792      0.700044
      4.37796      2.32351      9.73440        -0.150881     -0.387628      0.763487
      0.24200      4.60445      9.75520        -0.070586      0.881664      0.080018
      1.53050      2.32654      9.81610         1.923398     -0.969571     -0.841453
 -----------------------------------------------------------------------------------
    total drift:                                0.019024     -0.033859     -0.054406


--------------------------------------------------------------------------------------------------------



  FREE ENERGIE OF THE ION-ELECTRON SYSTEM (eV)
  ---------------------------------------------------
  free  energy   TOTEN  =      -232.71298168 eV

  energy  without entropy=     -232.71157678  energy(sigma->0) =     -232.71227923
 


--------------------------------------------------------------------------------------------------------


    POTLOK:  cpu time    0.0629: real time    0.0629


--------------------------------------------------------------------------------------------------------


     LOOP+:  cpu time 1820.3683: real time 1831.0102
    4ORBIT:  cpu time    0.0000: real time    0.0000
 


 total charge     
 
# of ion       s       p       d       tot
------------------------------------------
    1        0.152   0.365   0.000   0.517
    2        0.138   0.322   0.000   0.460
    3        0.124   0.277   0.000   0.401
    4        0.108   0.236   0.000   0.344
    5        0.097   0.205   0.000   0.302
    6        0.111   0.241   0.000   0.352
    7        0.436   0.687   7.365   8.487
    8        0.502   0.844   7.314   8.660
    9        0.489   0.803   7.288   8.579
   10        0.507   0.855   7.319   8.681
   11        0.485   0.790   7.284   8.560
   12        0.477   0.772   7.272   8.521
   13        0.417   0.641   7.339   8.398
   14        0.442   0.692   7.411   8.546
   15        0.444   0.697   7.425   8.566
   16        0.509   0.849   7.364   8.722
   17        0.448   0.700   7.433   8.581
   18        0.419   0.643   7.337   8.399
   19        1.578   3.434   0.000   5.012
   20        1.573   3.439   0.000   5.012
   21        1.585   3.385   0.000   4.970
   22        1.574   3.480   0.000   5.054
   23        1.582   3.435   0.000   5.017
   24        1.582   3.406   0.000   4.988
   25        1.580   3.418   0.000   4.999
   26        1.591   3.370   0.000   4.960
   27        1.559   3.476   0.000   5.035
   28        1.564   3.434   0.000   4.998
   29        1.563   3.440   0.000   5.003
   30        1.566   3.452   0.000   5.018
   31        1.587   3.380   0.000   4.967
   32        1.582   3.416   0.000   4.997
   33        1.575   3.440   0.000   5.015
   34        1.577   3.435   0.000   5.012
   35        1.583   3.389   0.000   4.973
   36        1.574   3.476   0.000   5.050
   37        1.569   3.486   0.000   5.055
   38        1.579   3.417   0.000   4.996
   39        1.551   3.528   0.000   5.079
   40        1.557   3.478   0.000   5.035
   41        1.556   3.498   0.000   5.054
   42        1.557   3.510   0.000   5.067
--------------------------------------------------
tot         44.049  93.240  88.151 225.440
 


 magnetization (x)
 
# of ion       s       p       d       tot
------------------------------------------
    1        0.001   0.001   0.000   0.002
    2        0.001   0.001   0.000   0.002
    3        0.000   0.000   0.000   0.001
    4        0.000   0.000   0.000   0.001
    5        0.000  -0.002   0.000  -0.002
    6        0.001  -0.001   0.000   0.000
    7        0.004   0.007   0.012   0.023
    8        0.012   0.018   1.227   1.257
    9        0.013   0.016   1.270   1.298
   10        0.011   0.015   1.202   1.229
   11        0.011   0.010   1.289   1.310
   12        0.011   0.013   1.274   1.297
   13        0.003   0.004   0.001   0.007
   14        0.004   0.005  -0.009  -0.000
   15        0.003   0.003  -0.001   0.005
   16        0.009   0.006   1.135   1.150
   17        0.001   0.001  -0.012  -0.010
   18        0.001   0.002  -0.015  -0.012
   19        0.001  -0.057   0.000  -0.055
   20        0.000  -0.078   0.000  -0.078
   21        0.001  -0.122   0.000  -0.121
   22        0.000  -0.069   0.000  -0.069
   23        0.001  -0.074   0.000  -0.073
   24        0.001  -0.105   0.000  -0.104
   25        0.000  -0.101   0.000  -0.101
   26        0.002  -0.138   0.000  -0.137
   27        0.001  -0.026   0.000  -0.026
   28        0.001  -0.021   0.000  -0.021
   29        0.001  -0.058   0.000  -0.058
   30        0.001  -0.064   0.000  -0.063
   31        0.001  -0.112   0.000  -0.110
   32        0.001  -0.100   0.000  -0.099
   33        0.001  -0.020   0.000  -0.019
   34        0.000  -0.087   0.000  -0.087
   35        0.000  -0.055   0.000  -0.055
   36        0.001   0.011   0.000   0.012
   37       -0.001   0.003   0.000   0.002
   38       -0.000  -0.079   0.000  -0.079
   39       -0.001  -0.007   0.000  -0.007
   40        0.000  -0.025   0.000  -0.025
   41        0.000  -0.019   0.000  -0.018
   42        0.001   0.004   0.000   0.005
--------------------------------------------------
tot          0.100  -1.301   7.372   6.171
 

 total amount of memory used by VASP MPI-rank0   144844. kBytes
=======================================================================

   base      :      30000. kBytes
   nonlr-proj:       4360. kBytes
   fftplans  :       1502. kBytes
   grid      :       4132. kBytes
   one-center:        342. kBytes
   wavefun   :     104508. kBytes
 
  
  
 General timing and accounting informations for this job:
 ========================================================
  
                  Total CPU time used (sec):     1845.492
                            User time (sec):     1690.386
                          System time (sec):      155.106
                         Elapsed time (sec):     1856.674
  
                   Maximum memory used (kb):      608700.
                   Average memory used (kb):           0.
  
                          Minor page faults:        66870
                          Major page faults:           62
                 Voluntary context switches:          602
