       N       E                     dE             d eps       ncg     rms          ort
DAV:   1     0.348585134899E+04    0.34859E+04   -0.13940E+05  5760   0.218E+03
DAV:   2     0.411710444605E+03   -0.30741E+04   -0.28324E+04  5760   0.533E+02
DAV:   3    -0.218844659238E+03   -0.63056E+03   -0.57620E+03  5760   0.254E+02
DAV:   4    -0.269396346660E+03   -0.50552E+02   -0.49454E+02  5760   0.740E+01
DAV:   5    -0.271118707203E+03   -0.17224E+01   -0.17194E+01  5760   0.137E+01
SDA:   6     0.770104012052E+02    0.34813E+03   -0.17194E+01  5760   0.339E+04 0.000E+00
CGA:   7     0.360544120235E+02   -0.40956E+02   -0.17194E+03  5760   0.681E+04-0.528E+02
CGA:   8    -0.106907643716E+03   -0.14296E+03   -0.20411E+03  5760   0.228E+04 0.181E+04
CGA:   9    -0.167136099791E+03   -0.60228E+02   -0.97117E+02  5760   0.845E+03-0.262E+03
CGA:  10    -0.176718422636E+03   -0.95823E+01   -0.29481E+02  5760   0.341E+03-0.244E+03
CGA:  11    -0.186455868513E+03   -0.97374E+01   -0.17708E+02  5760   0.620E+03-0.721E+02
CGA:  12    -0.204042829905E+03   -0.17587E+02   -0.29915E+02  5760   0.534E+03-0.142E+03
CGA:  13    -0.206194382864E+03   -0.21516E+01   -0.17792E+02  5760   0.236E+03-0.201E+03
CGA:  14    -0.207095667956E+03   -0.90129E+00   -0.48958E+01  5760   0.145E+03-0.105E+03
CGA:  15    -0.209285179480E+03   -0.21895E+01   -0.27382E+01  5760   0.874E+02-0.114E+02
CGA:  16    -0.212100643593E+03   -0.28155E+01   -0.29714E+01  5760   0.778E+02-0.710E+01
CGA:  17    -0.216106225770E+03   -0.40056E+01   -0.40165E+01  5760   0.469E+02 0.416E+00
CGA:  18    -0.217857043973E+03   -0.17508E+01   -0.20391E+01  5760   0.284E+02-0.638E+01
CGA:  19    -0.218874793221E+03   -0.10177E+01   -0.11196E+01  5760   0.193E+02-0.118E+01
CGA:  20    -0.219669414366E+03   -0.79462E+00   -0.86900E+00  5760   0.937E+01-0.120E+01
CGA:  21    -0.219942084072E+03   -0.27267E+00   -0.30640E+00  5760   0.468E+01-0.860E+00
CGA:  22    -0.220103111899E+03   -0.16103E+00   -0.17106E+00  5760   0.249E+01-0.189E+00
CGA:  23    -0.220223309261E+03   -0.12020E+00   -0.12157E+00  5760   0.244E+01-0.177E-01
CGA:  24    -0.220346006563E+03   -0.12270E+00   -0.12111E+00  5760   0.174E+01 0.971E-02
CGA:  25    -0.220440082516E+03   -0.94076E-01   -0.96048E-01  5760   0.114E+01-0.139E-01
CGA:  26    -0.220488241603E+03   -0.48159E-01   -0.49109E-01  5760   0.697E+00-0.148E-01
CGA:  27    -0.220531317483E+03   -0.43076E-01   -0.43358E-01  5760   0.667E+00-0.226E-02
CGA:  28    -0.220584837077E+03   -0.53520E-01   -0.54247E-01  5760   0.992E+00 0.115E-01
CGA:  29    -0.220652542738E+03   -0.67706E-01   -0.68328E-01  5760   0.104E+01 0.185E-02
CGA:  30    -0.220742744191E+03   -0.90201E-01   -0.90873E-01  5760   0.132E+01 0.232E-01
CGA:  31    -0.220847994335E+03   -0.10525E+00   -0.10917E+00  5760   0.151E+01 0.905E-01
CGA:  32    -0.220979998186E+03   -0.13200E+00   -0.13393E+00  5760   0.129E+01 0.598E-01
CGA:  33    -0.221245453451E+03   -0.26546E+00   -0.29384E+00  5760   0.243E+01-0.248E+00
CGA:  34    -0.221417622937E+03   -0.17217E+00   -0.17008E+00  5760   0.287E+01-0.445E-01
CGA:  35    -0.221636901518E+03   -0.21928E+00   -0.22002E+00  5760   0.268E+01 0.250E-01
CGA:  36    -0.221831733842E+03   -0.19483E+00   -0.19945E+00  5760   0.198E+01 0.469E-01
SDA:  37    -0.221989447940E+03   -0.15771E+00   -0.16114E+00  5760   0.134E+01 0.642E-01
CGA:  38    -0.222324586840E+03   -0.33514E+00   -0.32932E+00  5760   0.969E+00 0.394E-01
CGA:  39    -0.222636956010E+03   -0.31237E+00   -0.31672E+00  5760   0.579E+00-0.256E-01
CGA:  40    -0.222785393900E+03   -0.14844E+00   -0.14421E+00  5760   0.361E+00 0.300E-01
CGA:  41    -0.222914586864E+03   -0.12919E+00   -0.13609E+00  5760   0.325E+00-0.350E-01
CGA:  42    -0.222981738182E+03   -0.67151E-01   -0.66915E-01  5760   0.132E+00 0.189E-02
CGA:  43    -0.223026959775E+03   -0.45222E-01   -0.44369E-01  5760   0.137E+00 0.455E-02
CGA:  44    -0.223067683922E+03   -0.40724E-01   -0.41328E-01  5760   0.130E+00-0.413E-02
CGA:  45    -0.223105970460E+03   -0.38287E-01   -0.37963E-01  5760   0.927E-01 0.207E-02
CGA:  46    -0.223136487643E+03   -0.30517E-01   -0.29978E-01  5760   0.907E-01 0.334E-02
CGA:  47    -0.223160018978E+03   -0.23531E-01   -0.23609E-01  5760   0.456E-01-0.777E-03
CGA:  48    -0.223172860010E+03   -0.12841E-01   -0.12838E-01  5760   0.329E-01 0.972E-05
CGA:  49    -0.223182242014E+03   -0.93820E-02   -0.93310E-02  5760   0.209E-01 0.439E-03
CGA:  50    -0.223188882095E+03   -0.66401E-02   -0.66491E-02  5760   0.180E-01-0.547E-04
CGA:  51    -0.223194501359E+03   -0.56193E-02   -0.56142E-02  5760   0.135E-01 0.342E-04
CGA:  52    -0.223198608755E+03   -0.41074E-02   -0.41040E-02  5760   0.122E-01 0.321E-04
CGA:  53    -0.223202669585E+03   -0.40608E-02   -0.40732E-02  5760   0.105E-01-0.871E-04
CGA:  54    -0.223206187617E+03   -0.35180E-02   -0.35291E-02  5760   0.128E-01-0.874E-04
CGA:  55    -0.223211261956E+03   -0.50743E-02   -0.50979E-02  5760   0.140E-01-0.133E-03
CGA:  56    -0.223217063722E+03   -0.58018E-02   -0.58054E-02  5760   0.226E-01-0.143E-04
CGA:  57    -0.223224917671E+03   -0.78539E-02   -0.78602E-02  5760   0.211E-01-0.583E-04
CGA:  58    -0.223232177623E+03   -0.72600E-02   -0.72809E-02  5760   0.206E-01-0.156E-03
CGA:  59    -0.223238139453E+03   -0.59618E-02   -0.59615E-02  5760   0.168E-01 0.337E-04
CGA:  60    -0.223243937108E+03   -0.57977E-02   -0.58008E-02  5760   0.149E-01-0.228E-04
CGA:  61    -0.223248338092E+03   -0.44010E-02   -0.44040E-02  5760   0.136E-01-0.437E-04
CGA:  62    -0.223253109588E+03   -0.47715E-02   -0.47750E-02  5760   0.126E-01-0.274E-04
CGA:  63    -0.223256509475E+03   -0.33999E-02   -0.34006E-02  5760   0.812E-02-0.571E-04
CGA:  64    -0.223259263026E+03   -0.27536E-02   -0.27586E-02  5760   0.779E-02-0.534E-04
CGA:  65    -0.223261299674E+03   -0.20366E-02   -0.20366E-02  5760   0.457E-02 0.257E-05
CGA:  66    -0.223262830704E+03   -0.15310E-02   -0.15300E-02  5760   0.477E-02 0.117E-04
CGA:  67    -0.223264280413E+03   -0.14497E-02   -0.14496E-02  5760   0.376E-02 0.396E-05
SDA:  68    -0.223265460870E+03   -0.11805E-02   -0.11796E-02  5760   0.313E-02 0.193E-04
CGA:  69    -0.223266250121E+03   -0.78925E-03   -0.78917E-03  5760   0.207E-02-0.397E-05
CGA:  70    -0.223267076886E+03   -0.82676E-03   -0.82671E-03  5760   0.125E-02 0.323E-06
CGA:  71    -0.223267604872E+03   -0.52799E-03   -0.52821E-03  5760   0.140E-02-0.181E-05
CGA:  72    -0.223268074724E+03   -0.46985E-03   -0.47014E-03  5760   0.923E-03-0.536E-05
CGA:  73    -0.223268412988E+03   -0.33826E-03   -0.33791E-03  5760   0.110E-02 0.429E-05
CGA:  74    -0.223268763049E+03   -0.35006E-03   -0.35002E-03  5760   0.970E-03 0.138E-05
CGA:  75    -0.223269155565E+03   -0.39252E-03   -0.39302E-03  5760   0.912E-03-0.434E-05
CGA:  76    -0.223269467741E+03   -0.31218E-03   -0.31209E-03  5760   0.830E-03 0.214E-05
CGA:  77    -0.223269785061E+03   -0.31732E-03   -0.31752E-03  5760   0.987E-03-0.245E-05
CGA:  78    -0.223270080111E+03   -0.29505E-03   -0.29502E-03  5760   0.660E-03-0.564E-05
CGA:  79    -0.223270372858E+03   -0.29275E-03   -0.29231E-03  5760   0.609E-03 0.323E-05
CGA:  80    -0.223270576408E+03   -0.20355E-03   -0.20353E-03  5760   0.345E-03 0.761E-06
CGA:  81    -0.223270740102E+03   -0.16369E-03   -0.16321E-03  5760   0.362E-03 0.286E-05
CGA:  82    -0.223270843965E+03   -0.10386E-03   -0.10396E-03  5760   0.283E-03 0.262E-05
CGA:  83    -0.223270948947E+03   -0.10498E-03   -0.10496E-03  5760   0.249E-03 0.350E-06
CGA:  84    -0.223271047056E+03   -0.98108E-04   -0.98223E-04  5760   0.236E-03-0.160E-05
CGA:  85    -0.223271134037E+03   -0.86981E-04   -0.86974E-04  5760   0.222E-03 0.166E-06
CGA:  86    -0.223271203153E+03   -0.69116E-04   -0.69084E-04  5760   0.199E-03-0.204E-05
CGA:  87    -0.223271276752E+03   -0.73599E-04   -0.73713E-04  5760   0.164E-03-0.239E-05
CGA:  88    -0.223271329954E+03   -0.53202E-04   -0.53201E-04  5760   0.121E-03 0.172E-05
CGA:  89    -0.223271395800E+03   -0.65846E-04   -0.65747E-04  5760   0.109E-03 0.491E-06
CGA:  90    -0.223271430147E+03   -0.34347E-04   -0.34365E-04  5760   0.115E-03 0.686E-06
CGA:  91    -0.223271473547E+03   -0.43400E-04   -0.43347E-04  5760   0.717E-04 0.144E-05
CGA:  92    -0.223271499201E+03   -0.25653E-04   -0.25664E-04  5760   0.693E-04-0.839E-06
CGA:  93    -0.223271528101E+03   -0.28901E-04   -0.29038E-04  5760   0.586E-04-0.164E-05
CGA:  94    -0.223271545726E+03   -0.17624E-04   -0.17626E-04  5760   0.502E-04 0.402E-07
CGA:  95    -0.223271565541E+03   -0.19816E-04   -0.19852E-04  5760   0.615E-04-0.679E-06
CGA:  96    -0.223271583708E+03   -0.18167E-04   -0.18107E-04  5760   0.335E-04-0.127E-05
CGA:  97    -0.223271599026E+03   -0.15318E-04   -0.15229E-04  5760   0.390E-04 0.738E-06
CGA:  98    -0.223271611162E+03   -0.12136E-04   -0.12159E-04  5760   0.276E-04 0.539E-06
SDA:  99    -0.223271621632E+03   -0.10470E-04   -0.10466E-04  5760   0.248E-04 0.117E-06
CGA: 100    -0.223271626234E+03   -0.46018E-05   -0.46522E-05  5760   0.141E-04 0.314E-06
CGA: 101    -0.223271632866E+03   -0.66323E-05   -0.65914E-05  5760   0.152E-04 0.334E-06
CGA: 102    -0.223271638917E+03   -0.60511E-05   -0.60704E-05  5760   0.160E-04-0.436E-06
CGA: 103    -0.223271646214E+03   -0.72970E-05   -0.72176E-05  5760   0.173E-04 0.691E-06
CGA: 104    -0.223271651862E+03   -0.56480E-05   -0.56722E-05  5760   0.152E-04 0.620E-06
CGA: 105    -0.223271657502E+03   -0.56402E-05   -0.56410E-05  5760   0.159E-04-0.115E-06
CGA: 106    -0.223271663809E+03   -0.63061E-05   -0.63093E-05  5760   0.153E-04-0.681E-07
CGA: 107    -0.223271670265E+03   -0.64563E-05   -0.64238E-05  5760   0.103E-04 0.483E-06
CGA: 108    -0.223271675558E+03   -0.52933E-05   -0.54680E-05  5760   0.162E-04-0.113E-05
CGA: 109    -0.223271681243E+03   -0.56845E-05   -0.56908E-05  5760   0.936E-05-0.232E-06
CGA: 110    -0.223271684438E+03   -0.31954E-05   -0.32002E-05  5760   0.110E-04 0.223E-06
CGA: 111    -0.223271688559E+03   -0.41207E-05   -0.41206E-05  5760   0.873E-05-0.277E-06
CGA: 112    -0.223271691056E+03   -0.24977E-05   -0.24958E-05  5760   0.714E-05-0.261E-07
CGA: 113    -0.223271694346E+03   -0.32897E-05   -0.32426E-05  5760   0.709E-05 0.508E-06
CGA: 114    -0.223271696894E+03   -0.25481E-05   -0.25439E-05  5760   0.655E-05-0.118E-06
CGA: 115    -0.223271699993E+03   -0.30993E-05   -0.31200E-05  5760   0.814E-05-0.175E-06
CGA: 116    -0.223271702106E+03   -0.21120E-05   -0.21128E-05  5760   0.582E-05 0.577E-08
CGA: 117    -0.223271705292E+03   -0.31862E-05   -0.32546E-05  5760   0.731E-05-0.355E-06
CGA: 118    -0.223271707456E+03   -0.21643E-05   -0.21422E-05  5760   0.514E-05-0.340E-06
CGA: 119    -0.223271709581E+03   -0.21248E-05   -0.21197E-05  5760   0.505E-05 0.837E-07
CGA: 120    -0.223271711429E+03   -0.18480E-05   -0.18490E-05  5760   0.420E-05 0.589E-07
CGA: 121    -0.223271712775E+03   -0.13468E-05   -0.13532E-05  5760   0.380E-05 0.112E-06
CGA: 122    -0.223271713952E+03   -0.11765E-05   -0.11945E-05  5760   0.262E-05 0.271E-06
CGA: 123    -0.223271715175E+03   -0.12233E-05   -0.12097E-05  5760   0.224E-05 0.221E-06
CGA: 124    -0.223271716032E+03   -0.85621E-06   -0.85469E-06  5760   0.198E-05-0.795E-07
   1 F= -.23242178E+03 E0= -.23242177E+03  d E =-.668575E-05  mag=     6.0000
