 running on   64 total cores
 distrk:  each k-point on   64 cores,    1 groups
 distr:  one band on    4 cores,   16 groups
 using from now: INCAR     
 vasp.5.4.4.18Apr17-6-g9f103f2a35 (build Nov 22 2021 14:44:17) complex          
  
 POSCAR found type information on POSCAR  Li Co O 
 POSCAR found :  3 types and      42 ions
 scaLAPACK will be used
 LDA part: xc-table for Pade appr. of Perdew
 generate k-points for:    6    6    2
 POSCAR, INCAR and KPOINTS ok, starting setup
 FFT: planning ...
 WAVECAR not read
 entering main loop
       N       E                     dE             d eps       ncg     rms          ort
DAV:   1     0.345316496914E+04    0.34532E+04   -0.13907E+05  5760   0.215E+03
DAV:   2     0.409030827148E+03   -0.30441E+04   -0.28055E+04  5760   0.523E+02
DAV:   3    -0.219000890152E+03   -0.62803E+03   -0.57643E+03  5760   0.251E+02
DAV:   4    -0.269270020486E+03   -0.50269E+02   -0.49126E+02  5760   0.732E+01
DAV:   5    -0.271092981211E+03   -0.18230E+01   -0.18195E+01  5760   0.139E+01
 gam= 0.000 g(H,U,f)=  0.183E+04 0.923E+03 0.126E+04 ort(H,U,f) = 0.000E+00 0.000E+00 0.000E+00
SDA:   6     0.106568032034E+03    0.37766E+03   -0.18195E+01  5760   0.402E+04 0.000E+00
 gam= 0.000 trial= 0.400  step= 0.060 mean= 0.400
 gam= 0.763 g(H,U,f)=  0.114E+04 0.105E+04 0.883E+03 ort(H,U,f) = 0.120E+04 0.315E+03-0.443E+03
CGA:   7     0.388609210834E+02   -0.67707E+02   -0.11985E+03  5760   0.307E+04 0.107E+04
 gam= 0.763 trial= 0.383  step= 0.067 mean= 0.383
 gam= 0.525 g(H,U,f)=  0.312E+03 0.710E+03 0.589E+03 ort(H,U,f) = 0.960E+03 0.396E+03-0.370E+03
CGA:   8    -0.126391044188E+03   -0.16525E+03   -0.13000E+03  5760   0.161E+04 0.986E+03
 gam= 0.525 trial= 0.367  step= 0.069 mean= 0.367
 gam= 0.992 g(H,U,f)=  0.102E+03 0.818E+03 0.677E+03 ort(H,U,f) = 0.345E+02-0.388E+02-0.312E+03
CGA:   9    -0.176262045564E+03   -0.49871E+02   -0.73713E+02  5760   0.160E+04-0.316E+03
 gam= 0.992 trial= 0.352  step= 0.035 mean= 0.352
 gam= 0.152 g(H,U,f)=  0.883E+02 0.117E+03 0.367E+02 ort(H,U,f) =-0.173E+03 0.102E+03 0.626E+02
CGA:  10    -0.194251696996E+03   -0.17990E+02   -0.22334E+02  5760   0.242E+03-0.877E+01
 gam= 0.152 trial= 0.336  step= 0.083 mean= 0.336
 gam= 0.000 g(H,U,f)=  0.937E+02 0.307E+03 0.186E+03 ort(H,U,f) = 0.197E+02-0.156E+03-0.776E+02
CGA:  11    -0.193991357391E+03    0.26034E+00   -0.99509E+01  5760   0.586E+03-0.214E+03
 gam= 0.000 trial= 0.324  step= 0.075 mean= 0.324
 gam= 0.000 g(H,U,f)=  0.750E+02 0.291E+03 0.190E+03 ort(H,U,f) = 0.359E+02-0.196E+03-0.136E+03
CGA:  12    -0.195154072651E+03   -0.11627E+01   -0.21897E+02  5760   0.556E+03-0.297E+03
 gam= 0.000 trial= 0.311  step= 0.053 mean= 0.311
 gam= 0.000 g(H,U,f)=  0.427E+02 0.152E+03 0.120E+03 ort(H,U,f) = 0.189E+02-0.230E+03-0.180E+03
CGA:  13    -0.204185606599E+03   -0.90315E+01   -0.14679E+02  5760   0.315E+03-0.391E+03
 gam= 0.000 trial= 0.298  step= 0.083 mean= 0.298
 gam= 0.000 g(H,U,f)=  0.467E+02 0.235E+03 0.143E+03 ort(H,U,f) = 0.797E+01-0.148E+03-0.921E+02
CGA:  14    -0.201188445376E+03    0.29972E+01   -0.13093E+02  5760   0.424E+03-0.233E+03
 gam= 0.000 trial= 0.288  step= 0.061 mean= 0.288
 gam= 0.000 g(H,U,f)=  0.320E+02 0.282E+03 0.145E+03 ort(H,U,f) =-0.301E+01-0.328E+03-0.170E+03
CGA:  15    -0.205714006570E+03   -0.45256E+01   -0.13034E+02  5760   0.460E+03-0.502E+03
 gam= 0.000 trial= 0.276  step= 0.095 mean= 0.276
 gam= 0.000 g(H,U,f)=  0.500E+02 0.330E+03 0.261E+03 ort(H,U,f) =-0.129E+02-0.208E+03-0.159E+03
CGA:  16    -0.198820177965E+03    0.68938E+01   -0.21749E+02  5760   0.641E+03-0.380E+03
 gam= 0.000 trial= 0.267  step= 0.058 mean= 0.267
 gam= 0.000 g(H,U,f)=  0.189E+02 0.153E+03 0.506E+02 ort(H,U,f) =-0.946E+01-0.272E+03-0.951E+02
CGA:  17    -0.210458146766E+03   -0.11638E+02   -0.18586E+02  5760   0.222E+03-0.377E+03
 gam= 0.000 trial= 0.257  step= 0.067 mean= 0.257
 gam= 0.000 g(H,U,f)=  0.186E+02 0.167E+03 0.983E+02 ort(H,U,f) =-0.282E+01-0.149E+03-0.890E+02
CGA:  18    -0.210622857203E+03   -0.16471E+00   -0.74157E+01  5760   0.284E+03-0.241E+03
 gam= 0.000 trial= 0.247  step= 0.046 mean= 0.247
 gam= 0.288 g(H,U,f)=  0.922E+01 0.365E+02 0.360E+02 ort(H,U,f) = 0.841E+00-0.615E+02-0.673E+02
CGA:  19    -0.214428500517E+03   -0.38056E+01   -0.65633E+01  5760   0.817E+02-0.128E+03
 gam= 0.288 trial= 0.237  step= 0.088 mean= 0.237
 gam= 0.223 g(H,U,f)=  0.467E+01 0.913E+01 0.447E+01 ort(H,U,f) = 0.638E+01-0.600E+01-0.547E+01
CGA:  20    -0.216451705080E+03   -0.20232E+01   -0.19765E+01  5760   0.183E+02-0.508E+01
 gam= 0.223 trial= 0.230  step= 0.098 mean= 0.230
 gam= 1.294 g(H,U,f)=  0.370E+01 0.114E+02 0.850E+01 ort(H,U,f) = 0.456E+01-0.305E+01-0.443E+01
CGA:  21    -0.217089480867E+03   -0.63778E+00   -0.84037E+00  5760   0.236E+02-0.292E+01
 gam= 1.294 trial= 0.223  step= 0.213 mean= 0.223
 gam= 0.852 g(H,U,f)=  0.126E+01 0.120E+02 0.683E+01 ort(H,U,f) = 0.246E+01 0.140E+00-0.168E+01
CGA:  22    -0.219190351654E+03   -0.21009E+01   -0.21119E+01  5760   0.201E+02 0.923E+00
 gam= 0.852 trial= 0.223  step= 0.075 mean= 0.223
 gam= 0.353 g(H,U,f)=  0.713E+00 0.427E+01 0.212E+01 ort(H,U,f) = 0.485E+00-0.156E+01-0.263E+01
CGA:  23    -0.219775985627E+03   -0.58563E+00   -0.78582E+00  5760   0.710E+01-0.371E+01
 gam= 0.353 trial= 0.215  step= 0.113 mean= 0.215
 gam= 0.523 g(H,U,f)=  0.517E+00 0.219E+01 0.100E+01 ort(H,U,f) = 0.226E+00 0.122E+00-0.679E+00
CGA:  24    -0.220071223699E+03   -0.29524E+00   -0.32879E+00  5760   0.372E+01-0.331E+00
 gam= 0.523 trial= 0.210  step= 0.133 mean= 0.210
 gam= 0.896 g(H,U,f)=  0.409E+00 0.200E+01 0.920E+00 ort(H,U,f) = 0.279E+00 0.185E+00-0.463E+00
CGA:  25    -0.220293237963E+03   -0.22201E+00   -0.23560E+00  5760   0.333E+01 0.657E-03
 gam= 0.896 trial= 0.206  step= 0.184 mean= 0.206
 gam= 0.966 g(H,U,f)=  0.292E+00 0.209E+01 0.834E+00 ort(H,U,f) = 0.414E-01 0.472E+00-0.408E+00
CGA:  26    -0.220596361311E+03   -0.30312E+00   -0.30636E+00  5760   0.322E+01 0.105E+00
 gam= 0.966 trial= 0.205  step= 0.137 mean= 0.205
 gam= 0.591 g(H,U,f)=  0.193E+00 0.125E+01 0.461E+00 ort(H,U,f) =-0.217E+00 0.445E+00-0.237E+00
CGA:  27    -0.220817978721E+03   -0.22162E+00   -0.22746E+00  5760   0.190E+01-0.865E-02
 gam= 0.591 trial= 0.202  step= 0.177 mean= 0.202
 gam= 0.979 g(H,U,f)=  0.277E+00 0.113E+01 0.451E+00 ort(H,U,f) =-0.174E+00 0.511E+00-0.256E+00
CGA:  28    -0.220983067166E+03   -0.16509E+00   -0.16789E+00  5760   0.186E+01 0.804E-01
 gam= 0.979 trial= 0.201  step= 0.228 mean= 0.201
 gam= 1.157 g(H,U,f)=  0.317E+00 0.130E+01 0.533E+00 ort(H,U,f) =-0.174E+00 0.404E+00-0.580E-01
CGA:  29    -0.221208471528E+03   -0.22540E+00   -0.22154E+00  5760   0.215E+01 0.172E+00
 gam= 1.157 trial= 0.202  step= 0.217 mean= 0.202
 gam= 0.957 g(H,U,f)=  0.425E+00 0.116E+01 0.472E+00 ort(H,U,f) =-0.914E-01 0.636E+00-0.437E+00
CGA:  30    -0.221465694947E+03   -0.25722E+00   -0.25568E+00  5760   0.206E+01 0.108E+00
 gam= 0.957 trial= 0.203  step= 0.298 mean= 0.203
 gam= 0.744 g(H,U,f)=  0.308E+00 0.789E+00 0.436E+00 ort(H,U,f) =-0.200E+00 0.509E+00-0.643E-01
CGA:  31    -0.221807729858E+03   -0.34203E+00   -0.32189E+00  5760   0.153E+01 0.245E+00
 gam= 0.744 trial= 0.207  step= 0.262 mean= 0.207
 gam= 0.929 g(H,U,f)=  0.312E+00 0.707E+00 0.406E+00 ort(H,U,f) = 0.259E-01 0.522E+00-0.198E+00
CGA:  32    -0.222046133235E+03   -0.23840E+00   -0.22466E+00  5760   0.142E+01 0.350E+00
 gam= 0.929 trial= 0.210  step= 0.241 mean= 0.210
 gam= 1.406 g(H,U,f)=  0.316E+00 0.824E+00 0.863E+00 ort(H,U,f) =-0.145E+00 0.365E+00-0.468E+00
CGA:  33    -0.222253825465E+03   -0.20769E+00   -0.21091E+00  5760   0.200E+01-0.248E+00
 gam= 1.406 trial= 0.212  step= 0.277 mean= 0.212
 gam= 0.435 g(H,U,f)=  0.383E+00 0.448E+00 0.406E-01 ort(H,U,f) =-0.322E+00 0.226E+00 0.396E-01
CGA:  34    -0.222480442029E+03   -0.22662E+00   -0.22933E+00  5760   0.871E+00-0.561E-01
 gam= 0.435 trial= 0.215  step= 0.308 mean= 0.215
 gam= 0.832 g(H,U,f)=  0.183E+00 0.339E+00 0.203E+00 ort(H,U,f) =-0.291E-01 0.227E+00-0.910E-01
CGA:  35    -0.222617758214E+03   -0.13732E+00   -0.13049E+00  5760   0.725E+00 0.107E+00
 gam= 0.832 trial= 0.220  step= 0.170 mean= 0.220
 gam= 1.010 g(H,U,f)=  0.189E+00 0.270E+00 0.274E+00 ort(H,U,f) =-0.338E-01 0.163E+00-0.152E+00
CGA:  36    -0.222688307539E+03   -0.70549E-01   -0.69119E-01  5760   0.733E+00-0.222E-01
 gam= 1.010 trial= 0.217  step= 0.330 mean= 0.217
 gam= 0.000 g(H,U,f)=  0.345E+00 0.120E+01 0.275E+01 ort(H,U,f) =-0.870E-01-0.385E+00-0.679E+00
CGA:  37    -0.222744621587E+03   -0.56314E-01   -0.11710E+00  5760   0.429E+01-0.115E+01
 gam= 0.000 trial= 0.223  step= 0.085 mean= 0.223
 gam= 0.293 g(H,U,f)=  0.197E+00 0.381E+00 0.679E+00 ort(H,U,f) =-0.883E-01-0.262E+00-0.126E+01
CGA:  38    -0.222833257576E+03   -0.88636E-01   -0.18183E+00  5760   0.126E+01-0.161E+01
 gam= 0.293 trial= 0.216  step= 0.148 mean= 0.216
 gam= 0.185 g(H,U,f)=  0.374E-01 0.868E-01 0.108E+00 ort(H,U,f) = 0.321E-01 0.839E-01-0.126E+00
CGA:  39    -0.222894169497E+03   -0.60912E-01   -0.58000E-01  5760   0.232E+00-0.101E-01
 gam= 0.185 trial= 0.212  step= 0.274 mean= 0.212
 gam= 1.782 g(H,U,f)=  0.469E-01 0.176E+00 0.191E+00 ort(H,U,f) = 0.162E-01 0.930E-01-0.733E-01
CGA:  40    -0.222927666095E+03   -0.33497E-01   -0.31598E-01  5760   0.414E+00 0.359E-01
 gam= 1.782 trial= 0.216  step= 0.245 mean= 0.216
 gam= 2.861 g(H,U,f)=  0.119E+00 0.323E+00 0.742E+00 ort(H,U,f) =-0.684E-01 0.591E-01-0.177E+00
CGA:  41    -0.222981473277E+03   -0.53807E-01   -0.58498E-01  5760   0.118E+01-0.186E+00
 gam= 2.861 trial= 0.217  step= 0.075 mean= 0.217
 gam= 1.733 g(H,U,f)=  0.251E+00 0.643E+00 0.116E+01 ort(H,U,f) =-0.235E+00 0.170E+00 0.166E+00
CGA:  42    -0.223006739357E+03   -0.25266E-01   -0.24573E-01  5760   0.205E+01 0.100E+00
 gam= 1.733 trial= 0.210  step= 0.068 mean= 0.210
 gam= 0.413 g(H,U,f)=  0.227E+00 0.289E+00 0.331E+00 ort(H,U,f) =-0.488E+00 0.268E+00 0.398E+00
CGA:  43    -0.223081489610E+03   -0.74750E-01   -0.75790E-01  5760   0.847E+00 0.178E+00
 gam= 0.413 trial= 0.203  step= 0.090 mean= 0.203
 gam= 0.366 g(H,U,f)=  0.166E+00 0.127E+00 0.164E-01 ort(H,U,f) =-0.112E+00-0.679E-02 0.406E-01
CGA:  44    -0.223110394572E+03   -0.28905E-01   -0.41333E-01  5760   0.310E+00-0.780E-01
 gam= 0.366 trial= 0.197  step= 0.291 mean= 0.197
 gam= 0.971 g(H,U,f)=  0.111E+00 0.185E+00 0.483E-02 ort(H,U,f) = 0.900E-02 0.373E-01-0.129E-02
CGA:  45    -0.223154759777E+03   -0.44365E-01   -0.40973E-01  5760   0.301E+00 0.450E-01
 gam= 0.971 trial= 0.202  step= 0.240 mean= 0.202
 gam= 0.957 g(H,U,f)=  0.115E+00 0.172E+00 0.728E-03 ort(H,U,f) =-0.107E-01 0.962E-03 0.297E-02
CGA:  46    -0.223194129170E+03   -0.39369E-01   -0.41335E-01  5760   0.288E+00-0.677E-02
 gam= 0.957 trial= 0.204  step= 0.270 mean= 0.204
 gam= 0.566 g(H,U,f)=  0.112E+00 0.511E-01 0.151E-04 ort(H,U,f) =-0.582E-01 0.576E-01-0.118E-03
CGA:  47    -0.223232073884E+03   -0.37945E-01   -0.37965E-01  5760   0.163E+00-0.661E-03
 gam= 0.566 trial= 0.207  step= 0.459 mean= 0.207
 gam= 1.050 g(H,U,f)=  0.828E-01 0.880E-01 0.340E-03 ort(H,U,f) =-0.424E-01 0.338E-01 0.959E-04
CGA:  48    -0.223268283500E+03   -0.36210E-01   -0.37346E-01  5760   0.171E+00-0.847E-02
 gam= 1.050 trial= 0.220  step= 0.249 mean= 0.220
 gam= 0.869 g(H,U,f)=  0.593E-01 0.893E-01 0.781E-04 ort(H,U,f) =-0.339E-01 0.325E-01 0.902E-04
CGA:  49    -0.223287891890E+03   -0.19608E-01   -0.20169E-01  5760   0.149E+00-0.132E-02
 gam= 0.869 trial= 0.221  step= 0.348 mean= 0.221
 gam= 0.570 g(H,U,f)=  0.470E-01 0.376E-01 0.156E-03 ort(H,U,f) =-0.317E-01 0.195E-01-0.311E-03
CGA:  50    -0.223312199066E+03   -0.24307E-01   -0.25699E-01  5760   0.847E-01-0.125E-01
 gam= 0.570 trial= 0.227  step= 0.502 mean= 0.227
 gam= 0.678 g(H,U,f)=  0.338E-01 0.236E-01 0.269E-04 ort(H,U,f) =-0.139E-01 0.137E-01-0.289E-04
CGA:  51    -0.223331583446E+03   -0.19384E-01   -0.19463E-01  5760   0.575E-01-0.291E-03
 gam= 0.678 trial= 0.241  step= 0.580 mean= 0.241
 gam= 0.805 g(H,U,f)=  0.322E-01 0.140E-01 0.190E-05 ort(H,U,f) =-0.838E-02 0.717E-02 0.307E-05
CGA:  52    -0.223347899014E+03   -0.16316E-01   -0.16598E-01  5760   0.463E-01-0.121E-02
 gam= 0.805 trial= 0.258  step= 0.441 mean= 0.258
 gam= 0.519 g(H,U,f)=  0.138E-01 0.102E-01 0.808E-05 ort(H,U,f) =-0.241E-02 0.254E-02 0.642E-05
CGA:  53    -0.223357919757E+03   -0.10021E-01   -0.99920E-02  5760   0.240E-01 0.141E-03
 gam= 0.519 trial= 0.267  step= 0.428 mean= 0.267
 gam= 1.062 g(H,U,f)=  0.937E-02 0.160E-01 0.137E-03 ort(H,U,f) =-0.206E-02 0.292E-02-0.188E-04
CGA:  54    -0.223362962904E+03   -0.50431E-02   -0.51596E-02  5760   0.255E-01 0.849E-03
 gam= 1.062 trial= 0.275  step= 0.323 mean= 0.275
 gam= 0.851 g(H,U,f)=  0.965E-02 0.120E-01 0.988E-04 ort(H,U,f) =-0.669E-02 0.531E-02-0.680E-04
CGA:  55    -0.223367046028E+03   -0.40831E-02   -0.42586E-02  5760   0.217E-01-0.145E-02
 gam= 0.851 trial= 0.278  step= 0.402 mean= 0.278
 gam= 0.847 g(H,U,f)=  0.855E-02 0.971E-02 0.113E-03 ort(H,U,f) =-0.603E-02 0.436E-02-0.692E-04
CGA:  56    -0.223370937631E+03   -0.38916E-02   -0.41128E-02  5760   0.184E-01-0.175E-02
 gam= 0.847 trial= 0.284  step= 0.703 mean= 0.284
 gam= 1.517 g(H,U,f)=  0.153E-01 0.126E-01 0.643E-05 ort(H,U,f) =-0.848E-02 0.615E-02-0.216E-04
CGA:  57    -0.223376029418E+03   -0.50918E-02   -0.59418E-02  5760   0.279E-01-0.235E-02
 gam= 1.517 trial= 0.305  step= 0.411 mean= 0.305
 gam= 1.110 g(H,U,f)=  0.187E-01 0.122E-01 0.388E-04 ort(H,U,f) =-0.900E-02 0.854E-02 0.218E-03
CGA:  58    -0.223380981566E+03   -0.49521E-02   -0.49967E-02  5760   0.309E-01-0.250E-03
 gam= 1.110 trial= 0.310  step= 0.480 mean= 0.310
 gam= 1.388 g(H,U,f)=  0.188E-01 0.234E-01 0.780E-03 ort(H,U,f) =-0.710E-02 0.531E-02-0.163E-02
CGA:  59    -0.223387467370E+03   -0.64858E-02   -0.73594E-02  5760   0.429E-01-0.342E-02
 gam= 1.388 trial= 0.319  step= 0.326 mean= 0.319
 gam= 0.981 g(H,U,f)=  0.211E-01 0.201E-01 0.982E-03 ort(H,U,f) =-0.107E-01 0.775E-02-0.180E-02
CGA:  60    -0.223393676126E+03   -0.62088E-02   -0.62329E-02  5760   0.421E-01-0.472E-02
 gam= 0.981 trial= 0.319  step= 0.463 mean= 0.319
 gam= 0.960 g(H,U,f)=  0.225E-01 0.172E-01 0.757E-03 ort(H,U,f) =-0.124E-01 0.929E-02-0.985E-03
CGA:  61    -0.223402026451E+03   -0.83503E-02   -0.86898E-02  5760   0.405E-01-0.405E-02
 gam= 0.960 trial= 0.326  step= 0.417 mean= 0.326
 gam= 1.182 g(H,U,f)=  0.204E-01 0.274E-01 0.739E-04 ort(H,U,f) =-0.522E-02 0.541E-02-0.939E-04
CGA:  62    -0.223409578538E+03   -0.75521E-02   -0.76290E-02  5760   0.478E-01 0.988E-04
 gam= 1.182 trial= 0.331  step= 0.258 mean= 0.331
 gam= 0.862 g(H,U,f)=  0.166E-01 0.246E-01 0.210E-04 ort(H,U,f) =-0.522E-02 0.585E-02-0.291E-05
CGA:  63    -0.223415941567E+03   -0.63630E-02   -0.61818E-02  5760   0.412E-01 0.625E-03
 gam= 0.862 trial= 0.327  step= 0.355 mean= 0.327
 gam= 0.773 g(H,U,f)=  0.171E-01 0.144E-01 0.387E-03 ort(H,U,f) =-0.989E-02 0.914E-02-0.127E-03
CGA:  64    -0.223423320919E+03   -0.73794E-02   -0.74122E-02  5760   0.319E-01-0.868E-03
 gam= 0.773 trial= 0.329  step= 0.414 mean= 0.329
 gam= 0.860 g(H,U,f)=  0.158E-01 0.114E-01 0.316E-03 ort(H,U,f) =-0.658E-02 0.461E-02 0.277E-03
CGA:  65    -0.223429639167E+03   -0.63182E-02   -0.64555E-02  5760   0.274E-01-0.169E-02
 gam= 0.860 trial= 0.333  step= 0.366 mean= 0.333
 gam= 0.900 g(H,U,f)=  0.119E-01 0.128E-01 0.276E-04 ort(H,U,f) =-0.148E-02 0.319E-02 0.163E-03
CGA:  66    -0.223434381294E+03   -0.47421E-02   -0.47542E-02  5760   0.247E-01 0.188E-02
 gam= 0.900 trial= 0.334  step= 0.248 mean= 0.334
 gam= 0.653 g(H,U,f)=  0.797E-02 0.804E-02 0.117E-03 ort(H,U,f) =-0.442E-03 0.684E-03 0.317E-03
CGA:  67    -0.223437655476E+03   -0.32742E-02   -0.32664E-02  5760   0.161E-01 0.559E-03
 gam= 0.653 trial= 0.330  step= 0.410 mean= 0.330
 gam= 0.000 g(H,U,f)=  0.662E-02 0.755E-02 0.235E-04 ort(H,U,f) =-0.227E-02 0.137E-02 0.112E-03
SDA:  68    -0.223440949615E+03   -0.32941E-02   -0.33783E-02  5760   0.142E-01-0.788E-03
 gam= 0.000 trial= 0.334  step= 0.472 mean= 0.334
 gam= 1.141 g(H,U,f)=  0.444E-02 0.116E-01 0.175E-03 ort(H,U,f) =-0.253E-03 0.751E-03 0.393E-04
CGA:  69    -0.223444264251E+03   -0.33146E-02   -0.33515E-02  5760   0.162E-01 0.537E-03
 gam= 1.141 trial= 0.341  step= 0.330 mean= 0.341
 gam= 1.359 g(H,U,f)=  0.614E-02 0.157E-01 0.128E-03 ort(H,U,f) =-0.199E-02 0.268E-02-0.146E-03
CGA:  70    -0.223447060597E+03   -0.27963E-02   -0.27715E-02  5760   0.220E-01 0.548E-03
 gam= 1.359 trial= 0.340  step= 0.413 mean= 0.340
 gam= 0.555 g(H,U,f)=  0.735E-02 0.468E-02 0.175E-03 ort(H,U,f) =-0.801E-02 0.691E-02 0.115E-03
CGA:  71    -0.223451684018E+03   -0.46234E-02   -0.47009E-02  5760   0.122E-01-0.988E-03
 gam= 0.555 trial= 0.344  step= 0.668 mean= 0.344
 gam= 0.875 g(H,U,f)=  0.538E-02 0.529E-02 0.140E-04 ort(H,U,f) =-0.251E-02 0.283E-02 0.678E-04
CGA:  72    -0.223455615708E+03   -0.39317E-02   -0.38966E-02  5760   0.107E-01 0.386E-03
 gam= 0.875 trial= 0.360  step= 0.366 mean= 0.360
 gam= 0.916 g(H,U,f)=  0.441E-02 0.529E-02 0.781E-04 ort(H,U,f) =-0.537E-03 0.803E-03-0.179E-03
CGA:  73    -0.223457626174E+03   -0.20105E-02   -0.20163E-02  5760   0.978E-02 0.868E-04
 gam= 0.916 trial= 0.361  step= 0.548 mean= 0.361
 gam= 0.686 g(H,U,f)=  0.329E-02 0.325E-02 0.165E-03 ort(H,U,f) =-0.184E-02 0.769E-03 0.125E-03
CGA:  74    -0.223460112994E+03   -0.24868E-02   -0.26997E-02  5760   0.671E-02-0.942E-03
 gam= 0.686 trial= 0.370  step= 0.335 mean= 0.370
 gam= 0.963 g(H,U,f)=  0.225E-02 0.420E-02 0.691E-05 ort(H,U,f) =-0.996E-04 0.538E-03 0.419E-04
CGA:  75    -0.223461158463E+03   -0.10455E-02   -0.10165E-02  5760   0.646E-02 0.480E-03
 gam= 0.963 trial= 0.368  step= 0.276 mean= 0.368
 gam= 0.568 g(H,U,f)=  0.166E-02 0.201E-02 0.143E-05 ort(H,U,f) =-0.690E-03 0.746E-03-0.243E-04
CGA:  76    -0.223462130134E+03   -0.97167E-03   -0.95397E-03  5760   0.367E-02 0.315E-04
 gam= 0.568 trial= 0.364  step= 0.562 mean= 0.364
 gam= 1.062 g(H,U,f)=  0.160E-02 0.229E-02 0.135E-05 ort(H,U,f) =-0.100E-02 0.832E-03 0.165E-06
CGA:  77    -0.223463115493E+03   -0.98536E-03   -0.10365E-02  5760   0.390E-02-0.169E-03
 gam= 1.062 trial= 0.374  step= 0.425 mean= 0.374
 gam= 0.930 g(H,U,f)=  0.160E-02 0.201E-02 0.153E-04 ort(H,U,f) =-0.956E-03 0.104E-02-0.117E-04
CGA:  78    -0.223463895349E+03   -0.77986E-03   -0.79052E-03  5760   0.362E-02 0.671E-04
 gam= 0.930 trial= 0.376  step= 0.413 mean= 0.376
 gam= 1.301 g(H,U,f)=  0.173E-02 0.298E-02 0.102E-04 ort(H,U,f) =-0.678E-03 0.730E-03-0.513E-05
CGA:  79    -0.223464641056E+03   -0.74571E-03   -0.76119E-03  5760   0.472E-02 0.464E-04
 gam= 1.301 trial= 0.378  step= 0.357 mean= 0.378
 gam= 1.023 g(H,U,f)=  0.197E-02 0.284E-02 0.836E-05 ort(H,U,f) =-0.111E-02 0.930E-03-0.285E-05
CGA:  80    -0.223465502834E+03   -0.86178E-03   -0.85147E-03  5760   0.482E-02-0.185E-03
 gam= 1.023 trial= 0.377  step= 0.456 mean= 0.377
 gam= 0.747 g(H,U,f)=  0.193E-02 0.166E-02 0.904E-05 ort(H,U,f) =-0.115E-02 0.119E-02 0.440E-05
CGA:  81    -0.223466559406E+03   -0.10566E-02   -0.10563E-02  5760   0.360E-02 0.390E-04
 gam= 0.747 trial= 0.381  step= 0.591 mean= 0.381
 gam= 1.809 g(H,U,f)=  0.252E-02 0.394E-02 0.521E-04 ort(H,U,f) =-0.838E-03 0.919E-03-0.264E-04
CGA:  82    -0.223467554658E+03   -0.99525E-03   -0.10723E-02  5760   0.652E-02 0.550E-04
 gam= 1.809 trial= 0.391  step= 0.262 mean= 0.391
 gam= 0.831 g(H,U,f)=  0.240E-02 0.298E-02 0.341E-04 ort(H,U,f) =-0.131E-02 0.140E-02 0.705E-04
CGA:  83    -0.223468484402E+03   -0.92974E-03   -0.86511E-03  5760   0.541E-02 0.158E-03
 gam= 0.831 trial= 0.385  step= 0.520 mean= 0.385
 gam= 1.056 g(H,U,f)=  0.276E-02 0.284E-02 0.113E-03 ort(H,U,f) =-0.159E-02 0.159E-02 0.162E-03
CGA:  84    -0.223469932055E+03   -0.14477E-02   -0.14426E-02  5760   0.572E-02 0.159E-03
 gam= 1.056 trial= 0.392  step= 0.310 mean= 0.392
 gam= 1.123 g(H,U,f)=  0.217E-02 0.424E-02 0.124E-04 ort(H,U,f) =-0.902E-03 0.178E-02-0.687E-04
CGA:  85    -0.223470866472E+03   -0.93442E-03   -0.91252E-03  5760   0.642E-02 0.809E-03
 gam= 1.123 trial= 0.388  step= 0.345 mean= 0.388
 gam= 0.855 g(H,U,f)=  0.237E-02 0.301E-02 0.110E-03 ort(H,U,f) =-0.155E-02 0.118E-02-0.264E-03
CGA:  86    -0.223472157661E+03   -0.12912E-02   -0.12652E-02  5760   0.549E-02-0.634E-03
 gam= 0.855 trial= 0.385  step= 0.666 mean= 0.385
 gam= 1.444 g(H,U,f)=  0.325E-02 0.463E-02 0.453E-04 ort(H,U,f) =-0.128E-02 0.893E-03-0.710E-04
CGA:  87    -0.223473696662E+03   -0.15390E-02   -0.16457E-02  5760   0.792E-02-0.457E-03
 gam= 1.444 trial= 0.399  step= 0.328 mean= 0.399
 gam= 0.671 g(H,U,f)=  0.281E-02 0.245E-02 0.563E-04 ort(H,U,f) =-0.165E-02 0.190E-02-0.595E-04
CGA:  88    -0.223474920813E+03   -0.12242E-02   -0.11896E-02  5760   0.531E-02 0.198E-03
 gam= 0.671 trial= 0.396  step= 0.308 mean= 0.396
 gam= 1.140 g(H,U,f)=  0.247E-02 0.358E-02 0.769E-05 ort(H,U,f) =-0.228E-03 0.307E-03-0.126E-05
CGA:  89    -0.223475785718E+03   -0.86490E-03   -0.83744E-03  5760   0.606E-02 0.772E-04
 gam= 1.140 trial= 0.391  step= 0.411 mean= 0.391
 gam= 0.763 g(H,U,f)=  0.212E-02 0.250E-02 0.343E-05 ort(H,U,f) =-0.104E-02 0.857E-03 0.721E-05
CGA:  90    -0.223477041011E+03   -0.12553E-02   -0.12618E-02  5760   0.462E-02-0.172E-03
 gam= 0.763 trial= 0.392  step= 0.422 mean= 0.392
 gam= 0.810 g(H,U,f)=  0.168E-02 0.202E-02 0.429E-04 ort(H,U,f) =-0.767E-03 0.861E-03 0.333E-04
CGA:  91    -0.223477985104E+03   -0.94409E-03   -0.94659E-03  5760   0.374E-02 0.128E-03
 gam= 0.810 trial= 0.394  step= 0.250 mean= 0.394
 gam= 0.916 g(H,U,f)=  0.153E-02 0.189E-02 0.616E-05 ort(H,U,f) =-0.173E-03 0.481E-03 0.838E-05
CGA:  92    -0.223478527129E+03   -0.54202E-03   -0.48075E-03  5760   0.343E-02 0.316E-03
 gam= 0.916 trial= 0.387  step= 0.471 mean= 0.387
 gam= 0.704 g(H,U,f)=  0.136E-02 0.105E-02 0.463E-05 ort(H,U,f) =-0.839E-03 0.890E-03-0.197E-04
CGA:  93    -0.223479402156E+03   -0.87503E-03   -0.87444E-03  5760   0.241E-02 0.312E-04
 gam= 0.704 trial= 0.391  step= 0.355 mean= 0.391
 gam= 0.999 g(H,U,f)=  0.104E-02 0.136E-02 0.895E-05 ort(H,U,f) =-0.255E-03 0.390E-03 0.955E-05
CGA:  94    -0.223479836991E+03   -0.43483E-03   -0.43183E-03  5760   0.241E-02 0.145E-03
 gam= 0.999 trial= 0.389  step= 0.290 mean= 0.389
 gam= 0.816 g(H,U,f)=  0.755E-03 0.121E-02 0.950E-06 ort(H,U,f) =-0.228E-03 0.165E-03-0.401E-05
CGA:  95    -0.223480245147E+03   -0.40816E-03   -0.37061E-03  5760   0.197E-02-0.670E-04
 gam= 0.816 trial= 0.384  step= 0.336 mean= 0.384
 gam= 0.687 g(H,U,f)=  0.608E-03 0.741E-03 0.429E-05 ort(H,U,f) =-0.377E-03 0.437E-03-0.988E-05
CGA:  96    -0.223480568003E+03   -0.32286E-03   -0.32159E-03  5760   0.135E-02 0.504E-04
 gam= 0.687 trial= 0.382  step= 0.392 mean= 0.382
 gam= 1.077 g(H,U,f)=  0.662E-03 0.792E-03 0.261E-05 ort(H,U,f) =-0.270E-03 0.279E-03-0.154E-05
CGA:  97    -0.223480839958E+03   -0.27196E-03   -0.27222E-03  5760   0.146E-02 0.729E-05
 gam= 1.077 trial= 0.382  step= 0.291 mean= 0.382
 gam= 0.990 g(H,U,f)=  0.561E-03 0.875E-03 0.682E-05 ort(H,U,f) =-0.130E-03 0.197E-03-0.277E-05
CGA:  98    -0.223481067329E+03   -0.22737E-03   -0.21326E-03  5760   0.144E-02 0.642E-04
 gam= 0.990 trial= 0.378  step= 0.390 mean= 0.378
 gam= 0.000 g(H,U,f)=  0.495E-03 0.617E-03 0.872E-06 ort(H,U,f) =-0.276E-03 0.270E-03-0.382E-06
SDA:  99    -0.223481360607E+03   -0.29328E-03   -0.29404E-03  5760   0.111E-02-0.711E-05
 gam= 0.000 trial= 0.378  step= 0.306 mean= 0.378
 gam= 0.667 g(H,U,f)=  0.212E-03 0.530E-03 0.102E-05 ort(H,U,f) = 0.100E-03-0.578E-04-0.332E-06
CGA: 100    -0.223481536030E+03   -0.17542E-03   -0.17026E-03  5760   0.743E-03 0.422E-04
 gam= 0.667 trial= 0.375  step= 0.476 mean= 0.375
 gam= 0.879 g(H,U,f)=  0.230E-03 0.418E-03 0.454E-05 ort(H,U,f) =-0.146E-03 0.106E-03-0.178E-05
CGA: 101    -0.223481713847E+03   -0.17782E-03   -0.18345E-03  5760   0.653E-03-0.417E-04
 gam= 0.879 trial= 0.380  step= 0.821 mean= 0.380
 gam= 1.209 g(H,U,f)=  0.407E-03 0.381E-03 0.128E-05 ort(H,U,f) =-0.264E-03 0.232E-03-0.906E-06
CGA: 102    -0.223481947797E+03   -0.23395E-03   -0.25295E-03  5760   0.789E-03-0.330E-04
 gam= 1.209 trial= 0.402  step= 0.541 mean= 0.402
 gam= 1.210 g(H,U,f)=  0.428E-03 0.524E-03 0.339E-05 ort(H,U,f) =-0.193E-03 0.204E-03 0.389E-05
CGA: 103    -0.223482145113E+03   -0.19732E-03   -0.20292E-03  5760   0.955E-03 0.148E-04
 gam= 1.210 trial= 0.409  step= 0.315 mean= 0.409
 gam= 1.138 g(H,U,f)=  0.365E-03 0.719E-03 0.312E-05 ort(H,U,f) =-0.701E-04 0.130E-03-0.773E-05
CGA: 104    -0.223482311393E+03   -0.16628E-03   -0.15348E-03  5760   0.109E-02 0.524E-04
 gam= 1.138 trial= 0.404  step= 0.480 mean= 0.404
 gam= 0.715 g(H,U,f)=  0.333E-03 0.435E-03 0.954E-05 ort(H,U,f) =-0.227E-03 0.213E-03-0.987E-05
CGA: 105    -0.223482585543E+03   -0.27415E-03   -0.27532E-03  5760   0.777E-03-0.244E-04
 gam= 0.715 trial= 0.408  step= 0.443 mean= 0.408
 gam= 0.995 g(H,U,f)=  0.299E-03 0.474E-03 0.792E-07 ort(H,U,f) =-0.904E-04 0.117E-03 0.186E-06
CGA: 106    -0.223482752448E+03   -0.16691E-03   -0.16834E-03  5760   0.773E-03 0.267E-04
 gam= 0.995 trial= 0.410  step= 0.467 mean= 0.410
 gam= 1.024 g(H,U,f)=  0.319E-03 0.470E-03 0.231E-05 ort(H,U,f) =-0.130E-03 0.120E-03 0.871E-06
CGA: 107    -0.223482934882E+03   -0.18243E-03   -0.18682E-03  5760   0.792E-03-0.988E-05
 gam= 1.024 trial= 0.413  step= 0.434 mean= 0.413
 gam= 1.203 g(H,U,f)=  0.283E-03 0.666E-03 0.447E-05 ort(H,U,f) =-0.115E-03 0.121E-03-0.467E-05
CGA: 108    -0.223483102127E+03   -0.16725E-03   -0.16947E-03  5760   0.953E-03 0.988E-06
 gam= 1.203 trial= 0.414  step= 0.233 mean= 0.414
 gam= 0.470 g(H,U,f)=  0.231E-03 0.216E-03 0.349E-06 ort(H,U,f) =-0.161E-03 0.178E-03-0.446E-06
CGA: 109    -0.223483226455E+03   -0.12433E-03   -0.11094E-03  5760   0.448E-03 0.168E-04
 gam= 0.470 trial= 0.405  step= 0.516 mean= 0.405
 gam= 0.838 g(H,U,f)=  0.163E-03 0.195E-03 0.171E-04 ort(H,U,f) =-0.334E-04 0.464E-04-0.960E-06
CGA: 110    -0.223483343345E+03   -0.11689E-03   -0.11756E-03  5760   0.375E-03 0.120E-04
 gam= 0.838 trial= 0.410  step= 0.257 mean= 0.410
 gam= 0.869 g(H,U,f)=  0.120E-03 0.201E-03 0.517E-05 ort(H,U,f) = 0.170E-04 0.331E-04 0.846E-05
CGA: 111    -0.223483399935E+03   -0.56590E-04   -0.49398E-04  5760   0.326E-03 0.585E-04
 gam= 0.869 trial= 0.402  step= 0.353 mean= 0.402
 gam= 0.739 g(H,U,f)=  0.724E-04 0.169E-03 0.494E-08 ort(H,U,f) =-0.192E-04 0.375E-04 0.200E-06
CGA: 112    -0.223483466284E+03   -0.66349E-04   -0.66603E-04  5760   0.241E-03 0.186E-04
 gam= 0.739 trial= 0.400  step= 0.272 mean= 0.400
 gam= 0.474 g(H,U,f)=  0.488E-04 0.654E-04 0.115E-06 ort(H,U,f) =-0.268E-04 0.331E-04 0.343E-06
CGA: 113    -0.223483503674E+03   -0.37390E-04   -0.34587E-04  5760   0.114E-03 0.662E-05
 gam= 0.474 trial= 0.394  step= 0.409 mean= 0.394
 gam= 1.546 g(H,U,f)=  0.486E-04 0.128E-03 0.617E-06 ort(H,U,f) =-0.261E-05 0.104E-04-0.154E-05
CGA: 114    -0.223483527486E+03   -0.23812E-04   -0.24008E-04  5760   0.177E-03 0.627E-05
 gam= 1.546 trial= 0.394  step= 0.279 mean= 0.394
 gam= 0.698 g(H,U,f)=  0.447E-04 0.785E-04 0.245E-06 ort(H,U,f) =-0.240E-04 0.250E-04-0.111E-05
CGA: 115    -0.223483554719E+03   -0.27233E-04   -0.26055E-04  5760   0.123E-03-0.112E-06
 gam= 0.698 trial= 0.389  step= 0.387 mean= 0.389
 gam= 0.719 g(H,U,f)=  0.355E-04 0.532E-04 0.925E-07 ort(H,U,f) =-0.270E-04 0.317E-04 0.175E-06
CGA: 116    -0.223483578561E+03   -0.23842E-04   -0.23841E-04  5760   0.888E-04 0.493E-05
 gam= 0.719 trial= 0.389  step= 0.214 mean= 0.389
 gam= 0.798 g(H,U,f)=  0.320E-04 0.386E-04 0.288E-06 ort(H,U,f) =-0.340E-05 0.152E-04-0.542E-06
CGA: 117    -0.223483590406E+03   -0.11845E-04   -0.98761E-05  5760   0.709E-04 0.113E-04
 gam= 0.798 trial= 0.380  step= 0.491 mean= 0.380
 gam= 1.221 g(H,U,f)=  0.277E-04 0.580E-04 0.935E-06 ort(H,U,f) =-0.636E-05 0.122E-04-0.247E-06
CGA: 118    -0.223483610005E+03   -0.19600E-04   -0.19606E-04  5760   0.865E-04 0.562E-05
 gam= 1.221 trial= 0.385  step= 0.279 mean= 0.385
 gam= 0.817 g(H,U,f)=  0.271E-04 0.436E-04 0.713E-07 ort(H,U,f) =-0.164E-04 0.215E-04-0.113E-06
CGA: 119    -0.223483624321E+03   -0.14316E-04   -0.13028E-04  5760   0.707E-04 0.500E-05
 gam= 0.817 trial= 0.380  step= 0.276 mean= 0.380
 gam= 1.001 g(H,U,f)=  0.256E-04 0.452E-04 0.485E-07 ort(H,U,f) =-0.112E-04 0.132E-04-0.907E-07
CGA: 120    -0.223483635179E+03   -0.10858E-04   -0.10329E-04  5760   0.708E-04 0.196E-05
 gam= 1.001 trial= 0.375  step= 0.383 mean= 0.375
 gam= 1.077 g(H,U,f)=  0.304E-04 0.454E-04 0.458E-06 ort(H,U,f) =-0.185E-04 0.208E-04 0.473E-07
CGA: 121    -0.223483649068E+03   -0.13889E-04   -0.13927E-04  5760   0.763E-04 0.233E-05
 gam= 1.077 trial= 0.375  step= 0.311 mean= 0.375
 gam= 1.517 g(H,U,f)=  0.340E-04 0.816E-04 0.913E-07 ort(H,U,f) =-0.168E-04 0.200E-04 0.141E-06
CGA: 122    -0.223483662045E+03   -0.12977E-04   -0.12250E-04  5760   0.116E-03 0.327E-05
 gam= 1.517 trial= 0.372  step= 0.327 mean= 0.372
 gam= 0.845 g(H,U,f)=  0.456E-04 0.522E-04 0.402E-07 ort(H,U,f) =-0.427E-04 0.472E-04-0.160E-06
CGA: 123    -0.223483681880E+03   -0.19835E-04   -0.19707E-04  5760   0.978E-04 0.435E-05
 gam= 0.845 trial= 0.370  step= 0.280 mean= 0.370
 gam= 1.373 g(H,U,f)=  0.498E-04 0.843E-04 0.252E-06 ort(H,U,f) =-0.176E-04 0.265E-04 0.278E-06
CGA: 124    -0.223483697118E+03   -0.15238E-04   -0.14212E-04  5760   0.134E-03 0.919E-05
 gam= 1.373 trial= 0.365  step= 0.316 mean= 0.365
 gam= 1.018 g(H,U,f)=  0.530E-04 0.836E-04 0.120E-06 ort(H,U,f) =-0.279E-04 0.265E-04-0.276E-06
CGA: 125    -0.223483720643E+03   -0.23526E-04   -0.23215E-04  5760   0.137E-03-0.168E-05
 gam= 1.018 trial= 0.363  step= 0.297 mean= 0.363
 gam= 1.165 g(H,U,f)=  0.566E-04 0.100E-03 0.239E-05 ort(H,U,f) =-0.233E-04 0.350E-04-0.249E-05
CGA: 126    -0.223483741708E+03   -0.21065E-04   -0.20049E-04  5760   0.159E-03 0.917E-05
 gam= 1.165 trial= 0.360  step= 0.214 mean= 0.360
 gam= 0.679 g(H,U,f)=  0.439E-04 0.626E-04 0.173E-05 ort(H,U,f) =-0.209E-04 0.260E-04-0.318E-06
CGA: 127    -0.223483760627E+03   -0.18919E-04   -0.18162E-04  5760   0.108E-03 0.477E-05
 gam= 0.679 trial= 0.352  step= 0.256 mean= 0.352
 gam= 0.910 g(H,U,f)=  0.367E-04 0.616E-04 0.116E-06 ort(H,U,f) =-0.658E-05 0.157E-04 0.922E-07
CGA: 128    -0.223483775254E+03   -0.14627E-04   -0.14261E-04  5760   0.985E-04 0.917E-05
 gam= 0.910 trial= 0.347  step= 0.217 mean= 0.347
 gam= 0.838 g(H,U,f)=  0.310E-04 0.514E-04 0.143E-06 ort(H,U,f) = 0.192E-05-0.262E-06-0.411E-06
CGA: 129    -0.223483787880E+03   -0.12627E-04   -0.11573E-04  5760   0.826E-04 0.125E-05
 gam= 0.838 trial= 0.341  step= 0.296 mean= 0.341
 gam= 0.000 g(H,U,f)=  0.224E-04 0.479E-04 0.106E-06 ort(H,U,f) =-0.493E-05 0.109E-04-0.125E-06
SDA: 130    -0.223483800425E+03   -0.12545E-04   -0.12356E-04  5760   0.703E-04 0.580E-05
 gam= 0.000 trial= 0.339  step= 0.147 mean= 0.339
 gam= 0.347 g(H,U,f)=  0.115E-04 0.129E-04 0.411E-07 ort(H,U,f) = 0.108E-04-0.898E-06-0.324E-07
CGA: 131    -0.223483807211E+03   -0.67860E-05   -0.51569E-05  5760   0.244E-04 0.986E-05
 gam= 0.347 trial= 0.329  step= 0.467 mean= 0.329
 gam= 0.947 g(H,U,f)=  0.725E-05 0.158E-04 0.852E-07 ort(H,U,f) =-0.358E-06 0.104E-05-0.507E-07
CGA: 132    -0.223483813677E+03   -0.64656E-05   -0.64919E-05  5760   0.231E-04 0.631E-06
 gam= 0.947 trial= 0.336  step= 0.398 mean= 0.336
 gam= 1.440 g(H,U,f)=  0.983E-05 0.228E-04 0.649E-06 ort(H,U,f) =-0.397E-05 0.550E-05 0.853E-07
CGA: 133    -0.223483818288E+03   -0.46117E-05   -0.47170E-05  5760   0.333E-04 0.161E-05
 gam= 1.440 trial= 0.339  step= 0.308 mean= 0.339
 gam= 0.839 g(H,U,f)=  0.119E-04 0.159E-04 0.168E-06 ort(H,U,f) =-0.108E-04 0.101E-04 0.379E-06
CGA: 134    -0.223483823876E+03   -0.55874E-05   -0.54771E-05  5760   0.279E-04-0.359E-06
 gam= 0.839 trial= 0.337  step= 0.408 mean= 0.337
 gam= 0.961 g(H,U,f)=  0.118E-04 0.150E-04 0.410E-07 ort(H,U,f) =-0.837E-05 0.851E-05-0.231E-06
CGA: 135    -0.223483829467E+03   -0.55914E-05   -0.56400E-05  5760   0.268E-04-0.964E-07
 gam= 0.961 trial= 0.341  step= 0.360 mean= 0.341
 gam= 1.046 g(H,U,f)=  0.131E-04 0.149E-04 0.189E-07 ort(H,U,f) =-0.539E-05 0.561E-05-0.603E-07
CGA: 136    -0.223483834235E+03   -0.47680E-05   -0.48072E-05  5760   0.281E-04 0.160E-06
 gam= 1.046 trial= 0.342  step= 0.347 mean= 0.342
 gam= 1.197 g(H,U,f)=  0.104E-04 0.230E-04 0.930E-07 ort(H,U,f) =-0.327E-05 0.284E-05-0.275E-06
CGA: 137    -0.223483839115E+03   -0.48795E-05   -0.48906E-05  5760   0.336E-04-0.698E-06
 gam= 1.197 trial= 0.342  step= 0.313 mean= 0.342
 gam= 0.657 g(H,U,f)=  0.105E-04 0.113E-04 0.159E-06 ort(H,U,f) =-0.633E-05 0.566E-05-0.334E-06
CGA: 138    -0.223483844285E+03   -0.51707E-05   -0.51169E-05  5760   0.220E-04-0.101E-05
 gam= 0.657 trial= 0.341  step= 0.489 mean= 0.341
 gam= 1.291 g(H,U,f)=  0.875E-05 0.197E-04 0.341E-07 ort(H,U,f) =-0.355E-05 0.317E-05-0.165E-08
CGA: 139    -0.223483849226E+03   -0.49402E-05   -0.52294E-05  5760   0.285E-04-0.384E-06
 gam= 1.291 trial= 0.348  step= 0.187 mean= 0.348
 gam= 0.501 g(H,U,f)=  0.745E-05 0.682E-05 0.314E-08 ort(H,U,f) =-0.335E-05 0.342E-05 0.120E-07
CGA: 140    -0.223483852224E+03   -0.29986E-05   -0.26084E-05  5760   0.143E-04 0.804E-07
 gam= 0.501 trial= 0.340  step= 0.635 mean= 0.340
 gam= 1.883 g(H,U,f)=  0.738E-05 0.194E-04 0.839E-07 ort(H,U,f) =-0.159E-05 0.185E-05-0.395E-07
CGA: 141    -0.223483856584E+03   -0.43597E-05   -0.45443E-05  5760   0.269E-04 0.226E-06
 gam= 1.883 trial= 0.355  step= 0.188 mean= 0.355
 gam= 0.510 g(H,U,f)=  0.627E-05 0.744E-05 0.185E-08 ort(H,U,f) =-0.455E-05 0.557E-05-0.880E-08
CGA: 142    -0.223483859747E+03   -0.31633E-05   -0.25637E-05  5760   0.137E-04 0.101E-05
 gam= 0.510 trial= 0.346  step= 0.343 mean= 0.346
 gam= 0.940 g(H,U,f)=  0.557E-05 0.731E-05 0.636E-08 ort(H,U,f) =-0.151E-05 0.275E-05-0.680E-08
CGA: 143    -0.223483862184E+03   -0.24369E-05   -0.24373E-05  5760   0.129E-04 0.123E-05
 gam= 0.940 trial= 0.346  step= 0.269 mean= 0.346
 gam= 1.271 g(H,U,f)=  0.594E-05 0.104E-04 0.939E-07 ort(H,U,f) =-0.302E-06 0.106E-05-0.125E-07
CGA: 144    -0.223483864181E+03   -0.19971E-05   -0.18918E-05  5760   0.164E-04 0.747E-06
 gam= 1.271 trial= 0.342  step= 0.417 mean= 0.342
 gam= 1.051 g(H,U,f)=  0.638E-05 0.106E-04 0.208E-06 ort(H,U,f) =-0.448E-05 0.334E-05 0.111E-06
CGA: 145    -0.223483867687E+03   -0.35053E-05   -0.36091E-05  5760   0.172E-04-0.103E-05
 gam= 1.051 trial= 0.346  step= 0.226 mean= 0.346
 gam= 0.757 g(H,U,f)=  0.585E-05 0.716E-05 0.200E-07 ort(H,U,f) =-0.385E-05 0.489E-05 0.476E-07
CGA: 146    -0.223483869737E+03   -0.20505E-05   -0.18237E-05  5760   0.130E-04 0.109E-05
 gam= 0.757 trial= 0.340  step= 0.266 mean= 0.340
 gam= 1.049 g(H,U,f)=  0.496E-05 0.870E-05 0.154E-07 ort(H,U,f) =-0.194E-05 0.274E-05-0.752E-07
CGA: 147    -0.223483871599E+03   -0.18622E-05   -0.18458E-05  5760   0.137E-04 0.717E-06
 gam= 1.049 trial= 0.336  step= 0.325 mean= 0.336
 gam= 1.086 g(H,U,f)=  0.628E-05 0.855E-05 0.217E-07 ort(H,U,f) =-0.318E-05 0.346E-05-0.553E-07
CGA: 148    -0.223483873954E+03   -0.23543E-05   -0.23455E-05  5760   0.148E-04 0.226E-06
 gam= 1.086 trial= 0.336  step= 0.254 mean= 0.336
 gam= 1.199 g(H,U,f)=  0.590E-05 0.119E-04 0.503E-07 ort(H,U,f) =-0.239E-05 0.277E-05-0.107E-06
CGA: 149    -0.223483875976E+03   -0.20229E-05   -0.19190E-05  5760   0.178E-04 0.279E-06
 gam= 1.199 trial= 0.332  step= 0.333 mean= 0.332
 gam= 0.937 g(H,U,f)=  0.740E-05 0.915E-05 0.129E-06 ort(H,U,f) =-0.565E-05 0.632E-05-0.127E-06
CGA: 150    -0.223483878996E+03   -0.30193E-05   -0.30195E-05  5760   0.167E-04 0.541E-06
 gam= 0.937 trial= 0.332  step= 0.184 mean= 0.332
 gam= 0.787 g(H,U,f)=  0.581E-05 0.729E-05 0.275E-07 ort(H,U,f) =-0.246E-05 0.323E-05 0.563E-08
CGA: 151    -0.223483880770E+03   -0.17738E-05   -0.15846E-05  5760   0.131E-04 0.775E-06
 gam= 0.787 trial= 0.324  step= 0.326 mean= 0.324
 gam= 1.095 g(H,U,f)=  0.615E-05 0.819E-05 0.385E-07 ort(H,U,f) =-0.213E-05 0.267E-05-0.252E-07
CGA: 152    -0.223483883008E+03   -0.22382E-05   -0.22383E-05  5760   0.144E-04 0.520E-06
 gam= 1.095 trial= 0.325  step= 0.207 mean= 0.325
 gam= 0.988 g(H,U,f)=  0.572E-05 0.847E-05 0.233E-07 ort(H,U,f) =-0.293E-06 0.633E-06-0.184E-07
CGA: 153    -0.223483884761E+03   -0.17534E-05   -0.15493E-05  5760   0.142E-04 0.322E-06
 gam= 0.988 trial= 0.319  step= 0.321 mean= 0.319
 gam= 0.907 g(H,U,f)=  0.428E-05 0.857E-05 0.366E-07 ort(H,U,f) =-0.194E-05 0.327E-05-0.210E-07
CGA: 154    -0.223483887091E+03   -0.23301E-05   -0.23296E-05  5760   0.129E-04 0.132E-05
 gam= 0.907 trial= 0.319  step= 0.148 mean= 0.319
 gam= 0.530 g(H,U,f)=  0.355E-05 0.327E-05 0.294E-08 ort(H,U,f) =-0.141E-05 0.199E-05 0.154E-08
CGA: 155    -0.223483888389E+03   -0.12973E-05   -0.10434E-05  5760   0.683E-05 0.590E-06
 gam= 0.530 trial= 0.310  step= 0.361 mean= 0.310
 gam= 1.760 g(H,U,f)=  0.357E-05 0.844E-05 0.147E-07 ort(H,U,f) =-0.197E-06 0.133E-05-0.938E-08
CGA: 156    -0.223483889676E+03   -0.12871E-05   -0.12902E-05  5760   0.120E-04 0.112E-05
 gam= 1.760 trial= 0.313  step= 0.194 mean= 0.313
 gam= 0.535 g(H,U,f)=  0.325E-05 0.316E-05 0.165E-07 ort(H,U,f) =-0.220E-05 0.154E-05 0.968E-08
CGA: 157    -0.223483891166E+03   -0.14907E-05   -0.13550E-05  5760   0.642E-05-0.650E-06
 gam= 0.535 trial= 0.307  step= 0.400 mean= 0.307
 gam= 1.757 g(H,U,f)=  0.318E-05 0.804E-05 0.705E-07 ort(H,U,f) =-0.666E-06 0.145E-05 0.402E-07
CGA: 158    -0.223483892375E+03   -0.12087E-05   -0.12151E-05  5760   0.113E-04 0.823E-06
 gam= 1.757 trial= 0.311  step= 0.217 mean= 0.311
 gam= 0.426 g(H,U,f)=  0.246E-05 0.234E-05 0.514E-08 ort(H,U,f) =-0.323E-05 0.317E-05 0.371E-07
CGA: 159    -0.223483893855E+03   -0.14803E-05   -0.13834E-05  5760   0.481E-05-0.217E-07
 gam= 0.426 trial= 0.307  step= 0.435 mean= 0.307
 gam= 1.254 g(H,U,f)=  0.259E-05 0.342E-05 0.291E-07 ort(H,U,f) =-0.870E-06 0.955E-06-0.505E-07
CGA: 160    -0.223483894860E+03   -0.10049E-05   -0.10436E-05  5760   0.603E-05 0.349E-07
 gam= 1.254 trial= 0.313  step= 0.347 mean= 0.313
 gam= 0.000 g(H,U,f)=  0.279E-05 0.439E-05 0.921E-08 ort(H,U,f) =-0.106E-05 0.935E-06-0.597E-08
SDA: 161    -0.223483895889E+03   -0.10291E-05   -0.10550E-05  5760   0.720E-05-0.135E-06
 gam= 0.000 trial= 0.315  step= 0.174 mean= 0.315
 gam= 0.473 g(H,U,f)=  0.138E-05 0.202E-05 0.794E-08 ort(H,U,f) = 0.134E-05-0.391E-06-0.123E-08
CGA: 162    -0.223483896625E+03   -0.73602E-06   -0.62766E-06  5760   0.341E-05 0.946E-06
 gam= 0.473 trial= 0.308  step= 0.409 mean= 0.308
 final diagonalization
   1 F= -.23260652E+03 E0= -.23260059E+03  d E =-.118710E-01  mag=     6.0000
