 vasp.5.4.4.18Apr17-6-g9f103f2a35 (build Nov 22 2021 14:44:17) complex          
  
 executed on             LinuxIFC date 2022.08.08  11:47:38
 running on   64 total cores
 distrk:  each k-point on   64 cores,    1 groups
 distr:  one band on NCORES_PER_BAND=   4 cores,   16 groups


--------------------------------------------------------------------------------------------------------


 INCAR:
 POTCAR:    PAW_PBE Li 17Jan2003                  
 POTCAR:    PAW_PBE Co 02Aug2007                  
 POTCAR:    PAW_PBE O 08Apr2002                   
 POTCAR:    PAW_PBE Li 17Jan2003                  
   VRHFIN =Li: s1p0                                                             
   LEXCH  = PE                                                                  
   EATOM  =     5.3001 eV,    0.3895 Ry                                         
                                                                                
   TITEL  = PAW_PBE Li 17Jan2003                                                
   LULTRA =        F    use ultrasoft PP ?                                      
   IUNSCR =        1    unscreen: 0-lin 1-nonlin 2-no                           
   RPACOR =    1.500    partial core radius                                     
   POMASS =    7.010; ZVAL   =    1.000    mass and valenz                      
   RCORE  =    2.050    outmost cutoff radius                                   
   RWIGS  =    2.600; RWIGS  =    1.376    wigner-seitz radius (au A)           
   ENMAX  =  140.000; ENMIN  =  100.000 eV                                      
   ICORE  =        2    local potential                                         
   LCOR   =        T    correct aug charges                                     
   LPAW   =        T    paw PP                                                  
   EAUG   =  331.638                                                            
   DEXC   =    0.000                                                            
   RMAX   =    2.098    core radius for proj-oper                               
   RAUG   =    1.300    factor for augmentation sphere                          
   RDEP   =    2.094    radius for radial grids                                 
   RDEPT  =    1.810    core radius for aug-charge                              
                                                                                
   Atomic configuration                                                         
    4 entries                                                                   
     n  l   j            E        occ.                                          
     1  0  0.50       -51.8549   2.0000                                         
     2  0  0.50        -2.8742   1.0000                                         
     2  1  0.50        -1.3606   0.0000                                         
     3  2  1.50        -1.3606   0.0000                                         
   Description                                                                  
     l       E           TYP  RCUT    TYP  RCUT                                 
     0     -2.8742052     23  2.050                                             
     0     27.2116520     23  2.050                                             
     1     -1.3605826     23  2.050                                             
     2     -1.3605826     23  2.050                                             
  local pseudopotential read in
  partial core-charges read in
  partial kinetic energy density read in
  atomic valenz-charges read in
  non local Contribution for L=           0  read in
    real space projection operators read in
  non local Contribution for L=           0  read in
    real space projection operators read in
  non local Contribution for L=           1  read in
    real space projection operators read in
    PAW grid and wavefunctions read in
 
   number of l-projection  operators is LMAX  =           3
   number of lm-projection operators is LMMAX =           5
 
 POTCAR:    PAW_PBE Co 02Aug2007                  
   VRHFIN =Co: d8 s1                                                            
   LEXCH  = PE                                                                  
   EATOM  =   813.3670 eV,   59.7808 Ry                                         
                                                                                
   TITEL  = PAW_PBE Co 02Aug2007                                                
   LULTRA =        F    use ultrasoft PP ?                                      
   IUNSCR =        1    unscreen: 0-lin 1-nonlin 2-no                           
   RPACOR =    2.000    partial core radius                                     
   POMASS =   58.933; ZVAL   =    9.000    mass and valenz                      
   RCORE  =    2.300    outmost cutoff radius                                   
   RWIGS  =    2.460; RWIGS  =    1.302    wigner-seitz radius (au A)           
   ENMAX  =  267.968; ENMIN  =  200.976 eV                                      
   RCLOC  =    1.203    cutoff for local pot                                    
   LCOR   =        T    correct aug charges                                     
   LPAW   =        T    paw PP                                                  
   EAUG   =  477.818                                                            
   DEXC   =    0.000                                                            
   RMAX   =    2.360    core radius for proj-oper                               
   RAUG   =    1.300    factor for augmentation sphere                          
   RDEP   =    2.393    radius for radial grids                                 
   RDEPT  =    1.864    core radius for aug-charge                              
                                                                                
   Atomic configuration                                                         
    9 entries                                                                   
     n  l   j            E        occ.                                          
     1  0  0.50     -7587.6674   2.0000                                         
     2  0  0.50      -893.6084   2.0000                                         
     2  1  1.50      -764.5805   6.0000                                         
     3  0  0.50       -97.5973   2.0000                                         
     3  1  1.50       -60.9648   6.0000                                         
     3  2  2.50        -4.2382   8.0000                                         
     4  0  0.50        -4.3746   1.0000                                         
     4  1  1.50        -4.0817   0.0000                                         
     4  3  2.50        -1.3606   0.0000                                         
   Description                                                                  
     l       E           TYP  RCUT    TYP  RCUT                                 
     2     -4.2382362     23  2.300                                             
     2     -5.5988188     23  2.300                                             
     0     -4.3745797     23  2.300                                             
     0      5.7660125     23  2.300                                             
     1     -2.7211652     23  2.300                                             
     1     16.9860234     23  2.300                                             
  local pseudopotential read in
  partial core-charges read in
  partial kinetic energy density read in
  atomic valenz-charges read in
  non local Contribution for L=           2  read in
    real space projection operators read in
  non local Contribution for L=           2  read in
    real space projection operators read in
  non local Contribution for L=           0  read in
    real space projection operators read in
  non local Contribution for L=           0  read in
    real space projection operators read in
  non local Contribution for L=           1  read in
    real space projection operators read in
  non local Contribution for L=           1  read in
    real space projection operators read in
    PAW grid and wavefunctions read in
 
   number of l-projection  operators is LMAX  =           6
   number of lm-projection operators is LMMAX =          18
 
 POTCAR:    PAW_PBE O 08Apr2002                   
   VRHFIN =O: s2p4                                                              
   LEXCH  = PE                                                                  
   EATOM  =   432.3788 eV,   31.7789 Ry                                         
                                                                                
   TITEL  = PAW_PBE O 08Apr2002                                                 
   LULTRA =        F    use ultrasoft PP ?                                      
   IUNSCR =        1    unscreen: 0-lin 1-nonlin 2-no                           
   RPACOR =    1.200    partial core radius                                     
   POMASS =   16.000; ZVAL   =    6.000    mass and valenz                      
   RCORE  =    1.520    outmost cutoff radius                                   
   RWIGS  =    1.550; RWIGS  =    0.820    wigner-seitz radius (au A)           
   ENMAX  =  400.000; ENMIN  =  300.000 eV                                      
   ICORE  =        2    local potential                                         
   LCOR   =        T    correct aug charges                                     
   LPAW   =        T    paw PP                                                  
   EAUG   =  605.392                                                            
   DEXC   =    0.000                                                            
   RMAX   =    1.553    core radius for proj-oper                               
   RAUG   =    1.300    factor for augmentation sphere                          
   RDEP   =    1.550    radius for radial grids                                 
   RDEPT  =    1.329    core radius for aug-charge                              
                                                                                
   Atomic configuration                                                         
    4 entries                                                                   
     n  l   j            E        occ.                                          
     1  0  0.50      -514.6923   2.0000                                         
     2  0  0.50       -23.9615   2.0000                                         
     2  1  0.50        -9.0305   4.0000                                         
     3  2  1.50        -9.5241   0.0000                                         
   Description                                                                  
     l       E           TYP  RCUT    TYP  RCUT                                 
     0    -23.9615318     23  1.200                                             
     0     -9.5240782     23  1.200                                             
     1     -9.0304911     23  1.520                                             
     1      8.1634956     23  1.520                                             
     2     -9.5240782      7  1.500                                             
  local pseudopotential read in
  partial core-charges read in
  partial kinetic energy density read in
  kinetic energy density of atom read in
  atomic valenz-charges read in
  non local Contribution for L=           0  read in
    real space projection operators read in
  non local Contribution for L=           0  read in
    real space projection operators read in
  non local Contribution for L=           1  read in
    real space projection operators read in
  non local Contribution for L=           1  read in
    real space projection operators read in
    PAW grid and wavefunctions read in
 
   number of l-projection  operators is LMAX  =           4
   number of lm-projection operators is LMMAX =           8
 
 Optimization of the real space projectors (new method)

 maximal supplied QI-value         = 18.33
 optimisation between [QCUT,QGAM] = [ 12.46, 24.93] = [ 43.51,174.03] Ry 
 Optimized for a Real-space Cutoff    1.13 Angstroem

   l    n(q)    QCUT    max X(q) W(low)/X(q) W(high)/X(q)  e(spline) 
   0      8    12.465    33.825    0.12E-03    0.29E-03    0.99E-07
   0      8    12.465     8.944    0.86E-04    0.22E-03    0.72E-07
   1      8    12.465     4.214    0.27E-03    0.11E-03    0.82E-07
 Optimization of the real space projectors (new method)

 maximal supplied QI-value         = 16.25
 optimisation between [QCUT,QGAM] = [ 12.51, 25.03] = [ 43.85,175.40] Ry 
 Optimized for a Real-space Cutoff    1.31 Angstroem

   l    n(q)    QCUT    max X(q) W(low)/X(q) W(high)/X(q)  e(spline) 
   2      9    12.514    65.824    0.30E-03    0.46E-03    0.43E-06
   2      9    12.514    61.429    0.31E-03    0.46E-03    0.44E-06
   0     10    12.514    56.174    0.90E-04    0.33E-03    0.30E-06
   0     10    12.514    31.263    0.81E-04    0.30E-03    0.28E-06
   1      9    12.514    19.828    0.38E-03    0.65E-04    0.24E-06
   1      9    12.514    15.139    0.32E-03    0.60E-04    0.20E-06
 Optimization of the real space projectors (new method)

 maximal supplied QI-value         = 24.76
 optimisation between [QCUT,QGAM] = [ 12.38, 25.00] = [ 42.90,175.06] Ry 
 Optimized for a Real-space Cutoff    1.13 Angstroem

   l    n(q)    QCUT    max X(q) W(low)/X(q) W(high)/X(q)  e(spline) 
   0      8    12.378    20.381    0.16E-03    0.54E-05    0.27E-06
   0      8    12.378    15.268    0.17E-03    0.61E-05    0.29E-06
   1      8    12.378     5.964    0.38E-03    0.23E-03    0.28E-06
   1      8    12.378     5.382    0.33E-03    0.20E-03    0.25E-06
  PAW_PBE Li 17Jan2003                  :
 energy of atom  1       EATOM=   -5.3001
 kinetic energy error for atom=    0.0000 (will be added to EATOM!!)
  PAW_PBE Co 02Aug2007                  :
 energy of atom  2       EATOM= -813.3670
 kinetic energy error for atom=    0.0018 (will be added to EATOM!!)
  PAW_PBE O 08Apr2002                   :
 energy of atom  3       EATOM= -432.3788
 kinetic energy error for atom=    0.0168 (will be added to EATOM!!)
 
 
 POSCAR: Li6 Co12 O24                            
  positions in cartesian coordinates
  No initial velocities read in
 exchange correlation table for  LEXCH =        8
   RHO(1)=    0.500       N(1)  =     2000
   RHO(2)=  100.500       N(2)  =     4000
 


--------------------------------------------------------------------------------------------------------


 ion  position               nearest neighbor table
   1  0.484  0.008  0.001-  36 1.80  37 1.81  38 1.94  23 1.94  25 1.94  24 1.99  15 2.38  17 2.54
                             9 2.60  16 2.62  10 2.67   8 2.67
   2  0.839  0.697  0.331-  32 1.84  22 1.90  19 1.97  33 1.98  34 1.98  20 2.12  11 2.44  12 2.54
                            10 2.55  14 2.62   8 2.72   9 2.75
   3  0.148  0.335  0.650-  29 1.83  27 1.99  28 2.03  42 2.10  40 2.13  39 2.27  12 2.59  11 2.67
                             4 2.69   5 2.74   6 2.74  14 2.80   5 2.81   6 2.81   4 2.87  16 2.95
   4  0.186  0.838  0.672-  41 1.91  28 2.01  39 2.01  40 2.05  27 2.12  30 2.13   6 2.59   3 2.69
                             5 2.75  16 2.79   5 2.81  15 2.82  12 2.82   3 2.87  18 2.92   6 2.95
   5  0.668  0.364  0.650-  30 1.87  27 1.94  29 2.02  40 2.14  42 2.14  41 2.50  14 2.52   6 2.64
                            12 2.69   3 2.74   4 2.75   3 2.81   4 2.81  13 2.82   6 2.92  18 2.93
   6  0.648  0.827  0.672-  39 1.92  28 1.92  42 2.01  29 2.14  30 2.14  41 2.17   4 2.59   5 2.64
                             3 2.74  17 2.76  18 2.80   3 2.81  16 2.86  14 2.88   5 2.92  13 2.92
   7  0.181  0.343  0.164-  19 1.82  24 1.84  23 1.84  22 1.84  25 1.91  20 1.93   9 2.73   8 2.75
                            10 2.76  10 2.77   8 2.78   9 2.81
   8  0.189  0.844  0.171-  21 1.81  19 1.87  23 1.88  24 1.88  20 1.90  26 1.96   1 2.67   2 2.72
                            10 2.74   9 2.75   7 2.75   9 2.78   7 2.78  10 2.80
   9  0.686  0.339  0.163-  26 1.76  25 1.86  23 1.88  21 1.88  22 1.89  20 1.89   1 2.60  10 2.73
                             7 2.73   8 2.75   2 2.75   8 2.78  10 2.80   7 2.81
  10  0.682  0.843  0.164-  22 1.84  25 1.84  24 1.89  21 1.92  19 1.94  26 1.99   2 2.55   1 2.67
                             9 2.73   8 2.74   7 2.76   7 2.77   9 2.80   8 2.80
  11  0.991  0.012  0.481-  32 1.87  34 1.88  27 1.89  31 1.89  30 1.94  29 1.96   2 2.44   3 2.67
                            13 2.72  12 2.75  14 2.75  12 2.78  14 2.78  13 2.82   4 2.97   6 3.03
  12  0.995  0.516  0.487-  33 1.79  32 1.87  30 1.91  31 1.92  28 1.93  29 1.96   2 2.54   3 2.59
                            14 2.67   5 2.69  13 2.73  11 2.75  11 2.78  13 2.80   4 2.82  14 2.87
  13  0.493  0.002  0.477-  32 1.75  34 1.75  33 1.87  28 1.90  29 1.93  27 2.04  14 2.71  11 2.72
                            12 2.73  12 2.80  11 2.82   5 2.82  14 2.83   6 2.92   4 2.98
  14  0.503  0.495  0.485-  34 1.81  30 1.85  27 1.87  33 1.93  31 1.95  28 2.06   5 2.52   2 2.62
                            12 2.67  13 2.71  11 2.75  11 2.78   3 2.80  13 2.83  12 2.87   6 2.88
  15  0.321  0.164  0.854-  35 1.86  41 1.88  36 1.88  42 1.95  37 1.98  39 1.99   1 2.38  16 2.61
                            18 2.74  17 2.76  17 2.78  18 2.79   4 2.82  16 2.92   3 3.05   5 3.18
  16  0.323  0.636  0.852-  35 1.77  40 1.85  38 1.89  41 1.90  42 1.90  36 2.04  15 2.61   1 2.62
                            17 2.74  18 2.77  18 2.77  17 2.78   4 2.79   6 2.86  15 2.92   3 2.95
  17  0.811  0.140  0.853-  38 1.78  37 1.78  41 1.84  35 1.90  40 2.06  39 2.08   1 2.54  18 2.73
                            16 2.74   6 2.76  15 2.76  15 2.78  16 2.78  18 2.80   5 3.10   3 3.14
  18  0.834  0.659  0.851-  36 1.79  39 1.89  37 1.90  40 1.96  42 1.99  38 2.01  17 2.73  15 2.74
                            16 2.77  16 2.77  15 2.79   6 2.80  17 2.80   4 2.92   5 2.93
  19  0.039  0.027  0.242-   7 1.82   8 1.87  10 1.94   2 1.97
  20  0.020  0.506  0.247-   9 1.89   8 1.90   7 1.93   2 2.12
  21  0.522  0.013  0.243-   8 1.81   9 1.88  10 1.92
  22  0.524  0.512  0.235-  10 1.84   7 1.84   9 1.89   2 1.90
  23  0.333  0.171  0.092-   7 1.84   8 1.88   9 1.88   1 1.94
  24  0.332  0.669  0.090-   7 1.84   8 1.88  10 1.89   1 1.99
  25  0.831  0.165  0.086-  10 1.84   9 1.86   7 1.91   1 1.94
  26  0.836  0.644  0.088-   9 1.76   8 1.96  10 1.99
  27  0.323  0.173  0.566-  14 1.87  11 1.89   5 1.94   3 1.99  13 2.04   4 2.12
  28  0.345  0.694  0.569-  13 1.90   6 1.92  12 1.93   4 2.01   3 2.03  14 2.06
  29  0.825  0.171  0.568-   3 1.83  13 1.93  12 1.96  11 1.96   5 2.02   6 2.14
  30  0.831  0.680  0.566-  14 1.85   5 1.87  12 1.91  11 1.94   4 2.13   6 2.14
  31  0.150  0.347  0.404-  11 1.89  12 1.92  14 1.95
  32  0.164  0.848  0.412-  13 1.75   2 1.84  12 1.87  11 1.87
  33  0.683  0.339  0.406-  12 1.79  13 1.87  14 1.93   2 1.98
  34  0.631  0.821  0.415-  13 1.75  14 1.81  11 1.88   2 1.98
  35  0.163  0.331  0.928-  16 1.77  15 1.86  17 1.90
  36  0.154  0.829  0.929-  18 1.79   1 1.80  15 1.88  16 2.04
  37  0.692  0.324  0.928-  17 1.78   1 1.81  18 1.90  15 1.98
  38  0.663  0.837  0.932-  17 1.78  16 1.89   1 1.94  18 2.01
  39  0.982  0.966  0.760-  18 1.89   6 1.92  15 1.99   4 2.01  17 2.08   3 2.27
  40  0.002  0.497  0.766-  16 1.85  18 1.96   4 2.05  17 2.06   3 2.13   5 2.14
  41  0.470  0.982  0.781-  17 1.84  15 1.88  16 1.90   4 1.91   6 2.17   5 2.50
  42  0.480  0.487  0.763-  16 1.90  15 1.95  18 1.99   6 2.01   3 2.10   5 2.14
 

IMPORTANT INFORMATION: All symmetrisations will be switched off!
NOSYMM: (Re-)initialisation of all symmetry stuff for point group C_1.

 
 

Automatic generation of k-mesh.
 generate k-points for:    6    6    2
Space group operators:
 irot       det(A)        alpha          n_x          n_y          n_z        tau_x        tau_y        tau_z
    1     1.000000     0.000000     1.000000     0.000000     0.000000     0.000000     0.000000     0.000000
 
 Subroutine IBZKPT returns following result:
 ===========================================
 
 Found     36 irreducible k-points:
 
 Following reciprocal coordinates:
            Coordinates               Weight
  0.083333  0.083333  0.250000      2.000000
  0.250000  0.083333  0.250000      2.000000
  0.416667  0.083333  0.250000      2.000000
 -0.416667  0.083333  0.250000      2.000000
 -0.250000  0.083333  0.250000      2.000000
 -0.083333  0.083333  0.250000      2.000000
  0.083333  0.250000  0.250000      2.000000
  0.250000  0.250000  0.250000      2.000000
  0.416667  0.250000  0.250000      2.000000
 -0.416667  0.250000  0.250000      2.000000
 -0.250000  0.250000  0.250000      2.000000
 -0.083333  0.250000  0.250000      2.000000
  0.083333  0.416667  0.250000      2.000000
  0.250000  0.416667  0.250000      2.000000
  0.416667  0.416667  0.250000      2.000000
 -0.416667  0.416667  0.250000      2.000000
 -0.250000  0.416667  0.250000      2.000000
 -0.083333  0.416667  0.250000      2.000000
  0.083333 -0.416667  0.250000      2.000000
  0.250000 -0.416667  0.250000      2.000000
  0.416667 -0.416667  0.250000      2.000000
 -0.416667 -0.416667  0.250000      2.000000
 -0.250000 -0.416667  0.250000      2.000000
 -0.083333 -0.416667  0.250000      2.000000
  0.083333 -0.250000  0.250000      2.000000
  0.250000 -0.250000  0.250000      2.000000
  0.416667 -0.250000  0.250000      2.000000
 -0.416667 -0.250000  0.250000      2.000000
 -0.250000 -0.250000  0.250000      2.000000
 -0.083333 -0.250000  0.250000      2.000000
  0.083333 -0.083333  0.250000      2.000000
  0.250000 -0.083333  0.250000      2.000000
  0.416667 -0.083333  0.250000      2.000000
 -0.416667 -0.083333  0.250000      2.000000
 -0.250000 -0.083333  0.250000      2.000000
 -0.083333 -0.083333  0.250000      2.000000
 
 Following cartesian coordinates:
            Coordinates               Weight
  0.015046  0.026152  0.020479      2.000000
  0.045139  0.043595  0.022247      2.000000
  0.075231  0.061039  0.024014      2.000000
 -0.075231 -0.026177  0.015177      2.000000
 -0.045139 -0.008734  0.016945      2.000000
 -0.015046  0.008709  0.018712      2.000000
  0.015046  0.061013  0.020836      2.000000
  0.045139  0.078457  0.022603      2.000000
  0.075231  0.095900  0.024371      2.000000
 -0.075231  0.008684  0.015534      2.000000
 -0.045139  0.026127  0.017301      2.000000
 -0.015046  0.043570  0.019069      2.000000
  0.015046  0.095875  0.021192      2.000000
  0.045139  0.113318  0.022960      2.000000
  0.075231  0.130761  0.024727      2.000000
 -0.075231  0.043545  0.015890      2.000000
 -0.045139  0.060988  0.017658      2.000000
 -0.015046  0.078432  0.019425      2.000000
  0.015046 -0.078432  0.019410      2.000000
  0.045139 -0.060988  0.021177      2.000000
  0.075231 -0.043545  0.022944      2.000000
 -0.075231 -0.130761  0.014108      2.000000
 -0.045139 -0.113318  0.015875      2.000000
 -0.015046 -0.095875  0.017642      2.000000
  0.015046 -0.043570  0.019766      2.000000
  0.045139 -0.026127  0.021534      2.000000
  0.075231 -0.008684  0.023301      2.000000
 -0.075231 -0.095900  0.014464      2.000000
 -0.045139 -0.078457  0.016232      2.000000
 -0.015046 -0.061013  0.017999      2.000000
  0.015046 -0.008709  0.020123      2.000000
  0.045139  0.008734  0.021890      2.000000
  0.075231  0.026177  0.023657      2.000000
 -0.075231 -0.061039  0.014821      2.000000
 -0.045139 -0.043595  0.016588      2.000000
 -0.015046 -0.026152  0.018356      2.000000
 


--------------------------------------------------------------------------------------------------------




 Dimension of arrays:
   k-points           NKPTS =     36   k-points in BZ     NKDIM =     36   number of bands    NBANDS=    160
   number of dos      NEDOS =    301   number of ions     NIONS =     42
   non local maximal  LDIM  =      6   non local SUM 2l+1 LMDIM =     18
   total plane-waves  NPLWV = 103680
   max r-space proj   IRMAX =   2892   max aug-charges    IRDMAX=  12192
   dimension x,y,z NGX =    36 NGY =   36 NGZ =   80
   dimension x,y,z NGXF=    72 NGYF=   72 NGZF=  160
   support grid    NGXF=    72 NGYF=   72 NGZF=  160
   ions per type =               6  12  24
   NGX,Y,Z   is equivalent  to a cutoff of  10.81, 10.83, 10.31 a.u.
   NGXF,Y,Z  is equivalent  to a cutoff of  21.61, 21.66, 20.63 a.u.

 SYSTEM =  LiCoO2                                  
 POSCAR =  Li6 Co12 O24                            

 Startparameter for this run:
   NWRITE =      2    write-flag & timer
   PREC   = normal    normal or accurate (medium, high low for compatibility)
   ISTART =      0    job   : 0-new  1-cont  2-samecut
   ICHARG =      2    charge: 1-file 2-atom 10-const
   ISPIN  =      2    spin polarized calculation?
   LNONCOLLINEAR =      F non collinear calculations
   LSORBIT =      F    spin-orbit coupling
   INIWAV =      1    electr: 0-lowe 1-rand  2-diag
   LASPH  =      F    aspherical Exc in radial PAW
   METAGGA=      F    non-selfconsistent MetaGGA calc.

 Electronic Relaxation 1
   ENCUT  =  600.0 eV  44.10 Ry    6.64 a.u.  11.06 11.04 25.75*2*pi/ulx,y,z
   ENINI  =  600.0     initial cutoff
   ENAUG  =  605.4 eV  augmentation charge cutoff
   NELM   =    600;   NELMIN=  2; NELMDL= -5     # of ELM steps 
   EDIFF  = 0.1E-05   stopping-criterion for ELM
   LREAL  =      T    real-space projection
   NLSPLINE    = F    spline interpolate recip. space projectors
   LCOMPAT=      F    compatible to vasp.4.4
   GGA_COMPAT  = T    GGA compatible to vasp.4.4-vasp.4.6
   LMAXPAW     = -100 max onsite density
   LMAXMIX     =    2 max onsite mixed and CHGCAR
   VOSKOWN=      0    Vosko Wilk Nusair interpolation
   ROPT   =   -0.00050  -0.00050  -0.00050
 Ionic relaxation
   EDIFFG = 0.1E-04   stopping-criterion for IOM
   NSW    =      0    number of steps for IOM
   NBLOCK =      1;   KBLOCK =      1    inner block; outer block 
   IBRION =     -1    ionic relax: 0-MD 1-quasi-New 2-CG
   NFREE  =      0    steps in history (QN), initial steepest desc. (CG)
   ISIF   =      2    stress and relaxation
   IWAVPR =     10    prediction:  0-non 1-charg 2-wave 3-comb
   ISYM   =      0    0-nonsym 1-usesym 2-fastsym
   LCORR  =      T    Harris-Foulkes like correction to forces

   POTIM  = 0.5000    time-step for ionic-motion
   TEIN   =    0.0    initial temperature
   TEBEG  =    0.0;   TEEND  =   0.0 temperature during run
   SMASS  =  -3.00    Nose mass-parameter (am)
   estimated Nose-frequenzy (Omega)   =  0.10E-29 period in steps =****** mass=  -0.701E-27a.u.
   SCALEE = 1.0000    scale energy and forces
   NPACO  =    256;   APACO  = 16.0  distance and # of slots for P.C.
   PSTRESS=    0.0 pullay stress

  Mass of Ions in am
   POMASS =   7.01 58.93 16.00
  Ionic Valenz
   ZVAL   =   1.00  9.00  6.00
  Atomic Wigner-Seitz radii
   RWIGS  =  -1.00 -1.00 -1.00
  virtual crystal weights 
   VCA    =   1.00  1.00  1.00
   NELECT =     258.0000    total number of electrons
   NUPDOWN=       6.0000    fix difference up-down

 DOS related values:
   EMIN   =  10.00;   EMAX   =-10.00  energy-range for DOS
   EFERMI =   0.00
   ISMEAR =     0;   SIGMA  =   0.05  broadening in eV -4-tet -1-fermi 0-gaus

 Electronic relaxation 2 (details)
   IALGO  =     58    algorithm
   LDIAG  =      T    sub-space diagonalisation (order eigenvalues)
   LSUBROT=      F    optimize rotation matrix (better conditioning)
   TURBO    =      0    0=normal 1=particle mesh
   IRESTART =      0    0=no restart 2=restart with 2 vectors
   NREBOOT  =      0    no. of reboots
   NMIN     =      0    reboot dimension
   EREF     =   0.00    reference energy to select bands
   IMIX   =      4    mixing-type and parameters
     AMIX     =   0.40;   BMIX     =  1.00
     AMIX_MAG =   1.60;   BMIX_MAG =  1.00
     AMIN     =   0.10
     WC   =   100.;   INIMIX=   1;  MIXPRE=   1;  MAXMIX= -45

 Intra band minimization:
   WEIMIN = 0.0000     energy-eigenvalue tresh-hold
   EBREAK =  0.16E-08  absolut break condition
   DEPER  =   0.30     relativ break condition  

   TIME   =   0.40     timestep for ELM

  volume/ion in A,a.u.               =       8.12        54.78
  Fermi-wavevector in a.u.,A,eV,Ry     =   1.491877  2.819238 30.282430  2.225696
  Thomas-Fermi vector in A             =   2.604476
 
 Write flags
   LWAVE        =      F    write WAVECAR
   LDOWNSAMPLE  =      F    k-point downsampling of WAVECAR
   LCHARG       =      F    write CHGCAR
   LVTOT        =      F    write LOCPOT, total local potential
   LVHAR        =      F    write LOCPOT, Hartree potential only
   LELF         =      F    write electronic localiz. function (ELF)
   LORBIT       =     11    0 simple, 1 ext, 2 COOP (PROOUT), +10 PAW based schemes


 Dipole corrections
   LMONO  =      F    monopole corrections only (constant potential shift)
   LDIPOL =      F    correct potential (dipole corrections)
   IDIPOL =      0    1-x, 2-y, 3-z, 4-all directions 
   EPSILON=  1.0000000 bulk dielectric constant

 LDA+U is selected, type is set to LDAUTYPE =  2
   angular momentum for each species LDAUL =    -1    2   -1
   U (eV)           for each species LDAUU =   0.0  5.1  0.0
   J (eV)           for each species LDAUJ =   0.0  0.0  0.0
 Exchange correlation treatment:
   GGA     =    --    GGA type
   LEXCH   =     8    internal setting for exchange type
   VOSKOWN=      0    Vosko Wilk Nusair interpolation
   LHFCALC =     F    Hartree Fock is set to
   LHFONE  =     F    Hartree Fock one center treatment
   AEXX    =    0.0000 exact exchange contribution

 Linear response parameters
   LEPSILON=     F    determine dielectric tensor
   LRPA    =     F    only Hartree local field effects (RPA)
   LNABLA  =     F    use nabla operator in PAW spheres
   LVEL    =     F    velocity operator in full k-point grid
   LINTERFAST=   F  fast interpolation
   KINTER  =     0    interpolate to denser k-point grid
   CSHIFT  =0.1000    complex shift for real part using Kramers Kronig
   OMEGAMAX=  -1.0    maximum frequency
   DEG_THRESHOLD= 0.2000000E-02 threshold for treating states as degnerate
   RTIME   =   -0.100 relaxation time in fs
  (WPLASMAI=    0.000 imaginary part of plasma frequency in eV, 0.658/RTIME)
   DFIELD  = 0.0000000 0.0000000 0.0000000 field for delta impulse in time
 
 Orbital magnetization related:
   ORBITALMAG=     F  switch on orbital magnetization
   LCHIMAG   =     F  perturbation theory with respect to B field
   DQ        =  0.001000  dq finite difference perturbation B field
   LLRAUG    =     F  two centre corrections for induced B field



--------------------------------------------------------------------------------------------------------


 Static calculation
 charge density and potential will be updated during run
 spin polarized calculation
 Conjugate gradient for all bands (Freysoldt, et al. PRB 79, 241103 (2009))
 preconditioned conjugated gradient                                        
 perform sub-space diagonalisation
    before iterative eigenvector-optimisation
 modified Broyden-mixing scheme, WC =      100.0
 initial mixing is a Kerker type mixing with AMIX =  0.4000 and BMIX =      1.0000
 Hartree-type preconditioning will be used
 using additional bands           31
 real space projection scheme for non local part
 use partial core corrections
 no Harris-corrections to forces 
 use gradient corrections 
 use of overlap-Matrix (Vanderbilt PP)
 Gauss-broadening in eV      SIGMA  =   0.05


--------------------------------------------------------------------------------------------------------


  energy-cutoff  :      600.00
  volume of cell :      340.91
      direct lattice vectors                 reciprocal lattice vectors
     5.538491726  0.000000000  0.000000000     0.180554571  0.104658947  0.010603940
    -2.771235943  4.780855656  0.000000000     0.000000000  0.209167578  0.002139154
    -0.679823995 -0.131672800 12.875032425     0.000000000  0.000000000  0.077669707

  length of vectors
     5.538491726  5.525968644 12.893640228     0.208963853  0.209178517  0.077669707


 
 k-points in units of 2pi/SCALE and weight: read from INCAR                         
   0.01504621  0.02615221  0.02047935       0.028
   0.04513864  0.04359537  0.02224667       0.028
   0.07523107  0.06103853  0.02401400       0.028
  -0.07523107 -0.02617726  0.01517738       0.028
  -0.04513864 -0.00873411  0.01694470       0.028
  -0.01504621  0.00870905  0.01871203       0.028
   0.01504621  0.06101347  0.02083588       0.028
   0.04513864  0.07845663  0.02260320       0.028
   0.07523107  0.09589979  0.02437052       0.028
  -0.07523107  0.00868400  0.01553391       0.028
  -0.04513864  0.02612716  0.01730123       0.028
  -0.01504621  0.04357032  0.01906855       0.028
   0.01504621  0.09587474  0.02119240       0.028
   0.04513864  0.11331789  0.02295973       0.028
   0.07523107  0.13076105  0.02472705       0.028
  -0.07523107  0.04354526  0.01589043       0.028
  -0.04513864  0.06098842  0.01765776       0.028
  -0.01504621  0.07843158  0.01942508       0.028
   0.01504621 -0.07843158  0.01940977       0.028
   0.04513864 -0.06098842  0.02117710       0.028
   0.07523107 -0.04354526  0.02294442       0.028
  -0.07523107 -0.13076105  0.01410780       0.028
  -0.04513864 -0.11331789  0.01587513       0.028
  -0.01504621 -0.09587474  0.01764245       0.028
   0.01504621 -0.04357032  0.01976630       0.028
   0.04513864 -0.02612716  0.02153362       0.028
   0.07523107 -0.00868400  0.02330095       0.028
  -0.07523107 -0.09589979  0.01446433       0.028
  -0.04513864 -0.07845663  0.01623165       0.028
  -0.01504621 -0.06101347  0.01799898       0.028
   0.01504621 -0.00870905  0.02012283       0.028
   0.04513864  0.00873411  0.02189015       0.028
   0.07523107  0.02617726  0.02365747       0.028
  -0.07523107 -0.06103853  0.01482086       0.028
  -0.04513864 -0.04359537  0.01658818       0.028
  -0.01504621 -0.02615221  0.01835550       0.028
 
 k-points in reciprocal lattice and weights: read from INCAR                         
   0.08333333  0.08333333  0.25000000       0.028
   0.25000000  0.08333333  0.25000000       0.028
   0.41666667  0.08333333  0.25000000       0.028
  -0.41666667  0.08333333  0.25000000       0.028
  -0.25000000  0.08333333  0.25000000       0.028
  -0.08333333  0.08333333  0.25000000       0.028
   0.08333333  0.25000000  0.25000000       0.028
   0.25000000  0.25000000  0.25000000       0.028
   0.41666667  0.25000000  0.25000000       0.028
  -0.41666667  0.25000000  0.25000000       0.028
  -0.25000000  0.25000000  0.25000000       0.028
  -0.08333333  0.25000000  0.25000000       0.028
   0.08333333  0.41666667  0.25000000       0.028
   0.25000000  0.41666667  0.25000000       0.028
   0.41666667  0.41666667  0.25000000       0.028
  -0.41666667  0.41666667  0.25000000       0.028
  -0.25000000  0.41666667  0.25000000       0.028
  -0.08333333  0.41666667  0.25000000       0.028
   0.08333333 -0.41666667  0.25000000       0.028
   0.25000000 -0.41666667  0.25000000       0.028
   0.41666667 -0.41666667  0.25000000       0.028
  -0.41666667 -0.41666667  0.25000000       0.028
  -0.25000000 -0.41666667  0.25000000       0.028
  -0.08333333 -0.41666667  0.25000000       0.028
   0.08333333 -0.25000000  0.25000000       0.028
   0.25000000 -0.25000000  0.25000000       0.028
   0.41666667 -0.25000000  0.25000000       0.028
  -0.41666667 -0.25000000  0.25000000       0.028
  -0.25000000 -0.25000000  0.25000000       0.028
  -0.08333333 -0.25000000  0.25000000       0.028
   0.08333333 -0.08333333  0.25000000       0.028
   0.25000000 -0.08333333  0.25000000       0.028
   0.41666667 -0.08333333  0.25000000       0.028
  -0.41666667 -0.08333333  0.25000000       0.028
  -0.25000000 -0.08333333  0.25000000       0.028
  -0.08333333 -0.08333333  0.25000000       0.028
 
 position of ions in fractional coordinates (direct lattice) 
   0.48381669  0.00826900  0.00116116
   0.83904174  0.69699389  0.33064616
   0.14826138  0.33545052  0.65047995
   0.18635835  0.83780750  0.67186783
   0.66849132  0.36386685  0.65043721
   0.64755927  0.82672924  0.67214434
   0.18066826  0.34274927  0.16385202
   0.18877803  0.84350412  0.17142171
   0.68578603  0.33881194  0.16298677
   0.68190535  0.84316707  0.16366329
   0.99080807  0.01163477  0.48084460
   0.99514856  0.51558198  0.48729198
   0.49341506  0.00151327  0.47659608
   0.50344339  0.49535176  0.48480265
   0.32107319  0.16351993  0.85427826
   0.32260224  0.63619992  0.85180835
   0.81110120  0.14028997  0.85322193
   0.83398193  0.65884383  0.85057343
   0.03883954  0.02691436  0.24221920
   0.01963172  0.50596885  0.24746268
   0.52182860  0.01280045  0.24346037
   0.52407319  0.51159182  0.23533067
   0.33336807  0.17073411  0.09208521
   0.33157012  0.66924759  0.08966346
   0.83068413  0.16512044  0.08594775
   0.83628272  0.64358557  0.08801920
   0.32326687  0.17332385  0.56561644
   0.34460928  0.69430013  0.56859742
   0.82461520  0.17140858  0.56814847
   0.83108777  0.67979718  0.56634420
   0.14982999  0.34668565  0.40421412
   0.16396520  0.84818540  0.41232440
   0.68250346  0.33949744  0.40637334
   0.63104398  0.82133893  0.41491313
   0.16259688  0.33073518  0.92780818
   0.15361392  0.82898638  0.92922947
   0.69176330  0.32404149  0.92832854
   0.66333675  0.83662687  0.93164502
   0.98239227  0.96628886  0.75997170
   0.00229588  0.49667006  0.76589788
   0.47038300  0.98249464  0.78106678
   0.48020606  0.48668834  0.76307849
 
 position of ions in cartesian coordinates  (Angst):
   2.65591002  0.03938000  0.01495000
   2.49071002  3.28869009  4.25708008
  -0.55067998  1.51809001  8.37495041
  -1.74636996  3.91697001  8.65032005
   2.25188994  1.65394998  8.37440014
   0.83850002  3.86397004  8.65388012
  -0.06060000  1.61705995  2.10960007
  -1.40854001  4.01009989  2.20706010
   2.74849010  1.59835005  2.09845996
   1.32885003  4.00951004  2.10717010
   5.12844992 -0.00769000  6.19088984
   3.75154996  2.40075994  6.27390003
   2.40458012 -0.05552000  6.13618994
   1.08599997  2.30436993  6.24184990
   0.74435002  0.66927999 10.99886036
  -0.55541003  2.92941999 10.96706009
   3.52345991  0.55835998 10.98526001
   2.21495008  3.03783989 10.95116043
  -0.02414000  0.09678000  3.11858010
  -1.46166003  2.38637996  3.18608999
   2.68916011  0.02914000  3.13456011
   1.32484996  2.41486001  3.02989006
   1.31061006  0.80413002  1.18560004
  -0.07920000  3.18776989  1.15442002
   4.08472013  0.77810001  1.10658002
   2.78837991  3.06529999  1.13325000
   0.92557001  0.75415999  7.28233004
  -0.40200001  3.24447989  7.32071018
   3.70586991  0.74466997  7.31492996
   2.33407998  3.17544007  7.29169989
  -0.40571001  1.60423005  5.20426989
  -1.72271001  4.00076008  5.30869007
   2.56294990  1.56957996  5.23206997
   0.93684000  3.87207007  5.34202003
  -0.64674997  1.45903003 11.94556046
  -2.07823992  3.84090996 11.96385956
   2.30222988  1.42695999 11.95226002
   0.72204000  3.87712002 11.99495983
   2.24651003  4.51961994  9.78466034
  -1.88434994  2.27365994  9.86096001
  -0.64850003  4.59431982 10.05626011
   0.79212999  2.22631001  9.82466030
 


--------------------------------------------------------------------------------------------------------


 k-point  1 :   0.0833 0.0833 0.2500  plane waves:   11351
 k-point  2 :   0.2500 0.0833 0.2500  plane waves:   11369
 k-point  3 :   0.4167 0.0833 0.2500  plane waves:   11394
 k-point  4 :  -0.4167 0.0833 0.2500  plane waves:   11390
 k-point  5 :  -0.2500 0.0833 0.2500  plane waves:   11368
 k-point  6 :  -0.0833 0.0833 0.2500  plane waves:   11327
 k-point  7 :   0.0833 0.2500 0.2500  plane waves:   11384
 k-point  8 :   0.2500 0.2500 0.2500  plane waves:   11396
 k-point  9 :   0.4167 0.2500 0.2500  plane waves:   11381
 k-point 10 :  -0.4167 0.2500 0.2500  plane waves:   11377
 k-point 11 :  -0.2500 0.2500 0.2500  plane waves:   11378
 k-point 12 :  -0.0833 0.2500 0.2500  plane waves:   11367
 k-point 13 :   0.0833 0.4167 0.2500  plane waves:   11388
 k-point 14 :   0.2500 0.4167 0.2500  plane waves:   11403
 k-point 15 :   0.4167 0.4167 0.2500  plane waves:   11383
 k-point 16 :  -0.4167 0.4167 0.2500  plane waves:   11374
 k-point 17 :  -0.2500 0.4167 0.2500  plane waves:   11392
 k-point 18 :  -0.0833 0.4167 0.2500  plane waves:   11377
 k-point 19 :   0.0833-0.4167 0.2500  plane waves:   11396
 k-point 20 :   0.2500-0.4167 0.2500  plane waves:   11379
 k-point 21 :   0.4167-0.4167 0.2500  plane waves:   11383
 k-point 22 :  -0.4167-0.4167 0.2500  plane waves:   11392
 k-point 23 :  -0.2500-0.4167 0.2500  plane waves:   11383
 k-point 24 :  -0.0833-0.4167 0.2500  plane waves:   11382
 k-point 25 :   0.0833-0.2500 0.2500  plane waves:   11364
 k-point 26 :   0.2500-0.2500 0.2500  plane waves:   11358
 k-point 27 :   0.4167-0.2500 0.2500  plane waves:   11384
 k-point 28 :  -0.4167-0.2500 0.2500  plane waves:   11389
 k-point 29 :  -0.2500-0.2500 0.2500  plane waves:   11381
 k-point 30 :  -0.0833-0.2500 0.2500  plane waves:   11369
 k-point 31 :   0.0833-0.0833 0.2500  plane waves:   11313
 k-point 32 :   0.2500-0.0833 0.2500  plane waves:   11342
 k-point 33 :   0.4167-0.0833 0.2500  plane waves:   11386
 k-point 34 :  -0.4167-0.0833 0.2500  plane waves:   11385
 k-point 35 :  -0.2500-0.0833 0.2500  plane waves:   11382
 k-point 36 :  -0.0833-0.0833 0.2500  plane waves:   11346

 maximum and minimum number of plane-waves per node :      2880     2812

 maximum number of plane-waves:     11403
 maximum index in each direction: 
   IXMAX=   11   IYMAX=   11   IZMAX=   25
   IXMIN=  -11   IYMIN=  -11   IZMIN=  -26


 real space projection operators:
  total allocation   :       7721.53 KBytes
  max/ min on nodes  :       1934.26       1926.02


 parallel 3D FFT for wavefunctions:
    minimum data exchange during FFTs selected (reduces bandwidth)
 parallel 3D FFT for charge:
    minimum data exchange during FFTs selected (reduces bandwidth)


 total amount of memory used by VASP MPI-rank0   143800. kBytes
=======================================================================

   base      :      30000. kBytes
   nonlr-proj:       4423. kBytes
   fftplans  :       1502. kBytes
   grid      :       4132. kBytes
   one-center:        342. kBytes
   wavefun   :     103401. kBytes
 
     INWAV:  cpu time    0.0000: real time    0.0002
 Broyden mixing: mesh for mixing (old mesh)
   NGX = 23   NGY = 23   NGZ = 51
  (NGX  = 72   NGY  = 72   NGZ  =160)
  gives a total of  26979 points

 initial charge density was supplied:
 charge density of overlapping atoms calculated
 number of electron     258.0000000 magnetization       6.0000000
 keeping initial charge density in first step


--------------------------------------------------------------------------------------------------------


 Maximum index for non-local projection operator          707
 Maximum index for augmentation-charges          985 (set IRDMAX)


--------------------------------------------------------------------------------------------------------


 First call to EWALD:  gamma=   0.254
 Maximum number of real-space cells 4x 4x 2
 Maximum number of reciprocal cells 2x 2x 5

    FEWALD:  cpu time    0.0050: real time    0.0055


--------------------------------------- Iteration      1(   1)  ---------------------------------------


    POTLOK:  cpu time    0.0610: real time    0.0642
    SETDIJ:  cpu time    0.0187: real time    0.0193
    TRIAL :  cpu time   21.1034: real time   21.1387
    CORREC:  cpu time    0.0038: real time    0.0038
    --------------------------------------------
      LOOP:  cpu time   21.3980: real time   21.4381

 eigenvalue-minimisations  : 23040
 total energy-change (2. order) : 0.3546721E+04  (-0.1404714E+05)
 number of electron     258.0000000 magnetization       6.0000000
 augmentation part      258.0000000 magnetization       6.0000000

 Free energy of the ion-electron system (eV)
  ---------------------------------------------------
  alpha Z        PSCENC =       859.94214442
  Ewald energy   TEWEN  =    -15766.10505474
  -Hartree energ DENC   =     -5759.84256902
  -exchange      EXHF   =         0.00000000
  -V(xc)+E(xc)   XCENC  =       848.79355082
  PAW double counting   =     17015.18481625   -17491.61297812
  entropy T*S    EENTRO =        -0.00637974
  eigenvalues    EBANDS =      3671.49663516
  atomic energy  EATOM  =     20168.87094289
  ---------------------------------------------------
  free energy    TOTEN  =      3546.72110792 eV

  energy without entropy =     3546.72748766  energy(sigma->0) =     3546.72429779


--------------------------------------------------------------------------------------------------------




--------------------------------------- Iteration      1(   2)  ---------------------------------------


    TRIAL :  cpu time   22.0866: real time   22.0923
    CORREC:  cpu time    0.0039: real time    0.0039
    --------------------------------------------
      LOOP:  cpu time   22.0947: real time   22.1003

 eigenvalue-minimisations  : 24496
 total energy-change (2. order) :-0.3136497E+04  (-0.2895256E+04)
 number of electron     258.0000000 magnetization       6.0000000
 augmentation part      258.0000000 magnetization       6.0000000

 Free energy of the ion-electron system (eV)
  ---------------------------------------------------
  alpha Z        PSCENC =       859.94214442
  Ewald energy   TEWEN  =    -15766.10505474
  -Hartree energ DENC   =     -5759.84256902
  -exchange      EXHF   =         0.00000000
  -V(xc)+E(xc)   XCENC  =       848.79355082
  PAW double counting   =     17015.18481625   -17491.61297812
  entropy T*S    EENTRO =        -0.02128283
  eigenvalues    EBANDS =       535.01462590
  atomic energy  EATOM  =     20168.87094289
  ---------------------------------------------------
  free energy    TOTEN  =       410.22419556 eV

  energy without entropy =      410.24547840  energy(sigma->0) =      410.23483698


--------------------------------------------------------------------------------------------------------




--------------------------------------- Iteration      1(   3)  ---------------------------------------


    TRIAL :  cpu time   22.8890: real time   22.8961
    CORREC:  cpu time    0.0042: real time    0.0042
    --------------------------------------------
      LOOP:  cpu time   22.8971: real time   22.9042

 eigenvalue-minimisations  : 25008
 total energy-change (2. order) :-0.6281985E+03  (-0.5618536E+03)
 number of electron     258.0000000 magnetization       6.0000000
 augmentation part      258.0000000 magnetization       6.0000000

 Free energy of the ion-electron system (eV)
  ---------------------------------------------------
  alpha Z        PSCENC =       859.94214442
  Ewald energy   TEWEN  =    -15766.10505474
  -Hartree energ DENC   =     -5759.84256902
  -exchange      EXHF   =         0.00000000
  -V(xc)+E(xc)   XCENC  =       848.79355082
  PAW double counting   =     17015.18481625   -17491.61297812
  entropy T*S    EENTRO =        -0.02400861
  eigenvalues    EBANDS =       -93.18111621
  atomic energy  EATOM  =     20168.87094289
  ---------------------------------------------------
  free energy    TOTEN  =      -217.97427233 eV

  energy without entropy =     -217.95026372  energy(sigma->0) =     -217.96226802


--------------------------------------------------------------------------------------------------------




--------------------------------------- Iteration      1(   4)  ---------------------------------------


    TRIAL :  cpu time   22.6381: real time   22.6433
    CORREC:  cpu time    0.0040: real time    0.0040
    --------------------------------------------
      LOOP:  cpu time   22.6461: real time   22.6514

 eigenvalue-minimisations  : 25200
 total energy-change (2. order) :-0.5111040E+02  (-0.5013033E+02)
 number of electron     258.0000000 magnetization       6.0000000
 augmentation part      258.0000000 magnetization       6.0000000

 Free energy of the ion-electron system (eV)
  ---------------------------------------------------
  alpha Z        PSCENC =       859.94214442
  Ewald energy   TEWEN  =    -15766.10505474
  -Hartree energ DENC   =     -5759.84256902
  -exchange      EXHF   =         0.00000000
  -V(xc)+E(xc)   XCENC  =       848.79355082
  PAW double counting   =     17015.18481625   -17491.61297812
  entropy T*S    EENTRO =        -0.02249368
  eigenvalues    EBANDS =      -144.29303408
  atomic energy  EATOM  =     20168.87094289
  ---------------------------------------------------
  free energy    TOTEN  =      -269.08467526 eV

  energy without entropy =     -269.06218158  energy(sigma->0) =     -269.07342842


--------------------------------------------------------------------------------------------------------




--------------------------------------- Iteration      1(   5)  ---------------------------------------


    TRIAL :  cpu time   24.9404: real time   24.9461
    CORREC:  cpu time    0.0050: real time    0.0050
    CHARGE:  cpu time    0.3634: real time    0.3634
    --------------------------------------------
      LOOP:  cpu time   25.3128: real time   25.3185

 eigenvalue-minimisations  : 28384
 total energy-change (2. order) :-0.1630612E+01  (-0.1628335E+01)
 number of electron     257.9999997 magnetization       6.0000001
 augmentation part       68.0992529 magnetization       4.3201713

 Free energy of the ion-electron system (eV)
  ---------------------------------------------------
  alpha Z        PSCENC =       859.94214442
  Ewald energy   TEWEN  =    -15766.10505474
  -Hartree energ DENC   =     -5759.84256902
  -exchange      EXHF   =         0.00000000
  -V(xc)+E(xc)   XCENC  =       848.79355082
  PAW double counting   =     17015.18481625   -17491.61297812
  entropy T*S    EENTRO =        -0.02261295
  eigenvalues    EBANDS =      -145.92352663
  atomic energy  EATOM  =     20168.87094289
  ---------------------------------------------------
  free energy    TOTEN  =      -270.71528709 eV

  energy without entropy =     -270.69267414  energy(sigma->0) =     -270.70398061


--------------------------------------------------------------------------------------------------------




--------------------------------------- Iteration      1(   6)  ---------------------------------------


    POTLOK:  cpu time    0.0413: real time    0.0413
    SETDIJ:  cpu time    0.0128: real time    0.0128
    TRIAL :  cpu time   11.9875: real time   12.0070
    CORREC:  cpu time    3.8469: real time    3.8498
    CHARGE:  cpu time    0.3679: real time    0.3679
    --------------------------------------------
      LOOP:  cpu time   16.2606: real time   16.2830

 eigenvalue-minimisations  :     0
 total energy-change (2. order) : 0.3993893E+03  (-0.3201452E+03)
 number of electron     257.9999997 magnetization       6.0000004
 augmentation part       71.0207120 magnetization       4.4677352

 Free energy of the ion-electron system (eV)
  ---------------------------------------------------
  alpha Z        PSCENC =       859.94214442
  Ewald energy   TEWEN  =    -15766.10505474
  -Hartree energ DENC   =     -5370.03404133
  -exchange      EXHF   =         0.00000000
  -V(xc)+E(xc)   XCENC  =       882.26327289
  PAW double counting   =     24267.93467175   -24478.26439511
  entropy T*S    EENTRO =        -0.03490443
  eigenvalues    EBANDS =      -435.91087853
  atomic energy  EATOM  =     20168.87094289
  ---------------------------------------------------
  free energy    TOTEN  =       128.67404929 eV

  energy without entropy =      128.70895372  energy(sigma->0) =      128.69150150


--------------------------------------------------------------------------------------------------------




--------------------------------------- Iteration      1(   7)  ---------------------------------------


    POTLOK:  cpu time    0.0417: real time    0.0417
    SETDIJ:  cpu time    0.0129: real time    0.0129
    TRIAL :  cpu time   11.9769: real time   11.9801
    CORREC:  cpu time    3.7391: real time    3.7409
    CHARGE:  cpu time    0.3667: real time    0.3668
    --------------------------------------------
      LOOP:  cpu time   16.1415: real time   16.1466

 eigenvalue-minimisations  :     0
 total energy-change (2. order) :-0.1362873E+03  (-0.2280712E+02)
 number of electron     257.9999998 magnetization       6.0000004
 augmentation part       71.5367628 magnetization       4.4559443

 Free energy of the ion-electron system (eV)
  ---------------------------------------------------
  alpha Z        PSCENC =       859.94214442
  Ewald energy   TEWEN  =    -15766.10505474
  -Hartree energ DENC   =     -5673.66830791
  -exchange      EXHF   =         0.00000000
  -V(xc)+E(xc)   XCENC  =       871.64516060
  PAW double counting   =     24305.21358139   -24631.38073696
  entropy T*S    EENTRO =        -0.03474907
  eigenvalues    EBANDS =      -142.09606008
  atomic energy  EATOM  =     20168.87094289
  ---------------------------------------------------
  free energy    TOTEN  =        -7.61323483 eV

  energy without entropy =       -7.57848577  energy(sigma->0) =       -7.59586030


--------------------------------------------------------------------------------------------------------




--------------------------------------- Iteration      1(   8)  ---------------------------------------


    POTLOK:  cpu time    0.0413: real time    0.0414
    SETDIJ:  cpu time    0.0128: real time    0.0128
    TRIAL :  cpu time   11.9674: real time   11.9713
    CORREC:  cpu time    3.8152: real time    3.8168
    CHARGE:  cpu time    0.3640: real time    0.3642
    --------------------------------------------
      LOOP:  cpu time   16.2047: real time   16.2110

 eigenvalue-minimisations  :     0
 total energy-change (2. order) :-0.3420080E+02  (-0.9998158E+01)
 number of electron     257.9999998 magnetization       6.0000004
 augmentation part       71.7909282 magnetization       4.4230392

 Free energy of the ion-electron system (eV)
  ---------------------------------------------------
  alpha Z        PSCENC =       859.94214442
  Ewald energy   TEWEN  =    -15766.10505474
  -Hartree energ DENC   =     -5659.07730810
  -exchange      EXHF   =         0.00000000
  -V(xc)+E(xc)   XCENC  =       869.15781937
  PAW double counting   =     24282.10283240   -24628.58670797
  entropy T*S    EENTRO =        -0.04675854
  eigenvalues    EBANDS =      -168.08395673
  atomic energy  EATOM  =     20168.87094289
  ---------------------------------------------------
  free energy    TOTEN  =       -41.81403753 eV

  energy without entropy =      -41.76727899  energy(sigma->0) =      -41.79065826


--------------------------------------------------------------------------------------------------------




--------------------------------------- Iteration      1(   9)  ---------------------------------------


    POTLOK:  cpu time    0.0412: real time    0.0413
    SETDIJ:  cpu time    0.0127: real time    0.0127
    TRIAL :  cpu time   11.8469: real time   11.9128
    CORREC:  cpu time    3.8264: real time    3.8432
    CHARGE:  cpu time    0.3756: real time    0.3767
    --------------------------------------------
      LOOP:  cpu time   16.1070: real time   16.1908

 eigenvalue-minimisations  :     0
 total energy-change (2. order) :-0.4625074E+02  (-0.7017638E+02)
 number of electron     258.0000002 magnetization       6.0000001
 augmentation part       72.5319337 magnetization       4.3819384

 Free energy of the ion-electron system (eV)
  ---------------------------------------------------
  alpha Z        PSCENC =       859.94214442
  Ewald energy   TEWEN  =    -15766.10505474
  -Hartree energ DENC   =     -5584.35169944
  -exchange      EXHF   =         0.00000000
  -V(xc)+E(xc)   XCENC  =       867.66479409
  PAW double counting   =     24257.89238133   -24612.27076548
  entropy T*S    EENTRO =        -0.03565795
  eigenvalues    EBANDS =      -279.66076624
  atomic energy  EATOM  =     20168.87094289
  ---------------------------------------------------
  free energy    TOTEN  =       -88.06478171 eV

  energy without entropy =      -88.02912376  energy(sigma->0) =      -88.04695273


--------------------------------------------------------------------------------------------------------




--------------------------------------- Iteration      1(  10)  ---------------------------------------


    POTLOK:  cpu time    0.0417: real time    0.0418
    SETDIJ:  cpu time    0.0128: real time    0.0128
    TRIAL :  cpu time   12.2224: real time   13.2462
    CORREC:  cpu time    4.0069: real time    4.1114
    CHARGE:  cpu time    0.3651: real time    0.3652
    --------------------------------------------
      LOOP:  cpu time   16.6530: real time   17.7814

 eigenvalue-minimisations  :     0
 total energy-change (2. order) :-0.2994780E+02  (-0.1190397E+03)
 number of electron     258.0000000 magnetization       6.0000004
 augmentation part       73.3144652 magnetization       4.4369762

 Free energy of the ion-electron system (eV)
  ---------------------------------------------------
  alpha Z        PSCENC =       859.94214442
  Ewald energy   TEWEN  =    -15766.10505474
  -Hartree energ DENC   =     -5403.98734970
  -exchange      EXHF   =         0.00000000
  -V(xc)+E(xc)   XCENC  =       866.12157323
  PAW double counting   =     24341.49614499   -24724.10258984
  entropy T*S    EENTRO =        -0.03563265
  eigenvalues    EBANDS =      -460.21273811
  atomic energy  EATOM  =     20168.87094289
  ---------------------------------------------------
  free energy    TOTEN  =      -118.01258483 eV

  energy without entropy =     -117.97695218  energy(sigma->0) =     -117.99476850


--------------------------------------------------------------------------------------------------------




--------------------------------------- Iteration      1(  11)  ---------------------------------------


    POTLOK:  cpu time    0.0413: real time    0.0413
    SETDIJ:  cpu time    0.0180: real time    0.0180
    TRIAL :  cpu time   11.7006: real time   11.7080
    CORREC:  cpu time    3.8899: real time    3.8927
    CHARGE:  cpu time    0.3643: real time    0.3644
    --------------------------------------------
      LOOP:  cpu time   16.0181: real time   16.0285

 eigenvalue-minimisations  :     0
 total energy-change (2. order) : 0.9553193E+01  (-0.9148307E+02)
 number of electron     258.0000006 magnetization       6.0000001
 augmentation part       75.4569018 magnetization       4.2765375

 Free energy of the ion-electron system (eV)
  ---------------------------------------------------
  alpha Z        PSCENC =       859.94214442
  Ewald energy   TEWEN  =    -15766.10505474
  -Hartree energ DENC   =     -5689.61494246
  -exchange      EXHF   =         0.00000000
  -V(xc)+E(xc)   XCENC  =       863.40266007
  PAW double counting   =     24521.29218840   -24942.22039089
  entropy T*S    EENTRO =        -0.02937778
  eigenvalues    EBANDS =      -123.99130651
  atomic energy  EATOM  =     20168.87094289
  ---------------------------------------------------
  free energy    TOTEN  =      -108.45939148 eV

  energy without entropy =     -108.43001370  energy(sigma->0) =     -108.44470259


--------------------------------------------------------------------------------------------------------




--------------------------------------- Iteration      1(  12)  ---------------------------------------


    POTLOK:  cpu time    0.0411: real time    0.0411
    SETDIJ:  cpu time    0.0132: real time    0.0132
    TRIAL :  cpu time   11.9760: real time   11.9790
    CORREC:  cpu time    3.7441: real time    3.7456
    CHARGE:  cpu time    0.3632: real time    0.3633
    --------------------------------------------
      LOOP:  cpu time   16.1415: real time   16.1461

 eigenvalue-minimisations  :     0
 total energy-change (2. order) :-0.6053250E+02  (-0.5259708E+02)
 number of electron     258.0000007 magnetization       6.0000001
 augmentation part       77.3782296 magnetization       4.0572401

 Free energy of the ion-electron system (eV)
  ---------------------------------------------------
  alpha Z        PSCENC =       859.94214442
  Ewald energy   TEWEN  =    -15766.10505474
  -Hartree energ DENC   =     -5518.96781252
  -exchange      EXHF   =         0.00000000
  -V(xc)+E(xc)   XCENC  =       858.31525112
  PAW double counting   =     24910.79253435   -25419.83169496
  entropy T*S    EENTRO =        -0.02550561
  eigenvalues    EBANDS =      -261.97882599
  atomic energy  EATOM  =     20168.87094289
  ---------------------------------------------------
  free energy    TOTEN  =      -168.99189322 eV

  energy without entropy =     -168.96638761  energy(sigma->0) =     -168.97914041


--------------------------------------------------------------------------------------------------------




--------------------------------------- Iteration      1(  13)  ---------------------------------------


    POTLOK:  cpu time    0.0413: real time    0.0413
    SETDIJ:  cpu time    0.0128: real time    0.0128
    TRIAL :  cpu time   11.7833: real time   11.8331
    CORREC:  cpu time    3.7254: real time    3.7411
    CHARGE:  cpu time    0.3661: real time    0.3674
    --------------------------------------------
      LOOP:  cpu time   15.9327: real time   15.9995

 eigenvalue-minimisations  :     0
 total energy-change (2. order) :-0.2645452E+02  (-0.1167570E+02)
 number of electron     258.0000005 magnetization       6.0000002
 augmentation part       76.0637571 magnetization       4.0819563

 Free energy of the ion-electron system (eV)
  ---------------------------------------------------
  alpha Z        PSCENC =       859.94214442
  Ewald energy   TEWEN  =    -15766.10505474
  -Hartree energ DENC   =     -5700.39668531
  -exchange      EXHF   =         0.00000000
  -V(xc)+E(xc)   XCENC  =       853.69547316
  PAW double counting   =     25290.26269156   -25878.89670470
  entropy T*S    EENTRO =        -0.02358839
  eigenvalues    EBANDS =       -22.79371158
  atomic energy  EATOM  =     20168.87094289
  ---------------------------------------------------
  free energy    TOTEN  =      -195.44640992 eV

  energy without entropy =     -195.42282154  energy(sigma->0) =     -195.43461573


--------------------------------------------------------------------------------------------------------




--------------------------------------- Iteration      1(  14)  ---------------------------------------


    POTLOK:  cpu time    0.0412: real time    0.0413
    SETDIJ:  cpu time    0.0127: real time    0.0127
    TRIAL :  cpu time   12.0573: real time   12.1303
    CORREC:  cpu time    3.7458: real time    3.7735
    CHARGE:  cpu time    0.3650: real time    0.3650
    --------------------------------------------
      LOOP:  cpu time   16.2260: real time   16.3269

 eigenvalue-minimisations  :     0
 total energy-change (2. order) :-0.1158507E+02  (-0.7711318E+01)
 number of electron     258.0000006 magnetization       6.0000001
 augmentation part       75.0755212 magnetization       4.0632079

 Free energy of the ion-electron system (eV)
  ---------------------------------------------------
  alpha Z        PSCENC =       859.94214442
  Ewald energy   TEWEN  =    -15766.10505474
  -Hartree energ DENC   =     -5684.38904202
  -exchange      EXHF   =         0.00000000
  -V(xc)+E(xc)   XCENC  =       854.35947498
  PAW double counting   =     24813.30703530   -25335.47199773
  entropy T*S    EENTRO =        -0.02141600
  eigenvalues    EBANDS =      -117.52139200
  atomic energy  EATOM  =     20168.87094289
  ---------------------------------------------------
  free energy    TOTEN  =      -207.03147730 eV

  energy without entropy =     -207.01006130  energy(sigma->0) =     -207.02076930


--------------------------------------------------------------------------------------------------------




--------------------------------------- Iteration      1(  15)  ---------------------------------------


    POTLOK:  cpu time    0.0413: real time    0.0413
    SETDIJ:  cpu time    0.0129: real time    0.0128
    TRIAL :  cpu time   12.0157: real time   12.0273
    CORREC:  cpu time    3.7727: real time    3.7748
    CHARGE:  cpu time    0.3622: real time    0.3622
    --------------------------------------------
      LOOP:  cpu time   16.2086: real time   16.2224

 eigenvalue-minimisations  :     0
 total energy-change (2. order) :-0.5860519E+01  (-0.1422945E+01)
 number of electron     258.0000005 magnetization       6.0000001
 augmentation part       75.1792728 magnetization       4.0101674

 Free energy of the ion-electron system (eV)
  ---------------------------------------------------
  alpha Z        PSCENC =       859.94214442
  Ewald energy   TEWEN  =    -15766.10505474
  -Hartree energ DENC   =     -5616.57755860
  -exchange      EXHF   =         0.00000000
  -V(xc)+E(xc)   XCENC  =       855.16724286
  PAW double counting   =     24531.44089552   -25002.53544410
  entropy T*S    EENTRO =        -0.02025265
  eigenvalues    EBANDS =      -243.07374855
  atomic energy  EATOM  =     20168.87094289
  ---------------------------------------------------
  free energy    TOTEN  =      -212.89199630 eV

  energy without entropy =     -212.87174365  energy(sigma->0) =     -212.88186997


--------------------------------------------------------------------------------------------------------




--------------------------------------- Iteration      1(  16)  ---------------------------------------


    POTLOK:  cpu time    0.0414: real time    0.0414
    SETDIJ:  cpu time    0.0128: real time    0.0128
    TRIAL :  cpu time   11.9202: real time   11.9236
    CORREC:  cpu time    3.7386: real time    3.7402
    CHARGE:  cpu time    0.3610: real time    0.3610
    --------------------------------------------
      LOOP:  cpu time   16.0780: real time   16.0829

 eigenvalue-minimisations  :     0
 total energy-change (2. order) :-0.1333511E+01  (-0.1919264E+01)
 number of electron     258.0000006 magnetization       6.0000001
 augmentation part       75.7199884 magnetization       3.8758737

 Free energy of the ion-electron system (eV)
  ---------------------------------------------------
  alpha Z        PSCENC =       859.94214442
  Ewald energy   TEWEN  =    -15766.10505474
  -Hartree energ DENC   =     -5642.93333286
  -exchange      EXHF   =         0.00000000
  -V(xc)+E(xc)   XCENC  =       855.55798484
  PAW double counting   =     24476.07921921   -24943.31298639
  entropy T*S    EENTRO =        -0.01827939
  eigenvalues    EBANDS =      -222.30417181
  atomic energy  EATOM  =     20168.87094289
  ---------------------------------------------------
  free energy    TOTEN  =      -214.22550709 eV

  energy without entropy =     -214.20722770  energy(sigma->0) =     -214.21636740


--------------------------------------------------------------------------------------------------------




--------------------------------------- Iteration      1(  17)  ---------------------------------------


    POTLOK:  cpu time    0.0415: real time    0.0416
    SETDIJ:  cpu time    0.0127: real time    0.0127
    TRIAL :  cpu time   11.8072: real time   11.8156
    CORREC:  cpu time    3.7570: real time    3.7631
    CHARGE:  cpu time    0.3633: real time    0.3636
    --------------------------------------------
      LOOP:  cpu time   15.9854: real time   16.0004

 eigenvalue-minimisations  :     0
 total energy-change (2. order) :-0.1861877E+01  (-0.6971986E+00)
 number of electron     258.0000006 magnetization       6.0000001
 augmentation part       75.9399944 magnetization       3.8062470

 Free energy of the ion-electron system (eV)
  ---------------------------------------------------
  alpha Z        PSCENC =       859.94214442
  Ewald energy   TEWEN  =    -15766.10505474
  -Hartree energ DENC   =     -5658.78491967
  -exchange      EXHF   =         0.00000000
  -V(xc)+E(xc)   XCENC  =       856.29805602
  PAW double counting   =     24433.82161519   -24907.11423447
  entropy T*S    EENTRO =        -0.01725726
  eigenvalues    EBANDS =      -202.99765403
  atomic energy  EATOM  =     20168.87094289
  ---------------------------------------------------
  free energy    TOTEN  =      -216.08738379 eV

  energy without entropy =     -216.07012654  energy(sigma->0) =     -216.07875516


--------------------------------------------------------------------------------------------------------




--------------------------------------- Iteration      1(  18)  ---------------------------------------


    POTLOK:  cpu time    0.0413: real time    0.0414
    SETDIJ:  cpu time    0.0128: real time    0.0128
    TRIAL :  cpu time   11.8219: real time   11.8455
    CORREC:  cpu time    3.7362: real time    3.7387
    CHARGE:  cpu time    0.3633: real time    0.3633
    --------------------------------------------
      LOOP:  cpu time   15.9794: real time   16.0057

 eigenvalue-minimisations  :     0
 total energy-change (2. order) :-0.6860378E+00  (-0.4993850E+00)
 number of electron     258.0000006 magnetization       6.0000001
 augmentation part       76.0136615 magnetization       3.7459622

 Free energy of the ion-electron system (eV)
  ---------------------------------------------------
  alpha Z        PSCENC =       859.94214442
  Ewald energy   TEWEN  =    -15766.10505474
  -Hartree energ DENC   =     -5686.86271515
  -exchange      EXHF   =         0.00000000
  -V(xc)+E(xc)   XCENC  =       856.56511648
  PAW double counting   =     24408.02073158   -24882.53424003
  entropy T*S    EENTRO =        -0.01652114
  eigenvalues    EBANDS =      -174.65308974
  atomic energy  EATOM  =     20168.87094289
  ---------------------------------------------------
  free energy    TOTEN  =      -216.77342156 eV

  energy without entropy =     -216.75690042  energy(sigma->0) =     -216.76516099


--------------------------------------------------------------------------------------------------------




--------------------------------------- Iteration      1(  19)  ---------------------------------------


    POTLOK:  cpu time    0.0412: real time    0.0413
    SETDIJ:  cpu time    0.0127: real time    0.0127
    TRIAL :  cpu time   11.9578: real time   11.9608
    CORREC:  cpu time    3.7877: real time    3.7896
    CHARGE:  cpu time    0.3634: real time    0.3635
    --------------------------------------------
      LOOP:  cpu time   16.1668: real time   16.1718

 eigenvalue-minimisations  :     0
 total energy-change (2. order) :-0.4877193E+00  (-0.1905345E+00)
 number of electron     258.0000006 magnetization       6.0000001
 augmentation part       76.0036913 magnetization       3.7149458

 Free energy of the ion-electron system (eV)
  ---------------------------------------------------
  alpha Z        PSCENC =       859.94214442
  Ewald energy   TEWEN  =    -15766.10505474
  -Hartree energ DENC   =     -5694.73967168
  -exchange      EXHF   =         0.00000000
  -V(xc)+E(xc)   XCENC  =       856.77686607
  PAW double counting   =     24362.04198325   -24832.03115638
  entropy T*S    EENTRO =        -0.01603532
  eigenvalues    EBANDS =      -172.00067354
  atomic energy  EATOM  =     20168.87094289
  ---------------------------------------------------
  free energy    TOTEN  =      -217.26114086 eV

  energy without entropy =     -217.24510554  energy(sigma->0) =     -217.25312320


--------------------------------------------------------------------------------------------------------




--------------------------------------- Iteration      1(  20)  ---------------------------------------


    POTLOK:  cpu time    0.0412: real time    0.0412
    SETDIJ:  cpu time    0.0130: real time    0.0130
    TRIAL :  cpu time   12.0599: real time   12.0667
    CORREC:  cpu time    3.7848: real time    3.7872
    CHARGE:  cpu time    0.3644: real time    0.3644
    --------------------------------------------
      LOOP:  cpu time   16.2671: real time   16.2763

 eigenvalue-minimisations  :     0
 total energy-change (2. order) :-0.1840420E+00  (-0.1100194E+00)
 number of electron     258.0000006 magnetization       6.0000001
 augmentation part       76.0257262 magnetization       3.6817696

 Free energy of the ion-electron system (eV)
  ---------------------------------------------------
  alpha Z        PSCENC =       859.94214442
  Ewald energy   TEWEN  =    -15766.10505474
  -Hartree energ DENC   =     -5697.66964763
  -exchange      EXHF   =         0.00000000
  -V(xc)+E(xc)   XCENC  =       856.86214842
  PAW double counting   =     24335.11756976   -24800.95934676
  entropy T*S    EENTRO =        -0.01523621
  eigenvalues    EBANDS =      -173.48790393
  atomic energy  EATOM  =     20168.87094289
  ---------------------------------------------------
  free energy    TOTEN  =      -217.44518289 eV

  energy without entropy =     -217.42994668  energy(sigma->0) =     -217.43756479


--------------------------------------------------------------------------------------------------------




--------------------------------------- Iteration      1(  21)  ---------------------------------------


    POTLOK:  cpu time    0.0411: real time    0.0411
    SETDIJ:  cpu time    0.0127: real time    0.0127
    TRIAL :  cpu time   11.8713: real time   11.8819
    CORREC:  cpu time    3.8645: real time    3.8661
    CHARGE:  cpu time    0.4350: real time    0.4350
    --------------------------------------------
      LOOP:  cpu time   16.2289: real time   16.2411

 eigenvalue-minimisations  :     0
 total energy-change (2. order) :-0.1093467E+00  (-0.1027185E+00)
 number of electron     258.0000006 magnetization       6.0000001
 augmentation part       76.0906343 magnetization       3.6430275

 Free energy of the ion-electron system (eV)
  ---------------------------------------------------
  alpha Z        PSCENC =       859.94214442
  Ewald energy   TEWEN  =    -15766.10505474
  -Hartree energ DENC   =     -5692.00698118
  -exchange      EXHF   =         0.00000000
  -V(xc)+E(xc)   XCENC  =       856.95303316
  PAW double counting   =     24322.96785602   -24786.69115766
  entropy T*S    EENTRO =        -0.01477419
  eigenvalues    EBANDS =      -181.47007624
  atomic energy  EATOM  =     20168.87094289
  ---------------------------------------------------
  free energy    TOTEN  =      -217.55452955 eV

  energy without entropy =     -217.53975536  energy(sigma->0) =     -217.54714245


--------------------------------------------------------------------------------------------------------




--------------------------------------- Iteration      1(  22)  ---------------------------------------


    POTLOK:  cpu time    0.0409: real time    0.0409
    SETDIJ:  cpu time    0.0128: real time    0.0128
    TRIAL :  cpu time   11.8611: real time   11.8835
    CORREC:  cpu time    3.9361: real time    3.9386
    CHARGE:  cpu time    0.3649: real time    0.3649
    --------------------------------------------
      LOOP:  cpu time   16.2202: real time   16.2451

 eigenvalue-minimisations  :     0
 total energy-change (2. order) :-0.9984495E-01  (-0.7717154E-01)
 number of electron     258.0000006 magnetization       6.0000001
 augmentation part       76.1760448 magnetization       3.6120018

 Free energy of the ion-electron system (eV)
  ---------------------------------------------------
  alpha Z        PSCENC =       859.94214442
  Ewald energy   TEWEN  =    -15766.10505474
  -Hartree energ DENC   =     -5695.21825162
  -exchange      EXHF   =         0.00000000
  -V(xc)+E(xc)   XCENC  =       857.04986576
  PAW double counting   =     24320.45113899   -24784.01576565
  entropy T*S    EENTRO =        -0.01405633
  eigenvalues    EBANDS =      -178.61462036
  atomic energy  EATOM  =     20168.87094289
  ---------------------------------------------------
  free energy    TOTEN  =      -217.65437450 eV

  energy without entropy =     -217.64031818  energy(sigma->0) =     -217.64734634


--------------------------------------------------------------------------------------------------------




--------------------------------------- Iteration      1(  23)  ---------------------------------------


    POTLOK:  cpu time    0.0413: real time    0.0413
    SETDIJ:  cpu time    0.0128: real time    0.0128
    TRIAL :  cpu time   11.7558: real time   11.7606
    CORREC:  cpu time    3.8874: real time    3.8887
    CHARGE:  cpu time    0.3581: real time    0.3581
    --------------------------------------------
      LOOP:  cpu time   16.0596: real time   16.0658

 eigenvalue-minimisations  :     0
 total energy-change (2. order) :-0.7715708E-01  (-0.7580761E-01)
 number of electron     258.0000006 magnetization       6.0000001
 augmentation part       76.2124907 magnetization       3.5879488

 Free energy of the ion-electron system (eV)
  ---------------------------------------------------
  alpha Z        PSCENC =       859.94214442
  Ewald energy   TEWEN  =    -15766.10505474
  -Hartree energ DENC   =     -5695.28058055
  -exchange      EXHF   =         0.00000000
  -V(xc)+E(xc)   XCENC  =       857.14974740
  PAW double counting   =     24325.80771416   -24791.15623982
  entropy T*S    EENTRO =        -0.01353517
  eigenvalues    EBANDS =      -176.94614901
  atomic energy  EATOM  =     20168.87094289
  ---------------------------------------------------
  free energy    TOTEN  =      -217.73153158 eV

  energy without entropy =     -217.71799641  energy(sigma->0) =     -217.72476400


--------------------------------------------------------------------------------------------------------




--------------------------------------- Iteration      1(  24)  ---------------------------------------


    POTLOK:  cpu time    0.0412: real time    0.0413
    SETDIJ:  cpu time    0.0128: real time    0.0128
    TRIAL :  cpu time   11.7636: real time   11.7665
    CORREC:  cpu time    3.8956: real time    3.8974
    CHARGE:  cpu time    0.3550: real time    0.3551
    --------------------------------------------
      LOOP:  cpu time   16.0726: real time   16.0775

 eigenvalue-minimisations  :     0
 total energy-change (2. order) :-0.7580942E-01  (-0.8360082E-01)
 number of electron     258.0000005 magnetization       6.0000001
 augmentation part       76.1736159 magnetization       3.5731670

 Free energy of the ion-electron system (eV)
  ---------------------------------------------------
  alpha Z        PSCENC =       859.94214442
  Ewald energy   TEWEN  =    -15766.10505474
  -Hartree energ DENC   =     -5701.73606512
  -exchange      EXHF   =         0.00000000
  -V(xc)+E(xc)   XCENC  =       857.18364802
  PAW double counting   =     24323.82994525   -24789.99133490
  entropy T*S    EENTRO =        -0.01274107
  eigenvalues    EBANDS =      -169.78803164
  atomic energy  EATOM  =     20168.87094289
  ---------------------------------------------------
  free energy    TOTEN  =      -217.80734100 eV

  energy without entropy =     -217.79459994  energy(sigma->0) =     -217.80097047


--------------------------------------------------------------------------------------------------------




--------------------------------------- Iteration      1(  25)  ---------------------------------------


    POTLOK:  cpu time    0.0415: real time    0.0415
    SETDIJ:  cpu time    0.0130: real time    0.0130
    TRIAL :  cpu time   12.0342: real time   12.0676
    CORREC:  cpu time    3.7640: real time    3.7697
    CHARGE:  cpu time    0.3551: real time    0.3556
    --------------------------------------------
      LOOP:  cpu time   16.2123: real time   16.2518

 eigenvalue-minimisations  :     0
[...]
   20        1.586   3.367   0.000   4.953
   21        1.591   3.368   0.000   4.960
   22        1.578   3.438   0.000   5.015
   23        1.580   3.420   0.000   5.000
   24        1.584   3.405   0.000   4.989
   25        1.584   3.414   0.000   4.998
   26        1.595   3.344   0.000   4.939
   27        1.558   3.490   0.000   5.048
   28        1.558   3.479   0.000   5.037
   29        1.558   3.485   0.000   5.043
   30        1.558   3.504   0.000   5.061
   31        1.584   3.334   0.000   4.918
   32        1.575   3.472   0.000   5.047
   33        1.579   3.421   0.000   5.000
   34        1.575   3.463   0.000   5.038
   35        1.586   3.395   0.000   4.981
   36        1.582   3.408   0.000   4.990
   37        1.579   3.418   0.000   4.997
   38        1.581   3.406   0.000   4.987
   39        1.559   3.451   0.000   5.010
   40        1.559   3.456   0.000   5.015
   41        1.560   3.501   0.000   5.062
   42        1.558   3.460   0.000   5.018
--------------------------------------------------
tot         44.021  92.720  88.333 225.074
 


 magnetization (x)
 
# of ion       s       p       d       tot
------------------------------------------
    1        0.001   0.001   0.000   0.001
    2       -0.001  -0.002   0.000  -0.002
    3       -0.000  -0.002   0.000  -0.002
    4        0.001   0.000   0.000   0.001
    5        0.000  -0.000   0.000  -0.000
    6        0.001   0.001   0.000   0.001
    7        0.003   0.005  -0.019  -0.010
    8        0.013   0.019   1.301   1.332
    9        0.011   0.016   1.204   1.232
   10        0.014   0.018   1.419   1.451
   11        0.002   0.002   0.034   0.038
   12        0.001   0.003   0.017   0.021
   13        0.008   0.007   1.160   1.175
   14        0.001   0.005   0.017   0.023
   15        0.002   0.005   0.034   0.041
   16        0.009   0.011   1.332   1.352
   17        0.002   0.003   0.110   0.115
   18        0.001   0.003   0.030   0.033
   19        0.001  -0.086   0.000  -0.084
   20        0.003  -0.070   0.000  -0.068
   21        0.002  -0.097   0.000  -0.095
   22        0.001  -0.075   0.000  -0.074
   23        0.001  -0.061   0.000  -0.060
   24        0.001  -0.108   0.000  -0.106
   25        0.002  -0.058   0.000  -0.056
   26        0.002  -0.124   0.000  -0.122
   27        0.001  -0.016   0.000  -0.016
   28        0.000  -0.026   0.000  -0.026
   29        0.000  -0.016   0.000  -0.015
   30        0.001   0.021   0.000   0.021
   31        0.003   0.118   0.000   0.121
   32        0.000  -0.008   0.000  -0.007
   33       -0.000  -0.041   0.000  -0.041
   34        0.001  -0.015   0.000  -0.015
   35        0.001  -0.027   0.000  -0.026
   36       -0.000  -0.095   0.000  -0.095
   37        0.002   0.103   0.000   0.105
   38        0.000  -0.052   0.000  -0.052
   39        0.001   0.038   0.000   0.039
   40        0.001  -0.016   0.000  -0.016
   41        0.001  -0.009   0.000  -0.008
   42        0.001  -0.014   0.000  -0.014
--------------------------------------------------
tot          0.094  -0.639   6.638   6.093
 
    FORLOC:  cpu time    0.0069: real time    0.0069
    FORNL :  cpu time    4.0832: real time    4.0847
    STRESS:  cpu time   12.2729: real time   12.2758
    FORCOR:  cpu time    0.0443: real time    0.0443
    OFIELD:  cpu time    0.0004: real time    0.0004

  DFT-D2 method for vdW energy calculation
  -------------------------------------------------------------------

  Parameters of vdW forcefield:
         C6(Jnm^6/mol)     R0(A)
   -----------------------------
   Li       1.610          0.825
   Co      10.800          1.562
   O        0.700          1.342

  IVDW =   1
  VDW_RADIUS =    50.000 A
  VDW_S6 =     0.750
  VDW_SR =     1.000
  VDW_D =    20.000
  LVDW_EWALD = F

  Number of pair interactions contributing to vdW energy: 1386759
  Edisp (eV):  -11.17562
    FORVDW:  cpu time    0.1914: real time    0.1924

  FORCE on cell =-STRESS in cart. coord.  units (eV):
  Direction    XX          YY          ZZ          XY          YZ          ZX
  --------------------------------------------------------------------------------------
  Alpha Z   859.94214   859.94214   859.94214
  Ewald   -3449.44462 -3226.07806 -9090.65592    90.38475   -86.06018    94.71201
  Hartree  3232.70085  3334.34958  -879.36229    24.83889   -37.18261    36.01533
  E(xc)   -1290.72468 -1290.45208 -1290.31441    -0.05642     0.02665    -0.14525
  Local   -4859.53738 -5169.27613  4874.41739  -109.19445   122.66317  -126.83854
  n-local  -593.13188  -585.56927  -593.99928     3.63852    -3.34770     4.47857
  augment  2024.52511  2016.25625  1998.68562    -2.03109    -0.05707    -0.34507
  Kinetic  4102.71864  4094.84955  4150.15335    -5.08975    -1.25431     2.09460
  Fock        0.00000     0.00000     0.00000     0.00000     0.00000     0.00000
  vdW        -7.31761    -7.78954   -13.72041    -0.28537    -0.04674     0.27097
  -------------------------------------------------------------------------------------
  Total      19.73058    26.23244    15.14620     2.20507    -5.25878    10.24263
  in kB      92.72674   123.28319    71.18178    10.36306   -24.71442    48.13672
  external pressure =       95.73 kB  Pullay stress =        0.00 kB


 VOLUME and BASIS-vectors are now :
 -----------------------------------------------------------------------------
  energy-cutoff  :      600.00
  volume of cell :      340.91
      direct lattice vectors                 reciprocal lattice vectors
     5.538491726  0.000000000  0.000000000     0.180554571  0.104658947  0.010603940
    -2.771235943  4.780855656  0.000000000     0.000000000  0.209167578  0.002139154
    -0.679823995 -0.131672800 12.875032425     0.000000000  0.000000000  0.077669707

  length of vectors
     5.538491726  5.525968644 12.893640228     0.208963853  0.209178517  0.077669707


 FORCES acting on ions:
    Electron-Ion                     Ewald-Force                    Non-Local-Force
 -----------------------------------------------------------------------------------------------
   0.195E+01 0.238E+01 0.498E+01   -.200E+01 -.238E+01 -.495E+01   0.364E+00 -.360E+00 0.894E+00
   0.328E+01 -.486E+00 -.608E+01   -.319E+01 0.331E+00 0.571E+01   -.133E+00 -.199E+00 -.175E+00
   -.129E+01 -.107E+00 -.173E+02   0.126E+01 -.155E+00 0.173E+02   0.457E+00 0.217E+00 0.108E+01
   -.691E+00 -.154E+01 0.692E+01   0.500E+00 0.165E+01 -.659E+01   -.417E+00 -.780E-02 -.632E+00
   -.102E+01 0.584E+01 -.214E+02   0.103E+01 -.557E+01 0.211E+02   0.154E+00 -.665E+00 0.136E+01
   0.240E+01 -.319E+01 0.305E+01   -.206E+01 0.316E+01 -.313E+01   -.760E-01 0.303E+00 -.795E-01
   0.197E+02 -.213E+01 -.118E+02   -.197E+02 0.211E+01 0.119E+02   -.650E+00 0.123E+00 0.292E-01
   0.324E+02 0.179E+02 -.370E+02   -.333E+02 -.184E+02 0.368E+02   -.312E+00 -.394E+00 -.639E+00
   0.284E+01 0.679E+01 -.351E+02   -.334E+01 -.700E+01 0.361E+02   -.236E+00 -.459E+00 0.411E+00
   -.368E+02 0.261E+01 -.211E+02   0.371E+02 -.300E+01 0.205E+02   0.217E+00 -.430E-01 0.241E+00
   0.866E+01 -.201E+02 -.153E+03   -.857E+01 0.218E+02 0.154E+03   -.521E+00 -.109E+01 0.903E+00
   -.358E+02 0.812E+01 -.226E+03   0.382E+02 -.889E+01 0.225E+03   -.194E+00 0.194E+00 0.146E+01
   0.150E+02 -.416E+02 -.174E+03   -.148E+02 0.424E+02 0.174E+03   -.270E+00 0.710E+00 0.183E+01
   0.305E+02 0.362E+02 -.171E+03   -.329E+02 -.364E+02 0.169E+03   -.338E+00 0.406E+00 0.109E+01
   0.111E+01 -.275E+02 0.189E+03   -.157E+01 0.266E+02 -.190E+03   0.632E+00 0.287E+00 -.415E+00
   -.911E+01 -.169E+02 0.189E+03   0.809E+01 0.181E+02 -.189E+03   -.391E+00 0.103E+01 -.635E-01
   -.521E+02 -.163E+02 0.275E+03   0.534E+02 0.180E+02 -.275E+03   0.109E+01 0.599E+00 -.203E+01
   0.459E+02 0.266E+02 0.204E+03   -.456E+02 -.267E+02 -.203E+03   -.122E+01 -.612E+00 -.107E+01
   0.182E+02 0.159E+02 -.274E+03   -.189E+02 -.118E+02 0.296E+03   0.125E+00 -.570E+01 -.232E+02
   -.346E+01 -.623E-01 -.268E+03   0.685E+01 -.299E+01 0.291E+03   -.344E+01 0.332E+01 -.247E+02
   -.208E+02 0.261E+00 -.285E+03   0.235E+02 0.124E+01 0.312E+03   -.183E+01 -.146E+01 -.276E+02
   -.194E+01 -.534E+01 -.284E+03   -.918E+00 0.158E+01 0.306E+03   0.344E+01 0.405E+01 -.220E+02
   0.959E+01 0.689E+01 0.257E+03   -.134E+02 -.583E+01 -.280E+03   0.458E+01 -.142E+01 0.226E+02
   -.425E+00 -.117E+01 0.250E+03   -.448E+00 -.186E+01 -.274E+03   0.997E+00 0.395E+01 0.245E+02
   -.240E+02 0.408E+01 0.237E+03   0.290E+02 -.136E+01 -.260E+03   -.476E+01 -.262E+01 0.248E+02
   0.729E+01 -.468E+02 0.248E+03   -.650E+01 0.517E+02 -.274E+03   -.113E+01 -.261E+01 0.270E+02
   -.102E+02 0.636E+01 -.367E+03   0.106E+02 -.989E+01 0.382E+03   0.647E+00 0.323E+01 -.152E+02
   -.915E+01 0.157E+02 -.363E+03   0.113E+02 -.162E+02 0.375E+03   -.212E+01 -.278E+00 -.126E+02
   -.144E+00 -.242E+01 -.369E+03   -.396E-01 0.714E-01 0.383E+03   -.221E-01 0.235E+01 -.148E+02
   -.345E+01 -.104E+02 -.374E+03   0.378E+01 0.155E+02 0.390E+03   0.367E+00 -.496E+01 -.154E+02
   -.174E+02 -.328E+01 0.119E+03   0.175E+02 0.607E+01 -.141E+03   0.347E+00 -.311E+01 0.245E+02
   0.191E+02 -.172E+01 0.140E+03   -.192E+02 0.118E+01 -.163E+03   -.871E+00 -.338E-01 0.234E+02
   0.249E+02 0.506E+01 0.141E+03   -.247E+02 -.784E+01 -.167E+03   -.230E+01 0.249E+01 0.261E+02
   -.207E+02 0.966E+01 0.150E+03   0.203E+02 -.115E+02 -.175E+03   0.200E+01 0.230E+01 0.233E+02
   -.492E+01 0.153E+02 -.123E+03   0.243E+01 -.180E+02 0.150E+03   0.292E+01 0.188E+01 -.279E+02
   -.101E+02 0.882E+00 -.113E+03   0.915E+01 -.417E+01 0.135E+03   0.210E+01 0.309E+01 -.235E+02
   0.383E+02 -.298E+02 -.960E+02   -.389E+02 0.363E+02 0.117E+03   -.130E+01 -.585E+01 -.220E+02
   -.261E+02 0.430E+02 -.112E+03   0.310E+02 -.476E+02 0.137E+03   -.416E+01 0.273E+01 -.253E+02
   0.154E+02 -.277E+02 0.355E+03   -.148E+02 0.301E+02 -.370E+03   -.137E+01 -.125E+01 0.163E+02
   0.187E+02 0.309E+02 0.372E+03   -.207E+02 -.337E+02 -.386E+03   0.108E+01 0.178E+01 0.145E+02
   -.119E-01 -.106E+02 0.392E+03   -.197E+01 0.118E+02 -.407E+03   0.256E+01 -.133E+01 0.137E+02
   -.205E+02 0.669E+01 0.363E+03   0.225E+02 -.838E+01 -.378E+03   -.159E+01 0.170E+01 0.158E+02
 -----------------------------------------------------------------------------------------------
   0.554E+01 -.226E+01 -.655E+01   0.995E-13 -.995E-13 -.909E-12   -.555E+01 0.229E+01 0.653E+01
 
 
 POSITION                                       TOTAL-FORCE (eV/Angst)
 -----------------------------------------------------------------------------------
      2.65591      0.03938      0.01495         0.322026     -0.389161      0.978419
      2.49071      3.28869      4.25708         0.000243     -0.408486     -0.657229
     -0.55068      1.51809      8.37495         0.329144     -0.135851      0.863243
     -1.74637      3.91697      8.65032        -0.452254      0.071956     -0.184225
      2.25189      1.65395      8.37440         0.179030     -0.329905      0.887919
      0.83850      3.86397      8.65388         0.217648      0.198819     -0.092358
     -0.06060      1.61706      2.10960        -0.480385      0.079516      0.197760
     -1.40854      4.01010      2.20706        -1.025210     -0.827235     -0.759053
      2.74849      1.59835      2.09846        -0.710845     -0.496375      1.258553
      1.32885      4.00951      2.10717         0.334131     -0.407180     -0.363161
      5.12845     -0.00769      6.19089        -0.356125      0.640671      1.213166
      3.75155      2.40076      6.27390         1.882112     -0.541028      0.208890
      2.40458     -0.05552      6.13619         0.041855      1.194138      2.334457
      1.08600      2.30437      6.24185        -2.481908      0.369272     -0.635201
      0.74435      0.66928     10.99886         0.053098     -0.632365     -1.118217
     -0.55541      2.92942     10.96706        -1.345333      2.004183      0.241554
      3.52346      0.55836     10.98526         1.966954      2.048405     -1.308569
      2.21495      3.03784     10.95116        -0.622986     -0.559539     -0.440907
     -0.02414      0.09678      3.11858        -0.599520     -1.536807     -0.502774
     -1.46166      2.38638      3.18609         0.033584      0.234414     -1.461831
      2.68916      0.02914      3.13456         0.849980      0.029653     -0.703685
      1.32485      2.41486      3.02989         0.529127      0.278433      0.269134
      1.31061      0.80413      1.18560         0.729613     -0.332692     -0.025419
     -0.07920      3.18777      1.15442         0.137558      0.834019      0.797552
      4.08472      0.77810      1.10658         0.312071      0.119621      1.355925
      2.78838      3.06530      1.13325        -0.358133      2.305469      0.822179
      0.92557      0.75416      7.28233         1.099280     -0.288339     -0.351069
     -0.40200      3.24448      7.32071         0.094572     -0.779547     -0.394061
      3.70587      0.74467      7.31493        -0.156229      0.022128     -0.913026
      2.33408      3.17544      7.29170         0.696897      0.152750      0.220764
     -0.40571      1.60423      5.20427         0.427973     -0.328087      2.133451
     -1.72271      4.00076      5.30869        -0.890458     -0.537523     -0.360681
      2.56295      1.56958      5.23207        -2.187582     -0.376814      0.511813
      0.93684      3.87207      5.34202         1.582494      0.510418     -1.309116
     -0.64675      1.45903     11.94556         0.458693     -0.852104     -0.667370
     -2.07824      3.84091     11.96386         1.084759     -0.211055     -1.068341
      2.30223      1.42696     11.95226        -1.941525      0.663394     -1.288993
      0.72204      3.87712     11.99496         0.853589     -1.930807     -1.201126
      2.24651      4.51962      9.78466        -0.743662      1.244623      1.457590
     -1.88435      2.27366      9.86096        -0.904923     -1.019573      0.347241
     -0.64850      4.59432     10.05626         0.606396     -0.068824     -1.204149
      0.79213      2.22631      9.82466         0.434246     -0.012584      0.910950
 -----------------------------------------------------------------------------------
    total drift:                               -0.008474      0.033958     -0.019004


--------------------------------------------------------------------------------------------------------



  FREE ENERGIE OF THE ION-ELECTRON SYSTEM (eV)
  ---------------------------------------------------
  free  energy   TOTEN  =      -230.99773385 eV

  energy  without entropy=     -230.98686782  energy(sigma->0) =     -230.99230084
 


--------------------------------------------------------------------------------------------------------


    POTLOK:  cpu time    0.0595: real time    0.0595


--------------------------------------------------------------------------------------------------------


     LOOP+:  cpu time 2806.5841: real time 2816.5164
    4ORBIT:  cpu time    0.0000: real time    0.0000
 


 total charge     
 
# of ion       s       p       d       tot
------------------------------------------
    1        0.148   0.355   0.000   0.503
    2        0.124   0.288   0.000   0.412
    3        0.109   0.235   0.000   0.344
    4        0.109   0.233   0.000   0.342
    5        0.107   0.232   0.000   0.339
    6        0.108   0.231   0.000   0.339
    7        0.462   0.761   7.429   8.652
    8        0.476   0.770   7.270   8.517
    9        0.499   0.830   7.315   8.644
   10        0.459   0.730   7.245   8.434
   11        0.440   0.692   7.405   8.537
   12        0.456   0.726   7.453   8.635
   13        0.492   0.800   7.303   8.595
   14        0.445   0.699   7.422   8.566
   15        0.432   0.671   7.389   8.493
   16        0.474   0.767   7.283   8.524
   17        0.464   0.722   7.454   8.640
   18        0.428   0.667   7.364   8.459
   19        1.580   3.411   0.000   4.991
   20        1.586   3.367   0.000   4.953
   21        1.591   3.368   0.000   4.960
   22        1.578   3.438   0.000   5.015
   23        1.580   3.420   0.000   5.000
   24        1.584   3.405   0.000   4.989
   25        1.584   3.414   0.000   4.998
   26        1.595   3.344   0.000   4.939
   27        1.558   3.490   0.000   5.048
   28        1.558   3.479   0.000   5.037
   29        1.558   3.485   0.000   5.043
   30        1.558   3.504   0.000   5.061
   31        1.584   3.334   0.000   4.918
   32        1.575   3.472   0.000   5.047
   33        1.579   3.421   0.000   5.000
   34        1.575   3.463   0.000   5.038
   35        1.586   3.395   0.000   4.981
   36        1.582   3.408   0.000   4.990
   37        1.579   3.418   0.000   4.997
   38        1.581   3.406   0.000   4.987
   39        1.559   3.451   0.000   5.010
   40        1.559   3.456   0.000   5.015
   41        1.560   3.501   0.000   5.062
   42        1.558   3.460   0.000   5.018
--------------------------------------------------
tot         44.021  92.720  88.333 225.074
 


 magnetization (x)
 
# of ion       s       p       d       tot
------------------------------------------
    1        0.001   0.001   0.000   0.001
    2       -0.001  -0.002   0.000  -0.002
    3       -0.000  -0.002   0.000  -0.002
    4        0.001   0.000   0.000   0.001
    5        0.000  -0.000   0.000  -0.000
    6        0.001   0.001   0.000   0.001
    7        0.003   0.005  -0.019  -0.010
    8        0.013   0.019   1.301   1.332
    9        0.011   0.016   1.204   1.232
   10        0.014   0.018   1.419   1.451
   11        0.002   0.002   0.034   0.038
   12        0.001   0.003   0.017   0.021
   13        0.008   0.007   1.160   1.175
   14        0.001   0.005   0.017   0.023
   15        0.002   0.005   0.034   0.041
   16        0.009   0.011   1.332   1.352
   17        0.002   0.003   0.110   0.115
   18        0.001   0.003   0.030   0.033
   19        0.001  -0.086   0.000  -0.084
   20        0.003  -0.070   0.000  -0.068
   21        0.002  -0.097   0.000  -0.095
   22        0.001  -0.075   0.000  -0.074
   23        0.001  -0.061   0.000  -0.060
   24        0.001  -0.108   0.000  -0.106
   25        0.002  -0.058   0.000  -0.056
   26        0.002  -0.124   0.000  -0.122
   27        0.001  -0.016   0.000  -0.016
   28        0.000  -0.026   0.000  -0.026
   29        0.000  -0.016   0.000  -0.015
   30        0.001   0.021   0.000   0.021
   31        0.003   0.118   0.000   0.121
   32        0.000  -0.008   0.000  -0.007
   33       -0.000  -0.041   0.000  -0.041
   34        0.001  -0.015   0.000  -0.015
   35        0.001  -0.027   0.000  -0.026
   36       -0.000  -0.095   0.000  -0.095
   37        0.002   0.103   0.000   0.105
   38        0.000  -0.052   0.000  -0.052
   39        0.001   0.038   0.000   0.039
   40        0.001  -0.016   0.000  -0.016
   41        0.001  -0.009   0.000  -0.008
   42        0.001  -0.014   0.000  -0.014
--------------------------------------------------
tot          0.094  -0.639   6.638   6.093
 

 total amount of memory used by VASP MPI-rank0   143800. kBytes
=======================================================================

   base      :      30000. kBytes
   nonlr-proj:       4423. kBytes
   fftplans  :       1502. kBytes
   grid      :       4132. kBytes
   one-center:        342. kBytes
   wavefun   :     103401. kBytes
 
  
  
 General timing and accounting informations for this job:
 ========================================================
  
                  Total CPU time used (sec):     2828.008
                            User time (sec):     2628.674
                          System time (sec):      199.334
                         Elapsed time (sec):     2838.387
  
                   Maximum memory used (kb):      788676.
                   Average memory used (kb):           0.
  
                          Minor page faults:        66848
                          Major page faults:           75
                 Voluntary context switches:          575
