       N       E                     dE             d eps       ncg     rms          ort
DAV:   1     0.347379684727E+04    0.34738E+04   -0.13954E+05  5760   0.218E+03
DAV:   2     0.409922274029E+03   -0.30639E+04   -0.28260E+04  5760   0.532E+02
DAV:   3    -0.219057372395E+03   -0.62898E+03   -0.57399E+03  5760   0.253E+02
DAV:   4    -0.269697814953E+03   -0.50640E+02   -0.49535E+02  5760   0.740E+01
DAV:   5    -0.271470455327E+03   -0.17726E+01   -0.17696E+01  5760   0.138E+01
SDA:   6     0.934686472695E+02    0.36494E+03   -0.17696E+01  5760   0.295E+04 0.000E+00
CGA:   7    -0.488318655027E+01   -0.98352E+02   -0.90382E+02  5760   0.618E+04-0.128E+04
CGA:   8     0.160453854202E+03    0.16534E+03   -0.86323E+02  5760   0.733E+04 0.644E+04
CGA:   9    -0.113896638186E+02   -0.17184E+03   -0.35418E+03  5760   0.293E+04 0.279E+03
CGA:  10    -0.121230045524E+03   -0.10984E+03   -0.12989E+03  5760   0.811E+03 0.104E+04
CGA:  11    -0.134418726994E+03   -0.13189E+02   -0.17518E+02  5760   0.346E+03 0.575E+03
CGA:  12    -0.170789844563E+03   -0.36371E+02   -0.34914E+02  5760   0.640E+03 0.201E+01
CGA:  13    -0.186889919774E+03   -0.16100E+02   -0.26492E+02  5760   0.239E+03 0.291E+02
CGA:  14    -0.204986116184E+03   -0.18096E+02   -0.19397E+02  5760   0.680E+02 0.117E+01
CGA:  15    -0.208590844195E+03   -0.36047E+01   -0.43141E+01  5760   0.448E+02-0.669E+01
CGA:  16    -0.210965218993E+03   -0.23744E+01   -0.22538E+01  5760   0.242E+02 0.822E+00
CGA:  17    -0.213094235791E+03   -0.21290E+01   -0.22063E+01  5760   0.267E+02 0.183E+01
CGA:  18    -0.215727591238E+03   -0.26334E+01   -0.28910E+01  5760   0.118E+02 0.489E+01
CGA:  19    -0.216938821396E+03   -0.12112E+01   -0.11614E+01  5760   0.102E+02 0.616E+00
CGA:  20    -0.218207841330E+03   -0.12690E+01   -0.12756E+01  5760   0.102E+02 0.251E+00
CGA:  21    -0.219110862320E+03   -0.90302E+00   -0.91604E+00  5760   0.154E+02 0.205E+01
CGA:  22    -0.219759950365E+03   -0.64909E+00   -0.10057E+01  5760   0.449E+01-0.115E+01
CGA:  23    -0.220022222976E+03   -0.26227E+00   -0.27151E+00  5760   0.485E+01-0.647E-01
CGA:  24    -0.220376192232E+03   -0.35397E+00   -0.34452E+00  5760   0.327E+01 0.632E-01
CGA:  25    -0.220601138008E+03   -0.22495E+00   -0.24002E+00  5760   0.337E+01-0.413E-01
CGA:  26    -0.220877785902E+03   -0.27665E+00   -0.28271E+00  5760   0.110E+01 0.770E-01
CGA:  27    -0.221035133848E+03   -0.15735E+00   -0.15507E+00  5760   0.154E+01 0.781E-01
CGA:  28    -0.221140275370E+03   -0.10514E+00   -0.10989E+00  5760   0.118E+01 0.203E-02
CGA:  29    -0.221320291694E+03   -0.18002E+00   -0.17840E+00  5760   0.872E+00 0.412E-01
CGA:  30    -0.221456637723E+03   -0.13635E+00   -0.13457E+00  5760   0.143E+01 0.433E-01
CGA:  31    -0.221569310186E+03   -0.11267E+00   -0.11570E+00  5760   0.931E+00 0.494E-03
CGA:  32    -0.221720828861E+03   -0.15152E+00   -0.14912E+00  5760   0.732E+00 0.409E-01
CGA:  33    -0.221852739900E+03   -0.13191E+00   -0.13224E+00  5760   0.111E+01-0.102E-01
CGA:  34    -0.221937271004E+03   -0.84531E-01   -0.87040E-01  5760   0.906E+00-0.152E-02
CGA:  35    -0.222045179776E+03   -0.10791E+00   -0.10791E+00  5760   0.698E+00-0.132E-01
CGA:  36    -0.222176677221E+03   -0.13150E+00   -0.13145E+00  5760   0.847E+00-0.209E-01
CGA:  37    -0.222278544949E+03   -0.10187E+00   -0.10187E+00  5760   0.810E+00-0.816E-02
CGA:  38    -0.222337195590E+03   -0.58651E-01   -0.56585E-01  5760   0.781E+00-0.270E-01
CGA:  39    -0.222415535807E+03   -0.78340E-01   -0.79316E-01  5760   0.508E+00 0.185E-01
CGA:  40    -0.222484336329E+03   -0.68801E-01   -0.68594E-01  5760   0.726E+00 0.261E-02
CGA:  41    -0.222526200481E+03   -0.41864E-01   -0.42077E-01  5760   0.375E+00-0.210E-01
SDA:  42    -0.222575394010E+03   -0.49194E-01   -0.49098E-01  5760   0.302E+00 0.180E-02
CGA:  43    -0.222627178475E+03   -0.51784E-01   -0.51102E-01  5760   0.301E+00 0.875E-02
CGA:  44    -0.222656826402E+03   -0.29648E-01   -0.29609E-01  5760   0.429E+00 0.221E-04
CGA:  45    -0.222698950941E+03   -0.42125E-01   -0.42256E-01  5760   0.153E+00 0.233E-02
CGA:  46    -0.222726355552E+03   -0.27405E-01   -0.26691E-01  5760   0.938E-01 0.991E-02
CGA:  47    -0.222741712719E+03   -0.15357E-01   -0.15211E-01  5760   0.256E+00 0.326E-02
CGA:  48    -0.222766981340E+03   -0.25269E-01   -0.25073E-01  5760   0.737E-01-0.186E-02
CGA:  49    -0.222781005709E+03   -0.14024E-01   -0.13999E-01  5760   0.517E-01 0.321E-03
CGA:  50    -0.222787044713E+03   -0.60390E-02   -0.60435E-02  5760   0.861E-01 0.231E-03
CGA:  51    -0.222795812275E+03   -0.87676E-02   -0.88412E-02  5760   0.430E-01 0.972E-03
CGA:  52    -0.222811412341E+03   -0.15600E-01   -0.16715E-01  5760   0.990E-01-0.550E-02
CGA:  53    -0.222817938213E+03   -0.65259E-02   -0.68448E-02  5760   0.855E-01-0.120E-02
CGA:  54    -0.222832804476E+03   -0.14866E-01   -0.17181E-01  5760   0.257E+00-0.279E-01
CGA:  55    -0.222845825315E+03   -0.13021E-01   -0.14387E-01  5760   0.323E+00 0.660E-02
CGA:  56    -0.222858324761E+03   -0.12499E-01   -0.77561E-02  5760   0.249E+00 0.427E+00
CGA:  57    -0.222889321871E+03   -0.30997E-01   -0.31130E-01  5760   0.149E+00 0.166E-01
CGA:  58    -0.222899534288E+03   -0.10212E-01   -0.10972E-01  5760   0.164E+00-0.884E-04
CGA:  59    -0.222940392524E+03   -0.40858E-01   -0.39061E-01  5760   0.172E+00 0.773E-02
CGA:  60    -0.222995012392E+03   -0.54620E-01   -0.48339E-01  5760   0.267E+00-0.102E-01
CGA:  61    -0.223009641115E+03   -0.14629E-01   -0.10858E-01  5760   0.303E+00 0.926E-01
CGA:  62    -0.223033609971E+03   -0.23969E-01   -0.26295E-01  5760   0.279E+00 0.794E-02
CGA:  63    -0.223050274873E+03   -0.16665E-01   -0.16111E-01  5760   0.259E+00-0.395E-02
CGA:  64    -0.223069405929E+03   -0.19131E-01   -0.19988E-01  5760   0.363E+00 0.557E-02
CGA:  65    -0.223096863644E+03   -0.27458E-01   -0.27485E-01  5760   0.194E+00-0.796E-02
CGA:  66    -0.223108214385E+03   -0.11351E-01   -0.10398E-01  5760   0.141E+00 0.131E-01
CGA:  67    -0.223123415464E+03   -0.15201E-01   -0.15278E-01  5760   0.177E+00 0.518E-02
CGA:  68    -0.223135285916E+03   -0.11870E-01   -0.11663E-01  5760   0.104E+00-0.387E-02
CGA:  69    -0.223144450430E+03   -0.91645E-02   -0.92186E-02  5760   0.108E+00 0.732E-03
CGA:  70    -0.223152266360E+03   -0.78159E-02   -0.77729E-02  5760   0.651E-01-0.108E-04
CGA:  71    -0.223158194084E+03   -0.59277E-02   -0.59106E-02  5760   0.841E-01-0.116E-03
CGA:  72    -0.223165236521E+03   -0.70424E-02   -0.70513E-02  5760   0.538E-01 0.715E-04
CGA:  73    -0.223169080202E+03   -0.38437E-02   -0.39027E-02  5760   0.495E-01-0.788E-04
CGA:  74    -0.223175858699E+03   -0.67785E-02   -0.67788E-02  5760   0.719E-01-0.327E-03
CGA:  75    -0.223182236972E+03   -0.63783E-02   -0.61017E-02  5760   0.603E-01-0.607E-03
CGA:  76    -0.223187865474E+03   -0.56285E-02   -0.56525E-02  5760   0.547E-01 0.393E-02
CGA:  77    -0.223191866562E+03   -0.40011E-02   -0.38813E-02  5760   0.327E-01-0.721E-03
CGA:  78    -0.223195540150E+03   -0.36736E-02   -0.36675E-02  5760   0.425E-01 0.135E-02
CGA:  79    -0.223199182508E+03   -0.36424E-02   -0.35625E-02  5760   0.256E-01-0.145E-03
CGA:  80    -0.223201594207E+03   -0.24117E-02   -0.24303E-02  5760   0.275E-01 0.272E-02
CGA:  81    -0.223204389747E+03   -0.27955E-02   -0.28021E-02  5760   0.200E-01 0.510E-04
CGA:  82    -0.223206951626E+03   -0.25619E-02   -0.25639E-02  5760   0.243E-01 0.635E-03
CGA:  83    -0.223209458596E+03   -0.25070E-02   -0.24976E-02  5760   0.180E-01-0.110E-02
CGA:  84    -0.223211658168E+03   -0.21996E-02   -0.22008E-02  5760   0.235E-01 0.342E-03
CGA:  85    -0.223214485746E+03   -0.28276E-02   -0.28397E-02  5760   0.294E-01-0.242E-03
CGA:  86    -0.223219186858E+03   -0.47011E-02   -0.47105E-02  5760   0.410E-01-0.282E-03
SDA:  87    -0.223223064655E+03   -0.38778E-02   -0.38201E-02  5760   0.316E-01-0.285E-03
CGA:  88    -0.223228343899E+03   -0.52792E-02   -0.53917E-02  5760   0.298E-01 0.757E-03
CGA:  89    -0.223231835360E+03   -0.34915E-02   -0.35180E-02  5760   0.194E-01-0.182E-02
CGA:  90    -0.223234983986E+03   -0.31486E-02   -0.32154E-02  5760   0.672E-02-0.576E-03
CGA:  91    -0.223237755937E+03   -0.27720E-02   -0.27979E-02  5760   0.676E-02-0.460E-04
CGA:  92    -0.223239999357E+03   -0.22434E-02   -0.22729E-02  5760   0.997E-02 0.760E-05
CGA:  93    -0.223241261810E+03   -0.12625E-02   -0.12293E-02  5760   0.108E-01 0.270E-03
CGA:  94    -0.223244220582E+03   -0.29588E-02   -0.31813E-02  5760   0.125E-01-0.936E-03
CGA:  95    -0.223247844621E+03   -0.36240E-02   -0.37607E-02  5760   0.172E-01-0.330E-03
CGA:  96    -0.223250154159E+03   -0.23095E-02   -0.22808E-02  5760   0.191E-01 0.690E-03
CGA:  97    -0.223254457472E+03   -0.43033E-02   -0.45340E-02  5760   0.171E-01-0.147E-02
CGA:  98    -0.223257681901E+03   -0.32244E-02   -0.33412E-02  5760   0.250E-01 0.103E-03
CGA:  99    -0.223261569213E+03   -0.38873E-02   -0.38485E-02  5760   0.250E-01-0.102E-02
CGA: 100    -0.223267703656E+03   -0.61344E-02   -0.62527E-02  5760   0.243E-01-0.381E-03
CGA: 101    -0.223271457703E+03   -0.37540E-02   -0.36789E-02  5760   0.318E-01 0.409E-03
CGA: 102    -0.223276481650E+03   -0.50239E-02   -0.50035E-02  5760   0.242E-01-0.951E-03
CGA: 103    -0.223282952645E+03   -0.64710E-02   -0.65540E-02  5760   0.307E-01-0.735E-03
CGA: 104    -0.223286889534E+03   -0.39369E-02   -0.39991E-02  5760   0.336E-01 0.172E-03
CGA: 105    -0.223293328110E+03   -0.64386E-02   -0.64389E-02  5760   0.311E-01-0.103E-03
CGA: 106    -0.223301561774E+03   -0.82337E-02   -0.81561E-02  5760   0.444E-01 0.479E-03
CGA: 107    -0.223307307475E+03   -0.57457E-02   -0.56556E-02  5760   0.344E-01 0.241E-02
CGA: 108    -0.223314835829E+03   -0.75284E-02   -0.76150E-02  5760   0.309E-01-0.649E-03
CGA: 109    -0.223320469158E+03   -0.56333E-02   -0.56932E-02  5760   0.441E-01 0.523E-04
CGA: 110    -0.223327029288E+03   -0.65601E-02   -0.64799E-02  5760   0.297E-01-0.334E-05
CGA: 111    -0.223332656615E+03   -0.56273E-02   -0.56721E-02  5760   0.242E-01-0.357E-03
CGA: 112    -0.223335947565E+03   -0.32910E-02   -0.32346E-02  5760   0.224E-01 0.621E-03
CGA: 113    -0.223339945223E+03   -0.39977E-02   -0.40023E-02  5760   0.177E-01-0.333E-03
CGA: 114    -0.223343342854E+03   -0.33976E-02   -0.34445E-02  5760   0.208E-01 0.744E-04
CGA: 115    -0.223345722518E+03   -0.23797E-02   -0.23133E-02  5760   0.986E-02 0.212E-03
CGA: 116    -0.223348155022E+03   -0.24325E-02   -0.24948E-02  5760   0.106E-01-0.384E-04
CGA: 117    -0.223349939130E+03   -0.17841E-02   -0.17796E-02  5760   0.122E-01 0.772E-04
SDA: 118    -0.223351554839E+03   -0.16157E-02   -0.15950E-02  5760   0.583E-02 0.466E-04
CGA: 119    -0.223352462545E+03   -0.90771E-03   -0.90107E-03  5760   0.808E-02 0.223E-03
CGA: 120    -0.223353737345E+03   -0.12748E-02   -0.12635E-02  5760   0.656E-02-0.383E-04
CGA: 121    -0.223355656849E+03   -0.19195E-02   -0.19775E-02  5760   0.626E-02-0.206E-03
CGA: 122    -0.223357437978E+03   -0.17811E-02   -0.18098E-02  5760   0.143E-01 0.149E-03
CGA: 123    -0.223359238619E+03   -0.18006E-02   -0.16997E-02  5760   0.847E-02 0.277E-03
CGA: 124    -0.223361773333E+03   -0.25347E-02   -0.25955E-02  5760   0.882E-02-0.253E-03
CGA: 125    -0.223363236929E+03   -0.14636E-02   -0.14528E-02  5760   0.132E-01 0.211E-03
CGA: 126    -0.223365483377E+03   -0.22464E-02   -0.22227E-02  5760   0.720E-02-0.214E-03
CGA: 127    -0.223367072045E+03   -0.15887E-02   -0.16022E-02  5760   0.102E-01-0.924E-05
CGA: 128    -0.223368381812E+03   -0.13098E-02   -0.12594E-02  5760   0.627E-02 0.188E-03
CGA: 129    -0.223369930163E+03   -0.15484E-02   -0.15699E-02  5760   0.710E-02-0.841E-04
CGA: 130    -0.223370880401E+03   -0.95024E-03   -0.93039E-03  5760   0.599E-02 0.274E-03
CGA: 131    -0.223372192797E+03   -0.13124E-02   -0.13231E-02  5760   0.582E-02-0.355E-04
CGA: 132    -0.223373168513E+03   -0.97572E-03   -0.97108E-03  5760   0.609E-02 0.129E-03
CGA: 133    -0.223374124622E+03   -0.95611E-03   -0.94159E-03  5760   0.428E-02 0.715E-04
CGA: 134    -0.223375072844E+03   -0.94822E-03   -0.96396E-03  5760   0.621E-02 0.835E-04
CGA: 135    -0.223375931775E+03   -0.85893E-03   -0.84738E-03  5760   0.396E-02 0.130E-03
CGA: 136    -0.223376808896E+03   -0.87712E-03   -0.88134E-03  5760   0.326E-02 0.114E-03
CGA: 137    -0.223377247108E+03   -0.43821E-03   -0.42136E-03  5760   0.283E-02 0.155E-03
CGA: 138    -0.223377886572E+03   -0.63946E-03   -0.64519E-03  5760   0.196E-02-0.180E-04
CGA: 139    -0.223378173949E+03   -0.28738E-03   -0.28269E-03  5760   0.167E-02 0.620E-04
CGA: 140    -0.223378420317E+03   -0.24637E-03   -0.24143E-03  5760   0.936E-03 0.245E-04
CGA: 141    -0.223378612959E+03   -0.19264E-03   -0.19553E-03  5760   0.102E-02-0.190E-05
CGA: 142    -0.223378737130E+03   -0.12417E-03   -0.12009E-03  5760   0.569E-03 0.163E-04
CGA: 143    -0.223378858405E+03   -0.12127E-03   -0.12274E-03  5760   0.452E-03-0.386E-05
CGA: 144    -0.223378922858E+03   -0.64453E-04   -0.63389E-04  5760   0.412E-03 0.173E-04
CGA: 145    -0.223378993853E+03   -0.70995E-04   -0.70621E-04  5760   0.295E-03 0.243E-05
CGA: 146    -0.223379066274E+03   -0.72421E-04   -0.73965E-04  5760   0.452E-03 0.404E-05
CGA: 147    -0.223379128523E+03   -0.62250E-04   -0.59214E-04  5760   0.322E-03 0.672E-05
CGA: 148    -0.223379220854E+03   -0.92331E-04   -0.93128E-04  5760   0.449E-03 0.392E-05
SDA: 149    -0.223379297361E+03   -0.76507E-04   -0.75509E-04  5760   0.533E-03 0.271E-04
CGA: 150    -0.223379336990E+03   -0.39629E-04   -0.34198E-04  5760   0.206E-03 0.463E-04
CGA: 151    -0.223379394291E+03   -0.57301E-04   -0.57129E-04  5760   0.171E-03 0.216E-05
CGA: 152    -0.223379430310E+03   -0.36019E-04   -0.36357E-04  5760   0.303E-03 0.597E-05
CGA: 153    -0.223379462738E+03   -0.32427E-04   -0.30745E-04  5760   0.127E-03 0.136E-05
CGA: 154    -0.223379508713E+03   -0.45975E-04   -0.46669E-04  5760   0.180E-03-0.416E-05
CGA: 155    -0.223379531436E+03   -0.22723E-04   -0.21964E-04  5760   0.219E-03 0.190E-04
CGA: 156    -0.223379578893E+03   -0.47457E-04   -0.47561E-04  5760   0.155E-03-0.119E-05
CGA: 157    -0.223379645690E+03   -0.66797E-04   -0.68117E-04  5760   0.207E-03-0.244E-05
CGA: 158    -0.223379694403E+03   -0.48713E-04   -0.48536E-04  5760   0.370E-03 0.846E-05
CGA: 159    -0.223379748516E+03   -0.54113E-04   -0.49125E-04  5760   0.239E-03 0.249E-04
CGA: 160    -0.223379816068E+03   -0.67553E-04   -0.67009E-04  5760   0.299E-03 0.700E-05
CGA: 161    -0.223379866873E+03   -0.50804E-04   -0.49154E-04  5760   0.324E-03 0.220E-04
CGA: 162    -0.223379920859E+03   -0.53987E-04   -0.53863E-04  5760   0.186E-03 0.759E-05
CGA: 163    -0.223379965751E+03   -0.44892E-04   -0.46034E-04  5760   0.302E-03 0.122E-04
CGA: 164    -0.223380002936E+03   -0.37185E-04   -0.37616E-04  5760   0.144E-03 0.604E-05
CGA: 165    -0.223380039614E+03   -0.36677E-04   -0.37787E-04  5760   0.137E-03-0.297E-06
CGA: 166    -0.223380058802E+03   -0.19189E-04   -0.19015E-04  5760   0.145E-03 0.430E-05
CGA: 167    -0.223380087084E+03   -0.28282E-04   -0.28184E-04  5760   0.947E-04 0.154E-05
CGA: 168    -0.223380104360E+03   -0.17275E-04   -0.17336E-04  5760   0.946E-04 0.673E-05
CGA: 169    -0.223380119451E+03   -0.15091E-04   -0.14339E-04  5760   0.775E-04 0.557E-05
CGA: 170    -0.223380133979E+03   -0.14528E-04   -0.14573E-04  5760   0.569E-04 0.147E-05
CGA: 171    -0.223380145690E+03   -0.11710E-04   -0.11906E-04  5760   0.782E-04 0.295E-05
CGA: 172    -0.223380155754E+03   -0.10064E-04   -0.10221E-04  5760   0.466E-04 0.259E-05
CGA: 173    -0.223380167622E+03   -0.11868E-04   -0.11916E-04  5760   0.336E-04 0.228E-05
CGA: 174    -0.223380174798E+03   -0.71758E-05   -0.71447E-05  5760   0.381E-04 0.126E-05
CGA: 175    -0.223380180545E+03   -0.57477E-05   -0.52877E-05  5760   0.366E-04 0.325E-05
CGA: 176    -0.223380188395E+03   -0.78498E-05   -0.78295E-05  5760   0.207E-04 0.661E-06
CGA: 177    -0.223380193167E+03   -0.47721E-05   -0.48298E-05  5760   0.298E-04 0.151E-05
CGA: 178    -0.223380197480E+03   -0.43126E-05   -0.43321E-05  5760   0.256E-04 0.109E-05
CGA: 179    -0.223380203194E+03   -0.57142E-05   -0.58756E-05  5760   0.228E-04-0.760E-06
SDA: 180    -0.223380207287E+03   -0.40932E-05   -0.40942E-05  5760   0.280E-04-0.190E-06
CGA: 181    -0.223380209664E+03   -0.23768E-05   -0.21068E-05  5760   0.156E-04 0.285E-05
CGA: 182    -0.223380213786E+03   -0.41221E-05   -0.41352E-05  5760   0.127E-04 0.129E-07
CGA: 183    -0.223380217485E+03   -0.36988E-05   -0.37488E-05  5760   0.129E-04-0.463E-06
CGA: 184    -0.223380219317E+03   -0.18318E-05   -0.17772E-05  5760   0.185E-04 0.894E-06
CGA: 185    -0.223380223181E+03   -0.38638E-05   -0.38715E-05  5760   0.119E-04-0.263E-06
CGA: 186    -0.223380226882E+03   -0.37010E-05   -0.37175E-05  5760   0.139E-04 0.555E-06
CGA: 187    -0.223380229094E+03   -0.22123E-05   -0.21889E-05  5760   0.184E-04 0.628E-06
CGA: 188    -0.223380232954E+03   -0.38605E-05   -0.38859E-05  5760   0.151E-04-0.912E-06
CGA: 189    -0.223380236116E+03   -0.31611E-05   -0.31749E-05  5760   0.197E-04-0.744E-07
CGA: 190    -0.223380238980E+03   -0.28641E-05   -0.26998E-05  5760   0.155E-04 0.682E-06
CGA: 191    -0.223380242096E+03   -0.31160E-05   -0.31156E-05  5760   0.117E-04 0.451E-06
CGA: 192    -0.223380244322E+03   -0.22264E-05   -0.22063E-05  5760   0.172E-04 0.545E-06
CGA: 193    -0.223380247009E+03   -0.26869E-05   -0.27244E-05  5760   0.106E-04 0.250E-06
CGA: 194    -0.223380249878E+03   -0.28689E-05   -0.29723E-05  5760   0.114E-04 0.112E-07
CGA: 195    -0.223380251726E+03   -0.18481E-05   -0.18648E-05  5760   0.137E-04 0.324E-06
CGA: 196    -0.223380253871E+03   -0.21447E-05   -0.20765E-05  5760   0.854E-05 0.469E-06
CGA: 197    -0.223380256155E+03   -0.22848E-05   -0.22473E-05  5760   0.114E-04 0.367E-06
CGA: 198    -0.223380257821E+03   -0.16658E-05   -0.15712E-05  5760   0.944E-05 0.700E-06
CGA: 199    -0.223380259618E+03   -0.17967E-05   -0.18033E-05  5760   0.721E-05 0.313E-06
CGA: 200    -0.223380261215E+03   -0.15968E-05   -0.16092E-05  5760   0.854E-05 0.397E-06
CGA: 201    -0.223380262291E+03   -0.10765E-05   -0.10892E-05  5760   0.583E-05 0.185E-06
CGA: 202    -0.223380263630E+03   -0.13387E-05   -0.13573E-05  5760   0.421E-05 0.188E-06
CGA: 203    -0.223380264335E+03   -0.70529E-06   -0.70198E-06  5760   0.464E-05 0.139E-06
   1 F= -.23296845E+03 E0= -.23296545E+03  d E =-.601039E-02  mag=     6.0000
