 running on   64 total cores
 distrk:  each k-point on   64 cores,    1 groups
 distr:  one band on    4 cores,   16 groups
 using from now: INCAR     
 vasp.5.4.4.18Apr17-6-g9f103f2a35 (build Nov 22 2021 14:44:17) complex          
  
 POSCAR found type information on POSCAR  Li Co O 
 POSCAR found :  3 types and      42 ions
 scaLAPACK will be used
 LDA part: xc-table for Pade appr. of Perdew
 generate k-points for:    6    6    2
 POSCAR, INCAR and KPOINTS ok, starting setup
 FFT: planning ...
 WAVECAR not read
 entering main loop
       N       E                     dE             d eps       ncg     rms          ort
DAV:   1     0.354939107644E+04    0.35494E+04   -0.14040E+05  5760   0.226E+03
DAV:   2     0.414837460485E+03   -0.31346E+04   -0.28932E+04  5760   0.555E+02
DAV:   3    -0.217118319617E+03   -0.63196E+03   -0.56626E+03  5760   0.258E+02
DAV:   4    -0.268407872340E+03   -0.51290E+02   -0.50340E+02  5760   0.759E+01
DAV:   5    -0.270010842295E+03   -0.16030E+01   -0.16007E+01  5760   0.133E+01
 gam= 0.000 g(H,U,f)=  0.167E+04 0.190E+04 0.272E+04 ort(H,U,f) = 0.000E+00 0.000E+00 0.000E+00
SDA:   6     0.918520540777E+02    0.36186E+03   -0.16007E+01  5760   0.630E+04 0.000E+00
 gam= 0.000 trial= 0.400  step= 0.116 mean= 0.400
 gam= 0.500 g(H,U,f)=  0.561E+03 0.123E+04 0.135E+04 ort(H,U,f) = 0.606E+03 0.129E+03-0.203E+03
CGA:   7    -0.515917561156E+02   -0.14344E+03   -0.36414E+03  5760   0.315E+04 0.533E+03
 gam= 0.500 trial= 0.386  step= 0.056 mean= 0.386
 gam= 1.978 g(H,U,f)=  0.336E+03 0.213E+04 0.376E+04 ort(H,U,f) = 0.383E+03 0.697E+03-0.163E+03
CGA:   8    -0.931226909029E+02   -0.41531E+02   -0.95726E+02  5760   0.622E+04 0.917E+03
 gam= 1.978 trial= 0.369  step= 0.050 mean= 0.369
 gam= 0.659 g(H,U,f)=  0.417E+03 0.356E+04 0.128E+03 ort(H,U,f) =-0.197E+03-0.274E+04 0.413E+02
CGA:   9    -0.475774834653E+02    0.45545E+02   -0.20146E+03  5760   0.410E+04-0.290E+04
 gam= 0.659 trial= 0.353  step= 0.047 mean= 0.353
 gam= 0.520 g(H,U,f)=  0.344E+03 0.138E+04 0.406E+03 ort(H,U,f) =-0.414E+03-0.294E+01 0.126E+03
CGA:  10    -0.111291671567E+03   -0.63714E+02   -0.51840E+02  5760   0.213E+04-0.291E+03
 gam= 0.520 trial= 0.338  step= 0.031 mean= 0.338
 gam= 0.343 g(H,U,f)=  0.296E+03 0.393E+03 0.425E+02 ort(H,U,f) =-0.483E+02 0.351E+03 0.123E+03
CGA:  11    -0.142613155821E+03   -0.31321E+02   -0.30943E+02  5760   0.732E+03 0.426E+03
 gam= 0.343 trial= 0.323  step= 0.013 mean= 0.323
 gam= 0.000 g(H,U,f)=  0.265E+03 0.292E+03 0.265E+02 ort(H,U,f) = 0.252E+03 0.362E+03 0.591E+02
CGA:  12    -0.151834842929E+03   -0.92217E+01   -0.58730E+01  5760   0.583E+03 0.673E+03
 gam= 0.000 trial= 0.307  step= 0.079 mean= 0.307
 gam= 0.610 g(H,U,f)=  0.140E+03 0.175E+03 0.409E+02 ort(H,U,f) = 0.152E+03-0.133E+03-0.669E+02
CGA:  13    -0.182933879733E+03   -0.31099E+02   -0.23006E+02  5760   0.356E+03-0.475E+02
 gam= 0.610 trial= 0.296  step= 0.127 mean= 0.296
 gam= 0.665 g(H,U,f)=  0.483E+02 0.135E+03 0.536E+02 ort(H,U,f) = 0.359E+02-0.440E+02-0.812E+01
CGA:  14    -0.202522594881E+03   -0.19589E+02   -0.20727E+02  5760   0.237E+03-0.162E+02
 gam= 0.665 trial= 0.287  step= 0.089 mean= 0.287
 gam= 0.000 g(H,U,f)=  0.532E+02 0.171E+03 0.543E+02 ort(H,U,f) =-0.172E+02-0.136E+03-0.383E+02
CGA:  15    -0.202075617923E+03    0.44698E+00   -0.10093E+02  5760   0.279E+03-0.191E+03
 gam= 0.000 trial= 0.277  step= 0.058 mean= 0.277
 gam= 0.298 g(H,U,f)=  0.293E+02 0.436E+02 0.101E+02 ort(H,U,f) = 0.270E+02-0.423E+02-0.224E+02
CGA:  16    -0.209619197750E+03   -0.75436E+01   -0.81502E+01  5760   0.830E+02-0.377E+02
 gam= 0.298 trial= 0.267  step= 0.147 mean= 0.267
 gam= 0.204 g(H,U,f)=  0.550E+01 0.107E+02 0.678E+00 ort(H,U,f) = 0.423E+01-0.389E+01-0.508E+00
CGA:  17    -0.214778889532E+03   -0.51597E+01   -0.52804E+01  5760   0.169E+02-0.166E+00
 gam= 0.204 trial= 0.261  step= 0.090 mean= 0.261
 gam= 0.739 g(H,U,f)=  0.530E+01 0.648E+01 0.732E+00 ort(H,U,f) = 0.499E+01-0.533E+01-0.601E+00
CGA:  18    -0.215489849798E+03   -0.71096E+00   -0.75669E+00  5760   0.125E+02-0.936E+00
 gam= 0.739 trial= 0.252  step= 0.292 mean= 0.252
 gam= 0.607 g(H,U,f)=  0.225E+01 0.495E+01 0.386E+00 ort(H,U,f) = 0.189E+01-0.120E+01-0.147E+00
CGA:  19    -0.217233814339E+03   -0.17440E+01   -0.17249E+01  5760   0.759E+01 0.541E+00
 gam= 0.607 trial= 0.254  step= 0.125 mean= 0.254
 gam= 0.557 g(H,U,f)=  0.776E+00 0.278E+01 0.669E+00 ort(H,U,f) = 0.508E+00-0.342E+00-0.246E+00
CGA:  20    -0.217724340379E+03   -0.49053E+00   -0.49609E+00  5760   0.423E+01-0.799E-01
 gam= 0.557 trial= 0.248  step= 0.101 mean= 0.248
 gam= 0.298 g(H,U,f)=  0.454E+00 0.766E+00 0.379E-01 ort(H,U,f) = 0.475E-01-0.969E-01-0.106E+00
CGA:  21    -0.217917006289E+03   -0.19267E+00   -0.21201E+00  5760   0.126E+01-0.156E+00
 gam= 0.298 trial= 0.240  step= 0.354 mean= 0.240
 gam= 1.339 g(H,U,f)=  0.418E+00 0.113E+01 0.137E+00 ort(H,U,f) =-0.622E-01 0.900E-01-0.554E-02
CGA:  22    -0.218132539669E+03   -0.21553E+00   -0.21440E+00  5760   0.168E+01 0.222E-01
 gam= 1.339 trial= 0.246  step= 0.145 mean= 0.246
 gam= 0.824 g(H,U,f)=  0.234E+00 0.102E+01 0.135E+00 ort(H,U,f) =-0.661E-01 0.135E+00-0.796E-01
CGA:  23    -0.218250317757E+03   -0.11778E+00   -0.12400E+00  5760   0.139E+01-0.104E-01
 gam= 0.824 trial= 0.241  step= 0.148 mean= 0.241
 gam= 0.309 g(H,U,f)=  0.152E+00 0.246E+00 0.299E-01 ort(H,U,f) =-0.229E+00 0.235E+00-0.836E-03
CGA:  24    -0.218350404495E+03   -0.10009E+00   -0.10226E+00  5760   0.429E+00 0.580E-02
 gam= 0.309 trial= 0.236  step= 0.301 mean= 0.236
 gam= 1.724 g(H,U,f)=  0.160E+00 0.450E+00 0.130E+00 ort(H,U,f) =-0.294E-01 0.753E-01-0.235E-01
CGA:  25    -0.218415608784E+03   -0.65204E-01   -0.64775E-01  5760   0.739E+00 0.225E-01
 gam= 1.724 trial= 0.240  step= 0.181 mean= 0.240
 gam= 0.830 g(H,U,f)=  0.197E+00 0.365E+00 0.520E-01 ort(H,U,f) =-0.491E-01 0.898E-01-0.207E-01
CGA:  26    -0.218481896184E+03   -0.66287E-01   -0.70482E-01  5760   0.614E+00 0.200E-01
 gam= 0.830 trial= 0.237  step= 0.382 mean= 0.237
 gam= 0.969 g(H,U,f)=  0.178E+00 0.329E+00 0.872E-01 ort(H,U,f) =-0.123E+00 0.114E+00 0.238E-01
CGA:  27    -0.218600676672E+03   -0.11878E+00   -0.12043E+00  5760   0.594E+00 0.141E-01
 gam= 0.969 trial= 0.244  step= 0.250 mean= 0.244
 gam= 1.110 g(H,U,f)=  0.189E+00 0.392E+00 0.790E-01 ort(H,U,f) =-0.916E-01 0.157E+00 0.146E-01
CGA:  28    -0.218677020762E+03   -0.76344E-01   -0.75845E-01  5760   0.660E+00 0.796E-01
 gam= 1.110 trial= 0.244  step= 0.321 mean= 0.244
 gam= 1.707 g(H,U,f)=  0.325E+00 0.641E+00 0.160E+00 ort(H,U,f) =-0.170E+00 0.234E+00 0.948E-02
CGA:  29    -0.218798524657E+03   -0.12150E+00   -0.12000E+00  5760   0.113E+01 0.732E-01
 gam= 1.707 trial= 0.248  step= 0.200 mean= 0.248
 gam= 1.026 g(H,U,f)=  0.466E+00 0.599E+00 0.908E-01 ort(H,U,f) =-0.291E+00 0.294E+00 0.252E-01
CGA:  30    -0.218923399517E+03   -0.12487E+00   -0.12516E+00  5760   0.116E+01 0.283E-01
 gam= 1.026 trial= 0.246  step= 0.199 mean= 0.246
 gam= 1.155 g(H,U,f)=  0.444E+00 0.710E+00 0.180E+00 ort(H,U,f) =-0.141E+00 0.174E+00-0.436E-01
CGA:  31    -0.219042089346E+03   -0.11869E+00   -0.11771E+00  5760   0.133E+01-0.102E-01
 gam= 1.155 trial= 0.243  step= 0.155 mean= 0.243
 gam= 0.766 g(H,U,f)=  0.414E+00 0.602E+00 0.698E-02 ort(H,U,f) =-0.972E-01 0.105E+00 0.692E-02
CGA:  32    -0.219138217172E+03   -0.96128E-01   -0.10227E+00  5760   0.102E+01 0.151E-01
 gam= 0.766 trial= 0.239  step= 0.210 mean= 0.239
 gam= 0.795 g(H,U,f)=  0.275E+00 0.454E+00 0.842E-01 ort(H,U,f) =-0.136E+00 0.210E+00-0.283E-01
CGA:  33    -0.219244899570E+03   -0.10668E+00   -0.10840E+00  5760   0.813E+00 0.457E-01
 gam= 0.795 trial= 0.237  step= 0.198 mean= 0.237
 gam= 0.683 g(H,U,f)=  0.301E+00 0.229E+00 0.252E-01 ort(H,U,f) =-0.180E+00 0.223E+00-0.274E-01
CGA:  34    -0.219328252046E+03   -0.83352E-01   -0.84296E-01  5760   0.556E+00 0.164E-01
 gam= 0.683 trial= 0.235  step= 0.415 mean= 0.235
 gam= 0.944 g(H,U,f)=  0.269E+00 0.243E+00 0.128E-01 ort(H,U,f) =-0.101E+00 0.130E+00-0.888E-02
CGA:  35    -0.219447918920E+03   -0.11967E+00   -0.11751E+00  5760   0.525E+00 0.201E-01
 gam= 0.944 trial= 0.244  step= 0.342 mean= 0.244
 gam= 1.048 g(H,U,f)=  0.223E+00 0.298E+00 0.293E-01 ort(H,U,f) =-0.112E+00 0.122E+00-0.127E-01
CGA:  36    -0.219541033781E+03   -0.93115E-01   -0.92972E-01  5760   0.550E+00-0.248E-02
 gam= 1.048 trial= 0.249  step= 0.284 mean= 0.249
 gam= 1.345 g(H,U,f)=  0.255E+00 0.377E+00 0.108E+00 ort(H,U,f) =-0.128E+00 0.118E+00 0.119E-02
CGA:  37    -0.219618120875E+03   -0.77087E-01   -0.77882E-01  5760   0.740E+00-0.889E-02
 gam= 1.345 trial= 0.251  step= 0.179 mean= 0.251
 gam= 0.774 g(H,U,f)=  0.219E+00 0.331E+00 0.227E-01 ort(H,U,f) =-0.890E-01 0.130E+00-0.368E-01
CGA:  38    -0.219683577053E+03   -0.65456E-01   -0.65060E-01  5760   0.573E+00 0.455E-02
 gam= 0.774 trial= 0.247  step= 0.219 mean= 0.247
 gam= 0.974 g(H,U,f)=  0.155E+00 0.284E+00 0.119E+00 ort(H,U,f) =-0.447E-01 0.526E-01-0.225E+00
CGA:  39    -0.219746968193E+03   -0.63391E-01   -0.63282E-01  5760   0.558E+00-0.217E+00
 gam= 0.974 trial= 0.246  step= 0.266 mean= 0.246
 gam= 2.423 g(H,U,f)=  0.272E+00 0.760E+00 0.321E+00 ort(H,U,f) =-0.107E+00-0.315E-01-0.138E+00
CGA:  40    -0.219789733066E+03   -0.42765E-01   -0.46143E-01  5760   0.135E+01-0.277E+00
 gam= 2.423 trial= 0.247  step= 0.051 mean= 0.247
 gam= 0.763 g(H,U,f)=  0.262E+00 0.557E+00 0.213E+00 ort(H,U,f) =-0.170E+00 0.282E+00-0.224E-01
CGA:  41    -0.219816453547E+03   -0.26720E-01   -0.17259E-01  5760   0.103E+01 0.891E-01
 gam= 0.763 trial= 0.237  step= 0.069 mean= 0.237
 gam= 0.756 g(H,U,f)=  0.233E+00 0.398E+00 0.149E+00 ort(H,U,f) =-0.812E-01 0.181E+00-0.210E+00
CGA:  42    -0.219852933511E+03   -0.36480E-01   -0.37831E-01  5760   0.781E+00-0.110E+00
 gam= 0.756 trial= 0.229  step= 0.120 mean= 0.229
 gam= 1.263 g(H,U,f)=  0.254E+00 0.472E+00 0.261E+00 ort(H,U,f) =-0.810E-01 0.144E+00-0.422E-01
CGA:  43    -0.219893072626E+03   -0.40139E-01   -0.41886E-01  5760   0.986E+00 0.207E-01
 gam= 1.263 trial= 0.223  step= 0.065 mean= 0.223
 gam= 0.607 g(H,U,f)=  0.255E+00 0.338E+00 0.594E-02 ort(H,U,f) =-0.108E+00 0.195E+00 0.218E-02
CGA:  44    -0.219927557743E+03   -0.34485E-01   -0.33051E-01  5760   0.599E+00 0.890E-01
 gam= 0.607 trial= 0.215  step= 0.120 mean= 0.215
 gam= 2.137 g(H,U,f)=  0.285E+00 0.594E+00 0.401E+00 ort(H,U,f) = 0.384E-02 0.122E+00-0.122E+00
CGA:  45    -0.219967271533E+03   -0.39714E-01   -0.39202E-01  5760   0.128E+01 0.420E-02
 gam= 2.137 trial= 0.211  step= 0.106 mean= 0.211
 gam= 0.000 g(H,U,f)=  0.316E+00 0.551E+00 0.452E+00 ort(H,U,f) =-0.352E+00 0.256E+00 0.101E+00
SDA:  46    -0.220032873188E+03   -0.65602E-01   -0.68613E-01  5760   0.132E+01 0.450E-02
 gam= 0.000 trial= 0.205  step= 0.085 mean= 0.205
 gam= 0.473 g(H,U,f)=  0.176E+00 0.280E+00 0.168E+00 ort(H,U,f) = 0.122E+00 0.296E-01-0.258E+00
CGA:  47    -0.220082216854E+03   -0.49344E-01   -0.56154E-01  5760   0.624E+00-0.107E+00
 gam= 0.473 trial= 0.199  step= 0.300 mean= 0.199
 gam= 0.572 g(H,U,f)=  0.113E+00 0.211E+00 0.335E-01 ort(H,U,f) =-0.592E-01 0.100E+00-0.398E-02
CGA:  48    -0.220170670963E+03   -0.88454E-01   -0.86089E-01  5760   0.357E+00 0.368E-01
 gam= 0.572 trial= 0.204  step= 0.434 mean= 0.204
 gam= 1.655 g(H,U,f)=  0.884E-01 0.191E+00 0.311E+00 ort(H,U,f) =-0.171E-01 0.126E+00-0.181E-01
CGA:  49    -0.220260017202E+03   -0.89346E-01   -0.81988E-01  5760   0.591E+00 0.906E-01
 gam= 1.655 trial= 0.216  step= 0.116 mean= 0.216
 gam= 0.512 g(H,U,f)=  0.679E-01 0.102E+00 0.133E+00 ort(H,U,f) =-0.878E-01 0.168E+00 0.727E-01
CGA:  50    -0.220294836438E+03   -0.34819E-01   -0.42902E-01  5760   0.303E+00 0.153E+00
 gam= 0.512 trial= 0.211  step= 0.203 mean= 0.211
 gam= 0.000 g(H,U,f)=  0.419E-01 0.489E-01 0.227E-01 ort(H,U,f) =-0.518E-02 0.130E+00 0.511E-01
CGA:  51    -0.220332263365E+03   -0.37427E-01   -0.38593E-01  5760   0.114E+00 0.176E+00
 gam= 0.000 trial= 0.211  step= 0.248 mean= 0.211
 gam= 1.468 g(H,U,f)=  0.308E-01 0.699E-01 0.659E-01 ort(H,U,f) = 0.133E-01 0.282E-01-0.162E-01
CGA:  52    -0.220346882496E+03   -0.14619E-01   -0.14081E-01  5760   0.167E+00 0.253E-01
 gam= 1.468 trial= 0.212  step= 0.186 mean= 0.212
 gam= 0.693 g(H,U,f)=  0.270E-01 0.550E-01 0.335E-01 ort(H,U,f) =-0.115E-01 0.422E-01-0.890E-02
CGA:  53    -0.220365365434E+03   -0.18483E-01   -0.18986E-01  5760   0.116E+00 0.218E-01
 gam= 0.693 trial= 0.211  step= 0.442 mean= 0.211
 gam= 1.317 g(H,U,f)=  0.460E-01 0.651E-01 0.410E-01 ort(H,U,f) =-0.277E-01 0.767E-01-0.250E-01
CGA:  54    -0.220397590968E+03   -0.32226E-01   -0.28866E-01  5760   0.152E+00 0.240E-01
 gam= 1.317 trial= 0.223  step= 0.196 mean= 0.223
 gam= 1.285 g(H,U,f)=  0.518E-01 0.428E-01 0.101E+00 ort(H,U,f) =-0.530E-01 0.631E-01-0.108E-01
CGA:  55    -0.220415638176E+03   -0.18047E-01   -0.18022E-01  5760   0.195E+00-0.689E-03
 gam= 1.285 trial= 0.221  step= 0.629 mean= 0.221
 gam= 2.184 g(H,U,f)=  0.184E+00 0.121E+00 0.123E+00 ort(H,U,f) =-0.801E-01-0.240E-01 0.614E-01
CGA:  56    -0.220475031958E+03   -0.59394E-01   -0.61157E-01  5760   0.427E+00-0.427E-01
 gam= 2.184 trial= 0.242  step= 0.039 mean= 0.242
 gam= 0.916 g(H,U,f)=  0.174E+00 0.119E+00 0.978E-01 ort(H,U,f) =-0.416E-02 0.128E-01 0.187E+00
CGA:  57    -0.220485254759E+03   -0.10223E-01   -0.64856E-02  5760   0.391E+00 0.195E+00
 gam= 0.916 trial= 0.232  step= 0.074 mean= 0.232
 gam= 0.606 g(H,U,f)=  0.108E+00 0.951E-01 0.337E-01 ort(H,U,f) = 0.919E-01-0.908E-02 0.773E-01
CGA:  58    -0.220510970051E+03   -0.25715E-01   -0.21176E-01  5760   0.237E+00 0.160E+00
 gam= 0.606 trial= 0.224  step= 0.111 mean= 0.224
 gam= 0.690 g(H,U,f)=  0.661E-01 0.951E-01 0.221E-02 ort(H,U,f) = 0.540E-01-0.300E-01 0.355E-02
CGA:  59    -0.220527599749E+03   -0.16630E-01   -0.18476E-01  5760   0.163E+00 0.276E-01
 gam= 0.690 trial= 0.218  step= 0.144 mean= 0.218
 gam= 0.828 g(H,U,f)=  0.654E-01 0.698E-01 0.111E-03 ort(H,U,f) = 0.161E-02 0.447E-02-0.655E-04
CGA:  60    -0.220540114042E+03   -0.12514E-01   -0.13169E-01  5760   0.135E+00 0.601E-02
 gam= 0.828 trial= 0.214  step= 0.167 mean= 0.214
 gam= 0.967 g(H,U,f)=  0.747E-01 0.557E-01 0.390E-03 ort(H,U,f) =-0.143E-01 0.153E-01-0.656E-03
CGA:  61    -0.220551758882E+03   -0.11645E-01   -0.11715E-01  5760   0.131E+00 0.336E-03
 gam= 0.967 trial= 0.212  step= 0.166 mean= 0.212
 gam= 0.696 g(H,U,f)=  0.533E-01 0.375E-01 0.183E-03 ort(H,U,f) =-0.218E-01 0.229E-01-0.555E-03
CGA:  62    -0.220562576373E+03   -0.10817E-01   -0.10879E-01  5760   0.910E-01 0.584E-03
 gam= 0.696 trial= 0.210  step= 0.142 mean= 0.210
 gam= 0.608 g(H,U,f)=  0.336E-01 0.218E-01 0.169E-04 ort(H,U,f) =-0.166E-01 0.164E-01-0.483E-04
CGA:  63    -0.220569175492E+03   -0.65991E-02   -0.64832E-02  5760   0.554E-01-0.320E-03
 gam= 0.608 trial= 0.206  step= 0.192 mean= 0.206
 gam= 1.246 g(H,U,f)=  0.313E-01 0.376E-01 0.104E-03 ort(H,U,f) =-0.114E-01 0.128E-01 0.974E-04
CGA:  64    -0.220574485853E+03   -0.53104E-02   -0.53083E-02  5760   0.690E-01 0.149E-02
 gam= 1.246 trial= 0.206  step= 0.234 mean= 0.206
 gam= 1.109 g(H,U,f)=  0.383E-01 0.382E-01 0.444E-04 ort(H,U,f) =-0.330E-01 0.280E-01 0.455E-04
CGA:  65    -0.220582686169E+03   -0.82003E-02   -0.82783E-02  5760   0.765E-01-0.492E-02
 gam= 1.109 trial= 0.207  step= 0.164 mean= 0.207
 gam= 0.720 g(H,U,f)=  0.354E-01 0.196E-01 0.263E-04 ort(H,U,f) =-0.244E-01 0.227E-01-0.821E-04
CGA:  66    -0.220588606306E+03   -0.59201E-02   -0.58209E-02  5760   0.551E-01-0.185E-02
 gam= 0.720 trial= 0.205  step= 0.179 mean= 0.205
 gam= 0.834 g(H,U,f)=  0.245E-01 0.214E-01 0.567E-05 ort(H,U,f) = 0.231E-03 0.162E-02-0.217E-04
CGA:  67    -0.220593385909E+03   -0.47796E-02   -0.47973E-02  5760   0.459E-01 0.183E-02
 gam= 0.834 trial= 0.204  step= 0.203 mean= 0.204
 gam= 0.881 g(H,U,f)=  0.169E-01 0.235E-01 0.102E-04 ort(H,U,f) =-0.245E-03 0.254E-03 0.374E-06
CGA:  68    -0.220598199145E+03   -0.48132E-02   -0.48132E-02  5760   0.405E-01 0.891E-05
 gam= 0.881 trial= 0.203  step= 0.198 mean= 0.203
 gam= 0.927 g(H,U,f)=  0.183E-01 0.192E-01 0.896E-05 ort(H,U,f) =-0.535E-02 0.439E-02 0.124E-04
CGA:  69    -0.220602215866E+03   -0.40167E-02   -0.40110E-02  5760   0.375E-01-0.943E-03
 gam= 0.927 trial= 0.203  step= 0.191 mean= 0.203
 gam= 0.933 g(H,U,f)=  0.193E-01 0.157E-01 0.139E-04 ort(H,U,f) =-0.364E-02 0.434E-02-0.192E-04
CGA:  70    -0.220605717374E+03   -0.35015E-02   -0.34994E-02  5760   0.350E-01 0.684E-03
 gam= 0.933 trial= 0.203  step= 0.178 mean= 0.203
 gam= 0.816 g(H,U,f)=  0.154E-01 0.117E-01 0.150E-02 ort(H,U,f) =-0.275E-02 0.286E-02-0.215E-02
CGA:  71    -0.220608889037E+03   -0.31717E-02   -0.31737E-02  5760   0.286E-01-0.204E-02
 gam= 0.816 trial= 0.201  step= 0.179 mean= 0.201
 gam= 1.022 g(H,U,f)=  0.132E-01 0.133E-01 0.270E-02 ort(H,U,f) =-0.475E-02 0.453E-02-0.389E-03
CGA:  72    -0.220611305476E+03   -0.24164E-02   -0.24096E-02  5760   0.292E-01-0.611E-03
 gam= 1.022 trial= 0.200  step= 0.169 mean= 0.200
 gam= 0.887 g(H,U,f)=  0.135E-01 0.113E-01 0.108E-02 ort(H,U,f) =-0.989E-02 0.110E-01 0.142E-02
CGA:  73    -0.220613656876E+03   -0.23514E-02   -0.24081E-02  5760   0.259E-01 0.257E-02
 gam= 0.887 trial= 0.199  step= 0.162 mean= 0.199
 gam= 0.689 g(H,U,f)=  0.124E-01 0.542E-02 0.834E-05 ort(H,U,f) =-0.835E-02 0.916E-02-0.173E-03
CGA:  74    -0.220615899189E+03   -0.22423E-02   -0.22799E-02  5760   0.178E-01 0.631E-03
 gam= 0.689 trial= 0.197  step= 0.208 mean= 0.197
 gam= 1.240 g(H,U,f)=  0.111E-01 0.105E-01 0.547E-03 ort(H,U,f) =-0.139E-02 0.221E-02-0.107E-02
CGA:  75    -0.220617800106E+03   -0.19009E-02   -0.19042E-02  5760   0.221E-01-0.257E-03
 gam= 1.240 trial= 0.197  step= 0.247 mean= 0.197
 gam= 1.104 g(H,U,f)=  0.109E-01 0.134E-01 0.145E-03 ort(H,U,f) =-0.521E-02 0.400E-02-0.367E-03
CGA:  76    -0.220620441681E+03   -0.26416E-02   -0.26921E-02  5760   0.244E-01-0.158E-02
 gam= 1.104 trial= 0.200  step= 0.164 mean= 0.200
 gam= 0.671 g(H,U,f)=  0.923E-02 0.691E-02 0.252E-03 ort(H,U,f) =-0.676E-02 0.537E-02 0.354E-03
CGA:  77    -0.220622354104E+03   -0.19124E-02   -0.18580E-02  5760   0.164E-01-0.104E-02
 gam= 0.671 trial= 0.198  step= 0.165 mean= 0.198
 gam= 0.894 g(H,U,f)=  0.806E-02 0.600E-02 0.599E-03 ort(H,U,f) =-0.175E-02 0.255E-02 0.706E-03
CGA:  78    -0.220623634469E+03   -0.12804E-02   -0.12931E-02  5760   0.147E-01 0.151E-02
 gam= 0.894 trial= 0.196  step= 0.178 mean= 0.196
 gam= 0.907 g(H,U,f)=  0.777E-02 0.534E-02 0.185E-03 ort(H,U,f) = 0.184E-04 0.121E-02 0.612E-03
CGA:  79    -0.220625040114E+03   -0.14056E-02   -0.14281E-02  5760   0.133E-01 0.184E-02
 gam= 0.907 trial= 0.196  step= 0.196 mean= 0.196
 gam= 0.973 g(H,U,f)=  0.669E-02 0.619E-02 0.584E-04 ort(H,U,f) = 0.606E-03-0.534E-04-0.295E-03
CGA:  80    -0.220626510318E+03   -0.14702E-02   -0.14698E-02  5760   0.129E-01 0.258E-03
 gam= 0.973 trial= 0.196  step= 0.209 mean= 0.196
 gam= 0.956 g(H,U,f)=  0.523E-02 0.687E-02 0.275E-03 ort(H,U,f) =-0.213E-02 0.216E-02-0.466E-03
CGA:  81    -0.220627884160E+03   -0.13738E-02   -0.13765E-02  5760   0.124E-01-0.434E-03
 gam= 0.956 trial= 0.196  step= 0.170 mean= 0.196
 gam= 0.000 g(H,U,f)=  0.487E-02 0.380E-02 0.114E-03 ort(H,U,f) =-0.480E-02 0.441E-02-0.109E-03
SDA:  82    -0.220628911774E+03   -0.10276E-02   -0.10186E-02  5760   0.879E-02-0.503E-03
 gam= 0.000 trial= 0.195  step= 0.472 mean= 0.195
 gam= 0.790 g(H,U,f)=  0.255E-02 0.433E-02 0.619E-04 ort(H,U,f) = 0.378E-04 0.149E-03-0.877E-04
CGA:  83    -0.220630984231E+03   -0.20725E-02   -0.20748E-02  5760   0.694E-02 0.995E-04
 gam= 0.790 trial= 0.209  step= 0.567 mean= 0.209
 gam= 0.948 g(H,U,f)=  0.312E-02 0.345E-02 0.156E-04 ort(H,U,f) =-0.215E-02 0.122E-02 0.309E-05
CGA:  84    -0.220632745995E+03   -0.17618E-02   -0.19912E-02  5760   0.658E-02-0.926E-03
 gam= 0.948 trial= 0.227  step= 0.410 mean= 0.227
 gam= 0.601 g(H,U,f)=  0.230E-02 0.165E-02 0.582E-06 ort(H,U,f) =-0.143E-02 0.140E-02-0.680E-06
CGA:  85    -0.220633907271E+03   -0.11613E-02   -0.11683E-02  5760   0.395E-02-0.370E-04
 gam= 0.601 trial= 0.236  step= 0.589 mean= 0.236
 gam= 0.783 g(H,U,f)=  0.168E-02 0.140E-02 0.165E-04 ort(H,U,f) =-0.758E-03 0.604E-03-0.101E-04
CGA:  86    -0.220635030443E+03   -0.11232E-02   -0.11583E-02  5760   0.310E-02-0.164E-03
 gam= 0.783 trial= 0.254  step= 0.551 mean= 0.254
 gam= 0.767 g(H,U,f)=  0.105E-02 0.132E-02 0.295E-05 ort(H,U,f) =-0.328E-03 0.378E-03-0.225E-05
CGA:  87    -0.220635854938E+03   -0.82450E-03   -0.81724E-03  5760   0.237E-02 0.484E-04
 gam= 0.767 trial= 0.268  step= 0.501 mean= 0.268
 gam= 0.921 g(H,U,f)=  0.962E-03 0.122E-02 0.784E-05 ort(H,U,f) =-0.299E-03 0.233E-03-0.659E-06
CGA:  88    -0.220636436303E+03   -0.58136E-03   -0.60350E-03  5760   0.219E-02-0.666E-04
 gam= 0.921 trial= 0.280  step= 0.548 mean= 0.280
 gam= 0.950 g(H,U,f)=  0.916E-03 0.116E-02 0.332E-05 ort(H,U,f) =-0.678E-03 0.670E-03 0.357E-05
CGA:  89    -0.220637014534E+03   -0.57823E-03   -0.58240E-03  5760   0.208E-02-0.447E-05
 gam= 0.950 trial= 0.293  step= 0.567 mean= 0.293
 gam= 1.129 g(H,U,f)=  0.102E-02 0.133E-02 0.138E-05 ort(H,U,f) =-0.639E-03 0.605E-03 0.137E-05
CGA:  90    -0.220637593370E+03   -0.57884E-03   -0.58800E-03  5760   0.235E-02-0.326E-04
 gam= 1.129 trial= 0.307  step= 0.683 mean= 0.307
 gam= 1.093 g(H,U,f)=  0.133E-02 0.123E-02 0.300E-05 ort(H,U,f) =-0.725E-03 0.743E-03-0.383E-05
CGA:  91    -0.220638386078E+03   -0.79271E-03   -0.78870E-03  5760   0.256E-02 0.142E-04
 gam= 1.093 trial= 0.326  step= 0.807 mean= 0.326
 gam= 1.243 g(H,U,f)=  0.148E-02 0.171E-02 0.955E-06 ort(H,U,f) =-0.468E-03 0.451E-03-0.643E-06
CGA:  92    -0.220639418796E+03   -0.10327E-02   -0.10409E-02  5760   0.319E-02-0.178E-04
 gam= 1.243 trial= 0.350  step= 0.439 mean= 0.350
 gam= 0.768 g(H,U,f)=  0.125E-02 0.120E-02 0.737E-06 ort(H,U,f) =-0.528E-03 0.509E-03-0.285E-06
CGA:  93    -0.220640108114E+03   -0.68932E-03   -0.69393E-03  5760   0.245E-02-0.190E-04
 gam= 0.768 trial= 0.354  step= 0.579 mean= 0.354
 gam= 1.060 g(H,U,f)=  0.994E-03 0.157E-02 0.294E-04 ort(H,U,f) =-0.394E-03 0.268E-03-0.327E-04
CGA:  94    -0.220640780169E+03   -0.67205E-03   -0.70483E-03  5760   0.259E-02-0.158E-03
 gam= 1.060 trial= 0.366  step= 0.639 mean= 0.366
 gam= 0.718 g(H,U,f)=  0.100E-02 0.852E-03 0.749E-05 ort(H,U,f) =-0.829E-03 0.654E-03-0.889E-05
CGA:  95    -0.220641524385E+03   -0.74422E-03   -0.77502E-03  5760   0.186E-02-0.184E-03
 gam= 0.718 trial= 0.379  step= 0.833 mean= 0.379
 gam= 1.077 g(H,U,f)=  0.996E-03 0.101E-02 0.184E-05 ort(H,U,f) =-0.395E-03 0.403E-03-0.688E-07
CGA:  96    -0.220642230446E+03   -0.70606E-03   -0.72005E-03  5760   0.200E-02 0.761E-05
 gam= 1.077 trial= 0.402  step= 0.681 mean= 0.402
 gam= 1.406 g(H,U,f)=  0.121E-02 0.154E-02 0.633E-04 ort(H,U,f) =-0.325E-03 0.299E-03 0.222E-04
CGA:  97    -0.220642907611E+03   -0.67716E-03   -0.68532E-03  5760   0.282E-02-0.398E-05
 gam= 1.406 trial= 0.416  step= 0.429 mean= 0.416
 gam= 0.529 g(H,U,f)=  0.766E-03 0.718E-03 0.640E-05 ort(H,U,f) =-0.329E-03 0.440E-03 0.259E-04
CGA:  98    -0.220643511466E+03   -0.60386E-03   -0.60281E-03  5760   0.149E-02 0.137E-03
 gam= 0.529 trial= 0.417  step= 0.602 mean= 0.417
 gam= 0.932 g(H,U,f)=  0.741E-03 0.644E-03 0.387E-05 ort(H,U,f) =-0.215E-03 0.212E-03-0.163E-04
CGA:  99    -0.220643980231E+03   -0.46876E-03   -0.47080E-03  5760   0.139E-02-0.188E-04
 gam= 0.932 trial= 0.426  step= 0.569 mean= 0.426
 gam= 0.693 g(H,U,f)=  0.455E-03 0.502E-03 0.479E-05 ort(H,U,f) =-0.224E-03 0.230E-03 0.111E-04
CGA: 100    -0.220644369440E+03   -0.38921E-03   -0.39048E-03  5760   0.962E-03 0.175E-04
 gam= 0.693 trial= 0.433  step= 0.465 mean= 0.433
 gam= 0.898 g(H,U,f)=  0.441E-03 0.422E-03 0.146E-05 ort(H,U,f) =-0.219E-03 0.235E-03-0.191E-05
CGA: 101    -0.220644595963E+03   -0.22652E-03   -0.22664E-03  5760   0.864E-03 0.134E-04
 gam= 0.898 trial= 0.435  step= 0.574 mean= 0.435
 gam= 0.827 g(H,U,f)=  0.335E-03 0.379E-03 0.775E-06 ort(H,U,f) =-0.163E-03 0.139E-03-0.388E-05
CGA: 102    -0.220644843176E+03   -0.24721E-03   -0.25135E-03  5760   0.714E-03-0.278E-04
 gam= 0.827 trial= 0.442  step= 0.479 mean= 0.442
 gam= 0.656 g(H,U,f)=  0.237E-03 0.230E-03 0.847E-06 ort(H,U,f) =-0.825E-04 0.751E-04-0.113E-05
CGA: 103    -0.220645008341E+03   -0.16516E-03   -0.16538E-03  5760   0.469E-03-0.859E-05
 gam= 0.656 trial= 0.443  step= 0.482 mean= 0.443
 gam= 0.553 g(H,U,f)=  0.149E-03 0.109E-03 0.250E-06 ort(H,U,f) =-0.489E-04 0.433E-04-0.111E-05
CGA: 104    -0.220645119851E+03   -0.11151E-03   -0.11165E-03  5760   0.259E-03-0.677E-05
 gam= 0.553 trial= 0.445  step= 0.638 mean= 0.445
 gam= 0.957 g(H,U,f)=  0.977E-04 0.150E-03 0.561E-06 ort(H,U,f) =-0.378E-04 0.318E-04-0.832E-06
CGA: 105    -0.220645200743E+03   -0.80892E-04   -0.81383E-04  5760   0.248E-03-0.681E-05
 gam= 0.957 trial= 0.455  step= 0.407 mean= 0.455
 gam= 0.724 g(H,U,f)=  0.707E-04 0.107E-03 0.125E-05 ort(H,U,f) =-0.306E-04 0.295E-04-0.119E-05
CGA: 106    -0.220645250470E+03   -0.49727E-04   -0.49127E-04  5760   0.179E-03-0.235E-05
 gam= 0.724 trial= 0.453  step= 0.632 mean= 0.453
 gam= 0.882 g(H,U,f)=  0.755E-04 0.783E-04 0.426E-05 ort(H,U,f) =-0.413E-04 0.445E-04-0.833E-06
CGA: 107    -0.220645306978E+03   -0.56508E-04   -0.56148E-04  5760   0.158E-03 0.242E-05
 gam= 0.882 trial= 0.462  step= 0.805 mean= 0.462
 gam= 1.175 g(H,U,f)=  0.997E-04 0.857E-04 0.355E-06 ort(H,U,f) =-0.477E-04 0.526E-04 0.958E-06
CGA: 108    -0.220645372527E+03   -0.65549E-04   -0.64496E-04  5760   0.186E-03 0.585E-05
 gam= 1.175 trial= 0.479  step= 0.591 mean= 0.479
 gam= 1.269 g(H,U,f)=  0.109E-03 0.126E-03 0.835E-06 ort(H,U,f) =-0.474E-04 0.509E-04-0.155E-05
CGA: 109    -0.220645429393E+03   -0.56866E-04   -0.56919E-04  5760   0.236E-03 0.194E-05
 gam= 1.269 trial= 0.484  step= 0.501 mean= 0.484
 gam= 0.857 g(H,U,f)=  0.108E-03 0.930E-04 0.106E-05 ort(H,U,f) =-0.578E-04 0.556E-04 0.166E-05
CGA: 110    -0.220645488937E+03   -0.59543E-04   -0.59638E-04  5760   0.202E-03-0.600E-06
 gam= 0.857 trial= 0.485  step= 0.809 mean= 0.485
 gam= 0.890 g(H,U,f)=  0.106E-03 0.727E-04 0.101E-05 ort(H,U,f) =-0.610E-04 0.652E-04-0.289E-05
CGA: 111    -0.220645571498E+03   -0.82562E-04   -0.81475E-04  5760   0.180E-03 0.126E-05
 gam= 0.890 trial= 0.501  step= 0.760 mean= 0.501
 gam= 1.519 g(H,U,f)=  0.124E-03 0.148E-03 0.681E-06 ort(H,U,f) =-0.433E-04 0.405E-04 0.161E-06
CGA: 112    -0.220645639356E+03   -0.67858E-04   -0.68778E-04  5760   0.273E-03-0.264E-05
 gam= 1.519 trial= 0.514  step= 0.491 mean= 0.514
 gam= 0.000 g(H,U,f)=  0.131E-03 0.143E-03 0.263E-05 ort(H,U,f) =-0.734E-04 0.768E-04 0.336E-05
SDA: 113    -0.220645705537E+03   -0.66181E-04   -0.66029E-04  5760   0.276E-03 0.677E-05
 gam= 0.000 trial= 0.513  step= 0.300 mean= 0.513
 gam= 0.486 g(H,U,f)=  0.492E-04 0.840E-04 0.103E-05 ort(H,U,f) = 0.323E-04-0.272E-04-0.160E-05
CGA: 114    -0.220645748124E+03   -0.42587E-04   -0.41487E-04  5760   0.134E-03 0.357E-05
 gam= 0.486 trial= 0.503  step= 0.525 mean= 0.503
 gam= 0.690 g(H,U,f)=  0.387E-04 0.527E-04 0.127E-05 ort(H,U,f) =-0.143E-04 0.132E-04 0.241E-06
CGA: 115    -0.220645783760E+03   -0.35636E-04   -0.35670E-04  5760   0.926E-04-0.878E-06
 gam= 0.690 trial= 0.504  step= 0.659 mean= 0.504
 gam= 0.721 g(H,U,f)=  0.384E-04 0.282E-04 0.140E-06 ort(H,U,f) =-0.231E-04 0.247E-04-0.407E-06
CGA: 116    -0.220645814209E+03   -0.30449E-04   -0.30299E-04  5760   0.667E-04 0.113E-05
 gam= 0.721 trial= 0.511  step= 0.714 mean= 0.511
 gam= 0.822 g(H,U,f)=  0.302E-04 0.247E-04 0.304E-07 ort(H,U,f) =-0.143E-04 0.142E-04 0.315E-07
CGA: 117    -0.220645838309E+03   -0.24100E-04   -0.24118E-04  5760   0.549E-04-0.603E-07
 gam= 0.822 trial= 0.522  step= 0.753 mean= 0.522
 gam= 0.870 g(H,U,f)=  0.218E-04 0.255E-04 0.411E-06 ort(H,U,f) =-0.101E-04 0.953E-05-0.333E-06
CGA: 118    -0.220645858903E+03   -0.20594E-04   -0.20633E-04  5760   0.477E-04-0.877E-06
 gam= 0.870 trial= 0.533  step= 0.538 mean= 0.533
 gam= 0.980 g(H,U,f)=  0.164E-04 0.303E-04 0.624E-07 ort(H,U,f) =-0.486E-05 0.650E-05-0.124E-07
CGA: 119    -0.220645871539E+03   -0.12636E-04   -0.12638E-04  5760   0.468E-04 0.162E-05
 gam= 0.980 trial= 0.533  step= 0.535 mean= 0.533
 gam= 0.880 g(H,U,f)=  0.181E-04 0.230E-04 0.202E-07 ort(H,U,f) =-0.106E-04 0.105E-04-0.404E-07
CGA: 120    -0.220645884476E+03   -0.12937E-04   -0.12939E-04  5760   0.412E-04-0.208E-06
 gam= 0.880 trial= 0.533  step= 0.783 mean= 0.533
 gam= 1.005 g(H,U,f)=  0.223E-04 0.190E-04 0.798E-07 ort(H,U,f) =-0.147E-04 0.143E-04 0.871E-08
CGA: 121    -0.220645900461E+03   -0.15985E-04   -0.16048E-04  5760   0.414E-04-0.301E-06
 gam= 1.005 trial= 0.546  step= 0.690 mean= 0.546
 gam= 1.085 g(H,U,f)=  0.207E-04 0.239E-04 0.216E-06 ort(H,U,f) =-0.931E-05 0.105E-04-0.526E-07
CGA: 122    -0.220645914675E+03   -0.14214E-04   -0.14164E-04  5760   0.449E-04 0.111E-05
 gam= 1.085 trial= 0.553  step= 0.672 mean= 0.553
 gam= 0.986 g(H,U,f)=  0.226E-04 0.215E-04 0.461E-07 ort(H,U,f) =-0.928E-05 0.102E-04-0.125E-07
CGA: 123    -0.220645930162E+03   -0.15487E-04   -0.15484E-04  5760   0.442E-04 0.942E-06
 gam= 0.986 trial= 0.559  step= 0.716 mean= 0.559
 gam= 0.916 g(H,U,f)=  0.203E-04 0.202E-04 0.127E-07 ort(H,U,f) =-0.708E-05 0.639E-05-0.251E-07
CGA: 124    -0.220645946253E+03   -0.16092E-04   -0.16151E-04  5760   0.405E-04-0.720E-06
 gam= 0.916 trial= 0.567  step= 0.652 mean= 0.567
 gam= 0.908 g(H,U,f)=  0.157E-04 0.210E-04 0.504E-07 ort(H,U,f) =-0.646E-05 0.595E-05-0.251E-07
CGA: 125    -0.220645959205E+03   -0.12951E-04   -0.12987E-04  5760   0.368E-04-0.538E-06
 gam= 0.908 trial= 0.571  step= 0.629 mean= 0.571
 gam= 0.978 g(H,U,f)=  0.146E-04 0.213E-04 0.536E-07 ort(H,U,f) =-0.751E-05 0.771E-05-0.341E-07
CGA: 126    -0.220645970607E+03   -0.11403E-04   -0.11414E-04  5760   0.360E-04 0.161E-06
 gam= 0.978 trial= 0.574  step= 0.518 mean= 0.574
 gam= 0.908 g(H,U,f)=  0.129E-04 0.197E-04 0.251E-07 ort(H,U,f) =-0.649E-05 0.573E-05 0.446E-08
CGA: 127    -0.220645980080E+03   -0.94731E-05   -0.93629E-05  5760   0.326E-04-0.755E-06
 gam= 0.908 trial= 0.571  step= 0.811 mean= 0.571
 gam= 0.924 g(H,U,f)=  0.153E-04 0.147E-04 0.209E-06 ort(H,U,f) =-0.898E-05 0.732E-05 0.661E-07
CGA: 128    -0.220645992824E+03   -0.12744E-04   -0.12954E-04  5760   0.302E-04-0.160E-05
 gam= 0.924 trial= 0.583  step= 0.673 mean= 0.583
 gam= 0.816 g(H,U,f)=  0.126E-04 0.120E-04 0.316E-07 ort(H,U,f) =-0.503E-05 0.531E-05-0.487E-07
CGA: 129    -0.220646002507E+03   -0.96831E-05   -0.96573E-05  5760   0.246E-04 0.229E-06
 gam= 0.816 trial= 0.588  step= 0.646 mean= 0.588
 gam= 0.904 g(H,U,f)=  0.934E-05 0.129E-04 0.492E-07 ort(H,U,f) =-0.233E-05 0.231E-05 0.616E-07
CGA: 130    -0.220646010478E+03   -0.79704E-05   -0.80197E-05  5760   0.223E-04 0.489E-07
 gam= 0.904 trial= 0.591  step= 0.523 mean= 0.591
 gam= 0.854 g(H,U,f)=  0.790E-05 0.111E-04 0.121E-07 ort(H,U,f) =-0.259E-05 0.219E-05 0.304E-07
CGA: 131    -0.220646016365E+03   -0.58878E-05   -0.58354E-05  5760   0.190E-04-0.380E-06
 gam= 0.854 trial= 0.587  step= 0.506 mean= 0.587
 gam= 0.545 g(H,U,f)=  0.585E-05 0.452E-05 0.346E-08 ort(H,U,f) =-0.330E-05 0.388E-05 0.243E-07
CGA: 132    -0.220646021070E+03   -0.47041E-05   -0.47280E-05  5760   0.104E-04 0.599E-06
 gam= 0.545 trial= 0.583  step= 0.765 mean= 0.583
 gam= 0.771 g(H,U,f)=  0.367E-05 0.432E-05 0.107E-08 ort(H,U,f) =-0.111E-05 0.200E-05-0.509E-08
CGA: 133    -0.220646025241E+03   -0.41713E-05   -0.40926E-05  5760   0.800E-05 0.884E-06
 gam= 0.771 trial= 0.592  step= 0.525 mean= 0.592
 gam= 0.752 g(H,U,f)=  0.282E-05 0.319E-05 0.414E-08 ort(H,U,f) =-0.969E-06 0.103E-05 0.662E-08
CGA: 134    -0.220646027519E+03   -0.22784E-05   -0.22768E-05  5760   0.601E-05 0.710E-07
 gam= 0.752 trial= 0.589  step= 0.691 mean= 0.589
 gam= 0.757 g(H,U,f)=  0.204E-05 0.251E-05 0.301E-08 ort(H,U,f) =-0.759E-06 0.103E-05-0.920E-08
CGA: 135    -0.220646029627E+03   -0.21079E-05   -0.20950E-05  5760   0.455E-05 0.258E-06
 gam= 0.757 trial= 0.594  step= 0.583 mean= 0.594
 gam= 0.637 g(H,U,f)=  0.140E-05 0.150E-05 0.996E-09 ort(H,U,f) =-0.688E-06 0.942E-06-0.233E-08
CGA: 136    -0.220646031011E+03   -0.13839E-05   -0.13849E-05  5760   0.290E-05 0.251E-06
 gam= 0.637 trial= 0.593  step= 1.012 mean= 0.593
 gam= 1.352 g(H,U,f)=  0.170E-05 0.222E-05 0.166E-08 ort(H,U,f) =-0.827E-06 0.622E-06 0.110E-08
CGA: 137    -0.220646032512E+03   -0.15014E-05   -0.15485E-05  5760   0.392E-05-0.204E-06
 gam= 1.352 trial= 0.614  step= 0.584 mean= 0.614
 gam= 0.909 g(H,U,f)=  0.195E-05 0.162E-05 0.108E-08 ort(H,U,f) =-0.105E-05 0.116E-05-0.140E-08
CGA: 138    -0.220646033576E+03   -0.10639E-05   -0.10649E-05  5760   0.357E-05 0.111E-06
 gam= 0.909 trial= 0.613  step= 0.548 mean= 0.613
 gam= 0.913 g(H,U,f)=  0.140E-05 0.186E-05 0.998E-09 ort(H,U,f) =-0.503E-06 0.647E-06-0.724E-09
CGA: 139    -0.220646034582E+03   -0.10061E-05   -0.10049E-05  5760   0.326E-05 0.143E-06
 gam= 0.913 trial= 0.610  step= 0.676 mean= 0.610
 gam= 1.055 g(H,U,f)=  0.157E-05 0.186E-05 0.257E-08 ort(H,U,f) =-0.799E-06 0.541E-06-0.155E-08
CGA: 140    -0.220646035715E+03   -0.11331E-05   -0.11449E-05  5760   0.343E-05-0.259E-06
 gam= 1.055 trial= 0.613  step= 0.664 mean= 0.613
 gam= 0.845 g(H,U,f)=  0.157E-05 0.133E-05 0.768E-10 ort(H,U,f) =-0.778E-06 0.797E-06-0.612E-11
CGA: 141    -0.220646036765E+03   -0.10497E-05   -0.10487E-05  5760   0.290E-05 0.183E-07
 gam= 0.845 trial= 0.615  step= 0.628 mean= 0.615
 gam= 0.791 g(H,U,f)=  0.114E-05 0.114E-05 0.105E-07 ort(H,U,f) =-0.435E-06 0.807E-06-0.649E-08
CGA: 142    -0.220646037684E+03   -0.91874E-06   -0.91669E-06  5760   0.230E-05 0.365E-06
 gam= 0.791 trial= 0.616  step= 0.958 mean= 0.616
 gam= 1.469 g(H,U,f)=  0.149E-05 0.182E-05 0.590E-07 ort(H,U,f) =-0.678E-06 0.694E-06 0.123E-07
CGA: 143    -0.220646038918E+03   -0.12338E-05   -0.12376E-05  5760   0.337E-05 0.278E-07
 gam= 1.469 trial= 0.633  step= 0.635 mean= 0.633
 gam= 0.000 g(H,U,f)=  0.183E-05 0.689E-06 0.101E-07 ort(H,U,f) =-0.137E-05 0.132E-05-0.353E-07
SDA: 144    -0.220646040001E+03   -0.10838E-05   -0.10839E-05  5760   0.253E-05-0.899E-07
 gam= 0.000 trial= 0.633  step= 0.588 mean= 0.633
 gam= 0.822 g(H,U,f)=  0.788E-06 0.126E-05 0.363E-07 ort(H,U,f) = 0.200E-06-0.158E-06-0.181E-07
CGA: 145    -0.220646040746E+03   -0.74431E-06   -0.74451E-06  5760   0.208E-05 0.240E-07
 gam= 0.822 trial= 0.631  step= 0.465 mean= 0.631
 final diagonalization
   1 F= -.23156396E+03 E0= -.23156350E+03  d E =-.921358E-03  mag=     6.0000
