       N       E                     dE             d eps       ncg     rms          ort
DAV:   1     0.354939107644E+04    0.35494E+04   -0.14040E+05  5760   0.226E+03
DAV:   2     0.414837460485E+03   -0.31346E+04   -0.28932E+04  5760   0.555E+02
DAV:   3    -0.217118319617E+03   -0.63196E+03   -0.56626E+03  5760   0.258E+02
DAV:   4    -0.268407872340E+03   -0.51290E+02   -0.50340E+02  5760   0.759E+01
DAV:   5    -0.270010842295E+03   -0.16030E+01   -0.16007E+01  5760   0.133E+01
SDA:   6     0.918520540777E+02    0.36186E+03   -0.16007E+01  5760   0.630E+04 0.000E+00
CGA:   7    -0.515917561156E+02   -0.14344E+03   -0.36414E+03  5760   0.315E+04 0.533E+03
CGA:   8    -0.931226909029E+02   -0.41531E+02   -0.95726E+02  5760   0.622E+04 0.917E+03
CGA:   9    -0.475774834653E+02    0.45545E+02   -0.20146E+03  5760   0.410E+04-0.290E+04
CGA:  10    -0.111291671567E+03   -0.63714E+02   -0.51840E+02  5760   0.213E+04-0.291E+03
CGA:  11    -0.142613155821E+03   -0.31321E+02   -0.30943E+02  5760   0.732E+03 0.426E+03
CGA:  12    -0.151834842929E+03   -0.92217E+01   -0.58730E+01  5760   0.583E+03 0.673E+03
CGA:  13    -0.182933879733E+03   -0.31099E+02   -0.23006E+02  5760   0.356E+03-0.475E+02
CGA:  14    -0.202522594881E+03   -0.19589E+02   -0.20727E+02  5760   0.237E+03-0.162E+02
CGA:  15    -0.202075617923E+03    0.44698E+00   -0.10093E+02  5760   0.279E+03-0.191E+03
CGA:  16    -0.209619197750E+03   -0.75436E+01   -0.81502E+01  5760   0.830E+02-0.377E+02
CGA:  17    -0.214778889532E+03   -0.51597E+01   -0.52804E+01  5760   0.169E+02-0.166E+00
CGA:  18    -0.215489849798E+03   -0.71096E+00   -0.75669E+00  5760   0.125E+02-0.936E+00
CGA:  19    -0.217233814339E+03   -0.17440E+01   -0.17249E+01  5760   0.759E+01 0.541E+00
CGA:  20    -0.217724340379E+03   -0.49053E+00   -0.49609E+00  5760   0.423E+01-0.799E-01
CGA:  21    -0.217917006289E+03   -0.19267E+00   -0.21201E+00  5760   0.126E+01-0.156E+00
CGA:  22    -0.218132539669E+03   -0.21553E+00   -0.21440E+00  5760   0.168E+01 0.222E-01
CGA:  23    -0.218250317757E+03   -0.11778E+00   -0.12400E+00  5760   0.139E+01-0.104E-01
CGA:  24    -0.218350404495E+03   -0.10009E+00   -0.10226E+00  5760   0.429E+00 0.580E-02
CGA:  25    -0.218415608784E+03   -0.65204E-01   -0.64775E-01  5760   0.739E+00 0.225E-01
CGA:  26    -0.218481896184E+03   -0.66287E-01   -0.70482E-01  5760   0.614E+00 0.200E-01
CGA:  27    -0.218600676672E+03   -0.11878E+00   -0.12043E+00  5760   0.594E+00 0.141E-01
CGA:  28    -0.218677020762E+03   -0.76344E-01   -0.75845E-01  5760   0.660E+00 0.796E-01
CGA:  29    -0.218798524657E+03   -0.12150E+00   -0.12000E+00  5760   0.113E+01 0.732E-01
CGA:  30    -0.218923399517E+03   -0.12487E+00   -0.12516E+00  5760   0.116E+01 0.283E-01
CGA:  31    -0.219042089346E+03   -0.11869E+00   -0.11771E+00  5760   0.133E+01-0.102E-01
CGA:  32    -0.219138217172E+03   -0.96128E-01   -0.10227E+00  5760   0.102E+01 0.151E-01
CGA:  33    -0.219244899570E+03   -0.10668E+00   -0.10840E+00  5760   0.813E+00 0.457E-01
CGA:  34    -0.219328252046E+03   -0.83352E-01   -0.84296E-01  5760   0.556E+00 0.164E-01
CGA:  35    -0.219447918920E+03   -0.11967E+00   -0.11751E+00  5760   0.525E+00 0.201E-01
CGA:  36    -0.219541033781E+03   -0.93115E-01   -0.92972E-01  5760   0.550E+00-0.248E-02
CGA:  37    -0.219618120875E+03   -0.77087E-01   -0.77882E-01  5760   0.740E+00-0.889E-02
CGA:  38    -0.219683577053E+03   -0.65456E-01   -0.65060E-01  5760   0.573E+00 0.455E-02
CGA:  39    -0.219746968193E+03   -0.63391E-01   -0.63282E-01  5760   0.558E+00-0.217E+00
CGA:  40    -0.219789733066E+03   -0.42765E-01   -0.46143E-01  5760   0.135E+01-0.277E+00
CGA:  41    -0.219816453547E+03   -0.26720E-01   -0.17259E-01  5760   0.103E+01 0.891E-01
CGA:  42    -0.219852933511E+03   -0.36480E-01   -0.37831E-01  5760   0.781E+00-0.110E+00
CGA:  43    -0.219893072626E+03   -0.40139E-01   -0.41886E-01  5760   0.986E+00 0.207E-01
CGA:  44    -0.219927557743E+03   -0.34485E-01   -0.33051E-01  5760   0.599E+00 0.890E-01
CGA:  45    -0.219967271533E+03   -0.39714E-01   -0.39202E-01  5760   0.128E+01 0.420E-02
SDA:  46    -0.220032873188E+03   -0.65602E-01   -0.68613E-01  5760   0.132E+01 0.450E-02
CGA:  47    -0.220082216854E+03   -0.49344E-01   -0.56154E-01  5760   0.624E+00-0.107E+00
CGA:  48    -0.220170670963E+03   -0.88454E-01   -0.86089E-01  5760   0.357E+00 0.368E-01
CGA:  49    -0.220260017202E+03   -0.89346E-01   -0.81988E-01  5760   0.591E+00 0.906E-01
CGA:  50    -0.220294836438E+03   -0.34819E-01   -0.42902E-01  5760   0.303E+00 0.153E+00
CGA:  51    -0.220332263365E+03   -0.37427E-01   -0.38593E-01  5760   0.114E+00 0.176E+00
CGA:  52    -0.220346882496E+03   -0.14619E-01   -0.14081E-01  5760   0.167E+00 0.253E-01
CGA:  53    -0.220365365434E+03   -0.18483E-01   -0.18986E-01  5760   0.116E+00 0.218E-01
CGA:  54    -0.220397590968E+03   -0.32226E-01   -0.28866E-01  5760   0.152E+00 0.240E-01
CGA:  55    -0.220415638176E+03   -0.18047E-01   -0.18022E-01  5760   0.195E+00-0.689E-03
CGA:  56    -0.220475031958E+03   -0.59394E-01   -0.61157E-01  5760   0.427E+00-0.427E-01
CGA:  57    -0.220485254759E+03   -0.10223E-01   -0.64856E-02  5760   0.391E+00 0.195E+00
CGA:  58    -0.220510970051E+03   -0.25715E-01   -0.21176E-01  5760   0.237E+00 0.160E+00
CGA:  59    -0.220527599749E+03   -0.16630E-01   -0.18476E-01  5760   0.163E+00 0.276E-01
CGA:  60    -0.220540114042E+03   -0.12514E-01   -0.13169E-01  5760   0.135E+00 0.601E-02
CGA:  61    -0.220551758882E+03   -0.11645E-01   -0.11715E-01  5760   0.131E+00 0.336E-03
CGA:  62    -0.220562576373E+03   -0.10817E-01   -0.10879E-01  5760   0.910E-01 0.584E-03
CGA:  63    -0.220569175492E+03   -0.65991E-02   -0.64832E-02  5760   0.554E-01-0.320E-03
CGA:  64    -0.220574485853E+03   -0.53104E-02   -0.53083E-02  5760   0.690E-01 0.149E-02
CGA:  65    -0.220582686169E+03   -0.82003E-02   -0.82783E-02  5760   0.765E-01-0.492E-02
CGA:  66    -0.220588606306E+03   -0.59201E-02   -0.58209E-02  5760   0.551E-01-0.185E-02
CGA:  67    -0.220593385909E+03   -0.47796E-02   -0.47973E-02  5760   0.459E-01 0.183E-02
CGA:  68    -0.220598199145E+03   -0.48132E-02   -0.48132E-02  5760   0.405E-01 0.891E-05
CGA:  69    -0.220602215866E+03   -0.40167E-02   -0.40110E-02  5760   0.375E-01-0.943E-03
CGA:  70    -0.220605717374E+03   -0.35015E-02   -0.34994E-02  5760   0.350E-01 0.684E-03
CGA:  71    -0.220608889037E+03   -0.31717E-02   -0.31737E-02  5760   0.286E-01-0.204E-02
CGA:  72    -0.220611305476E+03   -0.24164E-02   -0.24096E-02  5760   0.292E-01-0.611E-03
CGA:  73    -0.220613656876E+03   -0.23514E-02   -0.24081E-02  5760   0.259E-01 0.257E-02
CGA:  74    -0.220615899189E+03   -0.22423E-02   -0.22799E-02  5760   0.178E-01 0.631E-03
CGA:  75    -0.220617800106E+03   -0.19009E-02   -0.19042E-02  5760   0.221E-01-0.257E-03
CGA:  76    -0.220620441681E+03   -0.26416E-02   -0.26921E-02  5760   0.244E-01-0.158E-02
CGA:  77    -0.220622354104E+03   -0.19124E-02   -0.18580E-02  5760   0.164E-01-0.104E-02
CGA:  78    -0.220623634469E+03   -0.12804E-02   -0.12931E-02  5760   0.147E-01 0.151E-02
CGA:  79    -0.220625040114E+03   -0.14056E-02   -0.14281E-02  5760   0.133E-01 0.184E-02
CGA:  80    -0.220626510318E+03   -0.14702E-02   -0.14698E-02  5760   0.129E-01 0.258E-03
CGA:  81    -0.220627884160E+03   -0.13738E-02   -0.13765E-02  5760   0.124E-01-0.434E-03
SDA:  82    -0.220628911774E+03   -0.10276E-02   -0.10186E-02  5760   0.879E-02-0.503E-03
CGA:  83    -0.220630984231E+03   -0.20725E-02   -0.20748E-02  5760   0.694E-02 0.995E-04
CGA:  84    -0.220632745995E+03   -0.17618E-02   -0.19912E-02  5760   0.658E-02-0.926E-03
CGA:  85    -0.220633907271E+03   -0.11613E-02   -0.11683E-02  5760   0.395E-02-0.370E-04
CGA:  86    -0.220635030443E+03   -0.11232E-02   -0.11583E-02  5760   0.310E-02-0.164E-03
CGA:  87    -0.220635854938E+03   -0.82450E-03   -0.81724E-03  5760   0.237E-02 0.484E-04
CGA:  88    -0.220636436303E+03   -0.58136E-03   -0.60350E-03  5760   0.219E-02-0.666E-04
CGA:  89    -0.220637014534E+03   -0.57823E-03   -0.58240E-03  5760   0.208E-02-0.447E-05
CGA:  90    -0.220637593370E+03   -0.57884E-03   -0.58800E-03  5760   0.235E-02-0.326E-04
CGA:  91    -0.220638386078E+03   -0.79271E-03   -0.78870E-03  5760   0.256E-02 0.142E-04
CGA:  92    -0.220639418796E+03   -0.10327E-02   -0.10409E-02  5760   0.319E-02-0.178E-04
CGA:  93    -0.220640108114E+03   -0.68932E-03   -0.69393E-03  5760   0.245E-02-0.190E-04
CGA:  94    -0.220640780169E+03   -0.67205E-03   -0.70483E-03  5760   0.259E-02-0.158E-03
CGA:  95    -0.220641524385E+03   -0.74422E-03   -0.77502E-03  5760   0.186E-02-0.184E-03
CGA:  96    -0.220642230446E+03   -0.70606E-03   -0.72005E-03  5760   0.200E-02 0.761E-05
CGA:  97    -0.220642907611E+03   -0.67716E-03   -0.68532E-03  5760   0.282E-02-0.398E-05
CGA:  98    -0.220643511466E+03   -0.60386E-03   -0.60281E-03  5760   0.149E-02 0.137E-03
CGA:  99    -0.220643980231E+03   -0.46876E-03   -0.47080E-03  5760   0.139E-02-0.188E-04
CGA: 100    -0.220644369440E+03   -0.38921E-03   -0.39048E-03  5760   0.962E-03 0.175E-04
CGA: 101    -0.220644595963E+03   -0.22652E-03   -0.22664E-03  5760   0.864E-03 0.134E-04
CGA: 102    -0.220644843176E+03   -0.24721E-03   -0.25135E-03  5760   0.714E-03-0.278E-04
CGA: 103    -0.220645008341E+03   -0.16516E-03   -0.16538E-03  5760   0.469E-03-0.859E-05
CGA: 104    -0.220645119851E+03   -0.11151E-03   -0.11165E-03  5760   0.259E-03-0.677E-05
CGA: 105    -0.220645200743E+03   -0.80892E-04   -0.81383E-04  5760   0.248E-03-0.681E-05
CGA: 106    -0.220645250470E+03   -0.49727E-04   -0.49127E-04  5760   0.179E-03-0.235E-05
CGA: 107    -0.220645306978E+03   -0.56508E-04   -0.56148E-04  5760   0.158E-03 0.242E-05
CGA: 108    -0.220645372527E+03   -0.65549E-04   -0.64496E-04  5760   0.186E-03 0.585E-05
CGA: 109    -0.220645429393E+03   -0.56866E-04   -0.56919E-04  5760   0.236E-03 0.194E-05
CGA: 110    -0.220645488937E+03   -0.59543E-04   -0.59638E-04  5760   0.202E-03-0.600E-06
CGA: 111    -0.220645571498E+03   -0.82562E-04   -0.81475E-04  5760   0.180E-03 0.126E-05
CGA: 112    -0.220645639356E+03   -0.67858E-04   -0.68778E-04  5760   0.273E-03-0.264E-05
SDA: 113    -0.220645705537E+03   -0.66181E-04   -0.66029E-04  5760   0.276E-03 0.677E-05
CGA: 114    -0.220645748124E+03   -0.42587E-04   -0.41487E-04  5760   0.134E-03 0.357E-05
CGA: 115    -0.220645783760E+03   -0.35636E-04   -0.35670E-04  5760   0.926E-04-0.878E-06
CGA: 116    -0.220645814209E+03   -0.30449E-04   -0.30299E-04  5760   0.667E-04 0.113E-05
CGA: 117    -0.220645838309E+03   -0.24100E-04   -0.24118E-04  5760   0.549E-04-0.603E-07
CGA: 118    -0.220645858903E+03   -0.20594E-04   -0.20633E-04  5760   0.477E-04-0.877E-06
CGA: 119    -0.220645871539E+03   -0.12636E-04   -0.12638E-04  5760   0.468E-04 0.162E-05
CGA: 120    -0.220645884476E+03   -0.12937E-04   -0.12939E-04  5760   0.412E-04-0.208E-06
CGA: 121    -0.220645900461E+03   -0.15985E-04   -0.16048E-04  5760   0.414E-04-0.301E-06
CGA: 122    -0.220645914675E+03   -0.14214E-04   -0.14164E-04  5760   0.449E-04 0.111E-05
CGA: 123    -0.220645930162E+03   -0.15487E-04   -0.15484E-04  5760   0.442E-04 0.942E-06
CGA: 124    -0.220645946253E+03   -0.16092E-04   -0.16151E-04  5760   0.405E-04-0.720E-06
CGA: 125    -0.220645959205E+03   -0.12951E-04   -0.12987E-04  5760   0.368E-04-0.538E-06
CGA: 126    -0.220645970607E+03   -0.11403E-04   -0.11414E-04  5760   0.360E-04 0.161E-06
CGA: 127    -0.220645980080E+03   -0.94731E-05   -0.93629E-05  5760   0.326E-04-0.755E-06
CGA: 128    -0.220645992824E+03   -0.12744E-04   -0.12954E-04  5760   0.302E-04-0.160E-05
CGA: 129    -0.220646002507E+03   -0.96831E-05   -0.96573E-05  5760   0.246E-04 0.229E-06
CGA: 130    -0.220646010478E+03   -0.79704E-05   -0.80197E-05  5760   0.223E-04 0.489E-07
CGA: 131    -0.220646016365E+03   -0.58878E-05   -0.58354E-05  5760   0.190E-04-0.380E-06
CGA: 132    -0.220646021070E+03   -0.47041E-05   -0.47280E-05  5760   0.104E-04 0.599E-06
CGA: 133    -0.220646025241E+03   -0.41713E-05   -0.40926E-05  5760   0.800E-05 0.884E-06
CGA: 134    -0.220646027519E+03   -0.22784E-05   -0.22768E-05  5760   0.601E-05 0.710E-07
CGA: 135    -0.220646029627E+03   -0.21079E-05   -0.20950E-05  5760   0.455E-05 0.258E-06
CGA: 136    -0.220646031011E+03   -0.13839E-05   -0.13849E-05  5760   0.290E-05 0.251E-06
CGA: 137    -0.220646032512E+03   -0.15014E-05   -0.15485E-05  5760   0.392E-05-0.204E-06
CGA: 138    -0.220646033576E+03   -0.10639E-05   -0.10649E-05  5760   0.357E-05 0.111E-06
CGA: 139    -0.220646034582E+03   -0.10061E-05   -0.10049E-05  5760   0.326E-05 0.143E-06
CGA: 140    -0.220646035715E+03   -0.11331E-05   -0.11449E-05  5760   0.343E-05-0.259E-06
CGA: 141    -0.220646036765E+03   -0.10497E-05   -0.10487E-05  5760   0.290E-05 0.183E-07
CGA: 142    -0.220646037684E+03   -0.91874E-06   -0.91669E-06  5760   0.230E-05 0.365E-06
CGA: 143    -0.220646038918E+03   -0.12338E-05   -0.12376E-05  5760   0.337E-05 0.278E-07
SDA: 144    -0.220646040001E+03   -0.10838E-05   -0.10839E-05  5760   0.253E-05-0.899E-07
CGA: 145    -0.220646040746E+03   -0.74431E-06   -0.74451E-06  5760   0.208E-05 0.240E-07
   1 F= -.23156396E+03 E0= -.23156350E+03  d E =-.921358E-03  mag=     6.0000
