 vasp.5.4.4.18Apr17-6-g9f103f2a35 (build Nov 22 2021 14:44:17) complex          
  
 executed on             LinuxIFC date 2022.08.06  12:12:05
 running on   64 total cores
 distrk:  each k-point on   64 cores,    1 groups
 distr:  one band on NCORES_PER_BAND=   4 cores,   16 groups


--------------------------------------------------------------------------------------------------------


 INCAR:
 POTCAR:    PAW_PBE Li 17Jan2003                  
 POTCAR:    PAW_PBE Co 02Aug2007                  
 POTCAR:    PAW_PBE O 08Apr2002                   
 POTCAR:    PAW_PBE Li 17Jan2003                  
   VRHFIN =Li: s1p0                                                             
   LEXCH  = PE                                                                  
   EATOM  =     5.3001 eV,    0.3895 Ry                                         
                                                                                
   TITEL  = PAW_PBE Li 17Jan2003                                                
   LULTRA =        F    use ultrasoft PP ?                                      
   IUNSCR =        1    unscreen: 0-lin 1-nonlin 2-no                           
   RPACOR =    1.500    partial core radius                                     
   POMASS =    7.010; ZVAL   =    1.000    mass and valenz                      
   RCORE  =    2.050    outmost cutoff radius                                   
   RWIGS  =    2.600; RWIGS  =    1.376    wigner-seitz radius (au A)           
   ENMAX  =  140.000; ENMIN  =  100.000 eV                                      
   ICORE  =        2    local potential                                         
   LCOR   =        T    correct aug charges                                     
   LPAW   =        T    paw PP                                                  
   EAUG   =  331.638                                                            
   DEXC   =    0.000                                                            
   RMAX   =    2.098    core radius for proj-oper                               
   RAUG   =    1.300    factor for augmentation sphere                          
   RDEP   =    2.094    radius for radial grids                                 
   RDEPT  =    1.810    core radius for aug-charge                              
                                                                                
   Atomic configuration                                                         
    4 entries                                                                   
     n  l   j            E        occ.                                          
     1  0  0.50       -51.8549   2.0000                                         
     2  0  0.50        -2.8742   1.0000                                         
     2  1  0.50        -1.3606   0.0000                                         
     3  2  1.50        -1.3606   0.0000                                         
   Description                                                                  
     l       E           TYP  RCUT    TYP  RCUT                                 
     0     -2.8742052     23  2.050                                             
     0     27.2116520     23  2.050                                             
     1     -1.3605826     23  2.050                                             
     2     -1.3605826     23  2.050                                             
  local pseudopotential read in
  partial core-charges read in
  partial kinetic energy density read in
  atomic valenz-charges read in
  non local Contribution for L=           0  read in
    real space projection operators read in
  non local Contribution for L=           0  read in
    real space projection operators read in
  non local Contribution for L=           1  read in
    real space projection operators read in
    PAW grid and wavefunctions read in
 
   number of l-projection  operators is LMAX  =           3
   number of lm-projection operators is LMMAX =           5
 
 POTCAR:    PAW_PBE Co 02Aug2007                  
   VRHFIN =Co: d8 s1                                                            
   LEXCH  = PE                                                                  
   EATOM  =   813.3670 eV,   59.7808 Ry                                         
                                                                                
   TITEL  = PAW_PBE Co 02Aug2007                                                
   LULTRA =        F    use ultrasoft PP ?                                      
   IUNSCR =        1    unscreen: 0-lin 1-nonlin 2-no                           
   RPACOR =    2.000    partial core radius                                     
   POMASS =   58.933; ZVAL   =    9.000    mass and valenz                      
   RCORE  =    2.300    outmost cutoff radius                                   
   RWIGS  =    2.460; RWIGS  =    1.302    wigner-seitz radius (au A)           
   ENMAX  =  267.968; ENMIN  =  200.976 eV                                      
   RCLOC  =    1.203    cutoff for local pot                                    
   LCOR   =        T    correct aug charges                                     
   LPAW   =        T    paw PP                                                  
   EAUG   =  477.818                                                            
   DEXC   =    0.000                                                            
   RMAX   =    2.360    core radius for proj-oper                               
   RAUG   =    1.300    factor for augmentation sphere                          
   RDEP   =    2.393    radius for radial grids                                 
   RDEPT  =    1.864    core radius for aug-charge                              
                                                                                
   Atomic configuration                                                         
    9 entries                                                                   
     n  l   j            E        occ.                                          
     1  0  0.50     -7587.6674   2.0000                                         
     2  0  0.50      -893.6084   2.0000                                         
     2  1  1.50      -764.5805   6.0000                                         
     3  0  0.50       -97.5973   2.0000                                         
     3  1  1.50       -60.9648   6.0000                                         
     3  2  2.50        -4.2382   8.0000                                         
     4  0  0.50        -4.3746   1.0000                                         
     4  1  1.50        -4.0817   0.0000                                         
     4  3  2.50        -1.3606   0.0000                                         
   Description                                                                  
     l       E           TYP  RCUT    TYP  RCUT                                 
     2     -4.2382362     23  2.300                                             
     2     -5.5988188     23  2.300                                             
     0     -4.3745797     23  2.300                                             
     0      5.7660125     23  2.300                                             
     1     -2.7211652     23  2.300                                             
     1     16.9860234     23  2.300                                             
  local pseudopotential read in
  partial core-charges read in
  partial kinetic energy density read in
  atomic valenz-charges read in
  non local Contribution for L=           2  read in
    real space projection operators read in
  non local Contribution for L=           2  read in
    real space projection operators read in
  non local Contribution for L=           0  read in
    real space projection operators read in
  non local Contribution for L=           0  read in
    real space projection operators read in
  non local Contribution for L=           1  read in
    real space projection operators read in
  non local Contribution for L=           1  read in
    real space projection operators read in
    PAW grid and wavefunctions read in
 
   number of l-projection  operators is LMAX  =           6
   number of lm-projection operators is LMMAX =          18
 
 POTCAR:    PAW_PBE O 08Apr2002                   
   VRHFIN =O: s2p4                                                              
   LEXCH  = PE                                                                  
   EATOM  =   432.3788 eV,   31.7789 Ry                                         
                                                                                
   TITEL  = PAW_PBE O 08Apr2002                                                 
   LULTRA =        F    use ultrasoft PP ?                                      
   IUNSCR =        1    unscreen: 0-lin 1-nonlin 2-no                           
   RPACOR =    1.200    partial core radius                                     
   POMASS =   16.000; ZVAL   =    6.000    mass and valenz                      
   RCORE  =    1.520    outmost cutoff radius                                   
   RWIGS  =    1.550; RWIGS  =    0.820    wigner-seitz radius (au A)           
   ENMAX  =  400.000; ENMIN  =  300.000 eV                                      
   ICORE  =        2    local potential                                         
   LCOR   =        T    correct aug charges                                     
   LPAW   =        T    paw PP                                                  
   EAUG   =  605.392                                                            
   DEXC   =    0.000                                                            
   RMAX   =    1.553    core radius for proj-oper                               
   RAUG   =    1.300    factor for augmentation sphere                          
   RDEP   =    1.550    radius for radial grids                                 
   RDEPT  =    1.329    core radius for aug-charge                              
                                                                                
   Atomic configuration                                                         
    4 entries                                                                   
     n  l   j            E        occ.                                          
     1  0  0.50      -514.6923   2.0000                                         
     2  0  0.50       -23.9615   2.0000                                         
     2  1  0.50        -9.0305   4.0000                                         
     3  2  1.50        -9.5241   0.0000                                         
   Description                                                                  
     l       E           TYP  RCUT    TYP  RCUT                                 
     0    -23.9615318     23  1.200                                             
     0     -9.5240782     23  1.200                                             
     1     -9.0304911     23  1.520                                             
     1      8.1634956     23  1.520                                             
     2     -9.5240782      7  1.500                                             
  local pseudopotential read in
  partial core-charges read in
  partial kinetic energy density read in
  kinetic energy density of atom read in
  atomic valenz-charges read in
  non local Contribution for L=           0  read in
    real space projection operators read in
  non local Contribution for L=           0  read in
    real space projection operators read in
  non local Contribution for L=           1  read in
    real space projection operators read in
  non local Contribution for L=           1  read in
    real space projection operators read in
    PAW grid and wavefunctions read in
 
   number of l-projection  operators is LMAX  =           4
   number of lm-projection operators is LMMAX =           8
 
 Optimization of the real space projectors (new method)

 maximal supplied QI-value         = 18.33
 optimisation between [QCUT,QGAM] = [ 12.46, 24.93] = [ 43.51,174.03] Ry 
 Optimized for a Real-space Cutoff    1.13 Angstroem

   l    n(q)    QCUT    max X(q) W(low)/X(q) W(high)/X(q)  e(spline) 
   0      8    12.465    33.825    0.12E-03    0.29E-03    0.99E-07
   0      8    12.465     8.944    0.86E-04    0.22E-03    0.72E-07
   1      8    12.465     4.214    0.27E-03    0.11E-03    0.82E-07
 Optimization of the real space projectors (new method)

 maximal supplied QI-value         = 16.25
 optimisation between [QCUT,QGAM] = [ 12.51, 25.03] = [ 43.85,175.40] Ry 
 Optimized for a Real-space Cutoff    1.31 Angstroem

   l    n(q)    QCUT    max X(q) W(low)/X(q) W(high)/X(q)  e(spline) 
   2      9    12.514    65.824    0.30E-03    0.46E-03    0.43E-06
   2      9    12.514    61.429    0.31E-03    0.46E-03    0.44E-06
   0     10    12.514    56.174    0.90E-04    0.33E-03    0.30E-06
   0     10    12.514    31.263    0.81E-04    0.30E-03    0.28E-06
   1      9    12.514    19.828    0.38E-03    0.65E-04    0.24E-06
   1      9    12.514    15.139    0.32E-03    0.60E-04    0.20E-06
 Optimization of the real space projectors (new method)

 maximal supplied QI-value         = 24.76
 optimisation between [QCUT,QGAM] = [ 12.38, 25.00] = [ 42.90,175.06] Ry 
 Optimized for a Real-space Cutoff    1.13 Angstroem

   l    n(q)    QCUT    max X(q) W(low)/X(q) W(high)/X(q)  e(spline) 
   0      8    12.378    20.381    0.16E-03    0.54E-05    0.27E-06
   0      8    12.378    15.268    0.17E-03    0.61E-05    0.29E-06
   1      8    12.378     5.964    0.38E-03    0.23E-03    0.28E-06
   1      8    12.378     5.382    0.33E-03    0.20E-03    0.25E-06
  PAW_PBE Li 17Jan2003                  :
 energy of atom  1       EATOM=   -5.3001
 kinetic energy error for atom=    0.0000 (will be added to EATOM!!)
  PAW_PBE Co 02Aug2007                  :
 energy of atom  2       EATOM= -813.3670
 kinetic energy error for atom=    0.0018 (will be added to EATOM!!)
  PAW_PBE O 08Apr2002                   :
 energy of atom  3       EATOM= -432.3788
 kinetic energy error for atom=    0.0168 (will be added to EATOM!!)
 
 
 POSCAR: Li6 Co12 O24                            
  positions in cartesian coordinates
  No initial velocities read in
 exchange correlation table for  LEXCH =        8
   RHO(1)=    0.500       N(1)  =     2000
   RHO(2)=  100.500       N(2)  =     4000
 


--------------------------------------------------------------------------------------------------------


 ion  position               nearest neighbor table
   1  0.551  0.087  0.988-  37 1.80  25 2.02  23 2.24  38 2.35  24 2.37  36 2.46  17 2.71  15 2.77
                             9 2.92  10 3.03
   2  0.810  0.612  0.347-  33 2.03  34 2.06  20 2.08  19 2.40  32 2.57  14 2.73   8 3.04  12 3.04
                             9 3.12
   3  0.177  0.315  0.664-  29 1.99  28 2.04  39 2.07  27 2.07  40 2.12  42 2.27  11 2.70   6 2.70
                             5 2.72  14 2.74   4 2.77  12 2.83  17 2.84   5 2.90   4 2.91   6 2.93
   4  0.181  0.829  0.672-  39 1.97  28 2.01  40 2.04  30 2.05  27 2.06  41 2.12  18 2.69   3 2.77
                             6 2.79   5 2.81  11 2.81   5 2.82   6 2.82  16 2.85  13 2.85  15 2.87
   5  0.672  0.339  0.671-  42 1.91  27 1.92  30 2.02  41 2.03  29 2.20  40 2.22   3 2.72  15 2.72
                             4 2.81   4 2.82  14 2.82   6 2.84  18 2.85   6 2.85  12 2.87   3 2.90
   6  0.687  0.845  0.666-  29 1.95  30 1.95  41 1.98  28 2.07  39 2.10  42 2.15  11 2.68   3 2.70
                            16 2.76  13 2.78   4 2.79   4 2.82   5 2.84   5 2.85  17 2.88  14 2.89
   7  0.108  0.334  0.159-  22 1.84  25 1.90  20 1.91  23 1.97  24 2.10  19 2.18  10 2.77   9 2.80
                             8 2.81   9 2.81  10 2.85   8 2.88
   8  0.112  0.843  0.164-  19 1.81  24 1.91  26 1.93  23 1.95  20 1.95  21 2.01   9 2.74  10 2.78
                             7 2.81  10 2.83   7 2.88   9 2.89   2 3.04
   9  0.622  0.360  0.159-  22 1.83  20 1.85  23 1.85  26 1.90  25 1.92  21 2.03   8 2.74  10 2.79
                             7 2.80   7 2.81   8 2.89  10 2.90   1 2.92   2 3.12
  10  0.610  0.845  0.160-  24 1.76  21 1.79  19 1.80  25 1.84  26 1.89  22 2.00   7 2.77   8 2.78
                             9 2.79   8 2.83   7 2.85   9 2.90   1 3.03
  11  0.034  0.000  0.518-  29 1.84  30 1.89  31 1.91  32 1.95  34 1.98  27 2.06   6 2.68   3 2.70
                            14 2.78  13 2.78   4 2.81  13 2.83  12 2.83  14 2.85  12 2.85
  12  0.041  0.505  0.511-  32 1.85  31 1.85  33 1.87  28 1.94  29 1.97  30 2.07  13 2.76  14 2.77
                             3 2.83  11 2.83  14 2.83  11 2.85  13 2.86   5 2.87   4 2.90   2 3.04
  13  0.536  0.993  0.511-  32 1.85  27 1.91  33 1.91  28 1.95  34 1.96  29 1.99  12 2.76  11 2.78
                             6 2.78  14 2.81  11 2.83   4 2.85  12 2.86  14 2.87   5 2.96
  14  0.530  0.494  0.512-  31 1.77  33 1.89  27 1.93  34 2.00  28 2.01  30 2.02   2 2.73   3 2.74
                            12 2.77  11 2.78  13 2.81   5 2.82  12 2.83  11 2.85  13 2.87   6 2.89
  15  0.357  0.153  0.829-  35 1.80  36 1.83  37 1.87  41 1.90  42 1.98  39 2.08  17 2.66   5 2.72
                             1 2.77  16 2.77  18 2.77  18 2.85   4 2.87  16 2.91  17 2.95   3 3.02
  16  0.351  0.663  0.823-  36 1.85  40 1.90  38 1.92  42 1.92  35 1.93  41 1.95  17 2.76   6 2.76
                            15 2.77  18 2.78  18 2.83   4 2.85  17 2.86  15 2.91   3 2.96
  17  0.835  0.160  0.826-  37 1.86  41 1.92  38 1.92  40 1.94  35 1.95  39 1.99  15 2.66   1 2.71
                            16 2.76  18 2.82   3 2.84  16 2.86  18 2.87   6 2.88   5 2.90  15 2.95
  18  0.857  0.666  0.826-  36 1.86  39 1.87  40 1.90  38 1.92  37 1.93  42 1.94   4 2.69  15 2.77
                            16 2.78  17 2.82  16 2.83   5 2.85  15 2.85  17 2.87   6 2.98
  19  0.894  0.939  0.230-  10 1.80   8 1.81   7 2.18   2 2.40
  20  0.925  0.490  0.228-   9 1.85   7 1.91   8 1.95   2 2.08
  21  0.459  0.001  0.230-  10 1.79   8 2.01   9 2.03
  22  0.418  0.481  0.224-   9 1.83   7 1.84  10 2.00
  23  0.312  0.182  0.093-   9 1.85   8 1.95   7 1.97   1 2.24
  24  0.323  0.719  0.094-  10 1.76   8 1.91   7 2.10   1 2.37
  25  0.780  0.170  0.096-  10 1.84   7 1.90   9 1.92   1 2.02
  26  0.794  0.695  0.092-  10 1.89   9 1.90   8 1.93
  27  0.390  0.168  0.587-  13 1.91   5 1.92  14 1.93  11 2.06   4 2.06   3 2.07
  28  0.350  0.666  0.588-  12 1.94  13 1.95  14 2.01   4 2.01   3 2.04   6 2.07
  29  0.867  0.161  0.583-  11 1.84   6 1.95  12 1.97  13 1.99   3 1.99   5 2.20
  30  0.855  0.677  0.591-  11 1.89   6 1.95   5 2.02  14 2.02   4 2.05  12 2.07
  31  0.223  0.344  0.455-  14 1.77  12 1.85  11 1.91
  32  0.217  0.836  0.449-  12 1.85  13 1.85  11 1.95   2 2.57
  33  0.718  0.339  0.449-  12 1.87  14 1.89  13 1.91   2 2.03
  34  0.725  0.839  0.438-  13 1.96  11 1.98  14 2.00   2 2.06
  35  0.182  0.311  0.885-  15 1.80  16 1.93  17 1.95
  36  0.177  0.820  0.888-  15 1.83  16 1.85  18 1.86   1 2.46
  37  0.674  0.328  0.894-   1 1.80  17 1.86  15 1.87  18 1.93
  38  0.669  0.820  0.894-  16 1.92  18 1.92  17 1.92   1 2.35
  39  0.009  0.985  0.754-  18 1.87   4 1.97  17 1.99   3 2.07  15 2.08   6 2.10
  40  0.028  0.501  0.758-  18 1.90  16 1.90  17 1.94   4 2.04   3 2.12   5 2.22
  41  0.525  0.002  0.752-  15 1.90  17 1.92  16 1.95   6 1.98   5 2.03   4 2.12
  42  0.531  0.498  0.757-   5 1.91  16 1.92  18 1.94  15 1.98   6 2.15   3 2.27
 

IMPORTANT INFORMATION: All symmetrisations will be switched off!
NOSYMM: (Re-)initialisation of all symmetry stuff for point group C_1.

 
 

Automatic generation of k-mesh.
 generate k-points for:    6    6    2
Space group operators:
 irot       det(A)        alpha          n_x          n_y          n_z        tau_x        tau_y        tau_z
    1     1.000000     0.000000     1.000000     0.000000     0.000000     0.000000     0.000000     0.000000
 
 Subroutine IBZKPT returns following result:
 ===========================================
 
 Found     36 irreducible k-points:
 
 Following reciprocal coordinates:
            Coordinates               Weight
  0.083333  0.083333  0.250000      2.000000
  0.250000  0.083333  0.250000      2.000000
  0.416667  0.083333  0.250000      2.000000
 -0.416667  0.083333  0.250000      2.000000
 -0.250000  0.083333  0.250000      2.000000
 -0.083333  0.083333  0.250000      2.000000
  0.083333  0.250000  0.250000      2.000000
  0.250000  0.250000  0.250000      2.000000
  0.416667  0.250000  0.250000      2.000000
 -0.416667  0.250000  0.250000      2.000000
 -0.250000  0.250000  0.250000      2.000000
 -0.083333  0.250000  0.250000      2.000000
  0.083333  0.416667  0.250000      2.000000
  0.250000  0.416667  0.250000      2.000000
  0.416667  0.416667  0.250000      2.000000
 -0.416667  0.416667  0.250000      2.000000
 -0.250000  0.416667  0.250000      2.000000
 -0.083333  0.416667  0.250000      2.000000
  0.083333 -0.416667  0.250000      2.000000
  0.250000 -0.416667  0.250000      2.000000
  0.416667 -0.416667  0.250000      2.000000
 -0.416667 -0.416667  0.250000      2.000000
 -0.250000 -0.416667  0.250000      2.000000
 -0.083333 -0.416667  0.250000      2.000000
  0.083333 -0.250000  0.250000      2.000000
  0.250000 -0.250000  0.250000      2.000000
  0.416667 -0.250000  0.250000      2.000000
 -0.416667 -0.250000  0.250000      2.000000
 -0.250000 -0.250000  0.250000      2.000000
 -0.083333 -0.250000  0.250000      2.000000
  0.083333 -0.083333  0.250000      2.000000
  0.250000 -0.083333  0.250000      2.000000
  0.416667 -0.083333  0.250000      2.000000
 -0.416667 -0.083333  0.250000      2.000000
 -0.250000 -0.083333  0.250000      2.000000
 -0.083333 -0.083333  0.250000      2.000000
 
 Following cartesian coordinates:
            Coordinates               Weight
  0.014863  0.025662  0.015219      2.000000
  0.044589  0.043028  0.012912      2.000000
  0.074315  0.060395  0.010605      2.000000
 -0.074315 -0.026438  0.022141      2.000000
 -0.044589 -0.009071  0.019834      2.000000
 -0.014863  0.008295  0.017527      2.000000
  0.014863  0.059619  0.014280      2.000000
  0.044589  0.076985  0.011972      2.000000
  0.074315  0.094352  0.009665      2.000000
 -0.074315  0.007519  0.021202      2.000000
 -0.044589  0.024885  0.018894      2.000000
 -0.014863  0.042252  0.016587      2.000000
  0.014863  0.093575  0.013340      2.000000
  0.044589  0.110942  0.011033      2.000000
  0.074315  0.128308  0.008726      2.000000
 -0.074315  0.041476  0.020262      2.000000
 -0.044589  0.058842  0.017955      2.000000
 -0.014863  0.076209  0.015647      2.000000
  0.014863 -0.076209  0.018038      2.000000
  0.044589 -0.058842  0.015731      2.000000
  0.074315 -0.041476  0.013423      2.000000
 -0.074315 -0.128308  0.024960      2.000000
 -0.044589 -0.110942  0.022653      2.000000
 -0.014863 -0.093575  0.020345      2.000000
  0.014863 -0.042252  0.017098      2.000000
  0.044589 -0.024885  0.014791      2.000000
  0.074315 -0.007519  0.012484      2.000000
 -0.074315 -0.094352  0.024020      2.000000
 -0.044589 -0.076985  0.021713      2.000000
 -0.014863 -0.059619  0.019406      2.000000
  0.014863 -0.008295  0.016159      2.000000
  0.044589  0.009071  0.013852      2.000000
  0.074315  0.026438  0.011544      2.000000
 -0.074315 -0.060395  0.023081      2.000000
 -0.044589 -0.043028  0.020773      2.000000
 -0.014863 -0.025662  0.018466      2.000000
 


--------------------------------------------------------------------------------------------------------




 Dimension of arrays:
   k-points           NKPTS =     36   k-points in BZ     NKDIM =     36   number of bands    NBANDS=    160
   number of dos      NEDOS =    301   number of ions     NIONS =     42
   non local maximal  LDIM  =      6   non local SUM 2l+1 LMDIM =     18
   total plane-waves  NPLWV = 116640
   max r-space proj   IRMAX =   2718   max aug-charges    IRDMAX=  11460
   dimension x,y,z NGX =    36 NGY =   36 NGZ =   90
   dimension x,y,z NGXF=    72 NGYF=   72 NGZF=  180
   support grid    NGXF=    72 NGYF=   72 NGZF=  180
   ions per type =               6  12  24
   NGX,Y,Z   is equivalent  to a cutoff of  10.67, 10.53, 10.06 a.u.
   NGXF,Y,Z  is equivalent  to a cutoff of  21.35, 21.06, 20.11 a.u.

 SYSTEM =  LiCoO2                                  
 POSCAR =  Li6 Co12 O24                            

 Startparameter for this run:
   NWRITE =      2    write-flag & timer
   PREC   = normal    normal or accurate (medium, high low for compatibility)
   ISTART =      0    job   : 0-new  1-cont  2-samecut
   ICHARG =      2    charge: 1-file 2-atom 10-const
   ISPIN  =      2    spin polarized calculation?
   LNONCOLLINEAR =      F non collinear calculations
   LSORBIT =      F    spin-orbit coupling
   INIWAV =      1    electr: 0-lowe 1-rand  2-diag
   LASPH  =      F    aspherical Exc in radial PAW
   METAGGA=      F    non-selfconsistent MetaGGA calc.

 Electronic Relaxation 1
   ENCUT  =  600.0 eV  44.10 Ry    6.64 a.u.  11.20 11.35 29.71*2*pi/ulx,y,z
   ENINI  =  600.0     initial cutoff
   ENAUG  =  605.4 eV  augmentation charge cutoff
   NELM   =    600;   NELMIN=  2; NELMDL= -5     # of ELM steps 
   EDIFF  = 0.1E-05   stopping-criterion for ELM
   LREAL  =      T    real-space projection
   NLSPLINE    = F    spline interpolate recip. space projectors
   LCOMPAT=      F    compatible to vasp.4.4
   GGA_COMPAT  = T    GGA compatible to vasp.4.4-vasp.4.6
   LMAXPAW     = -100 max onsite density
   LMAXMIX     =    2 max onsite mixed and CHGCAR
   VOSKOWN=      0    Vosko Wilk Nusair interpolation
   ROPT   =   -0.00050  -0.00050  -0.00050
 Ionic relaxation
   EDIFFG = 0.1E-04   stopping-criterion for IOM
   NSW    =      0    number of steps for IOM
   NBLOCK =      1;   KBLOCK =      1    inner block; outer block 
   IBRION =     -1    ionic relax: 0-MD 1-quasi-New 2-CG
   NFREE  =      0    steps in history (QN), initial steepest desc. (CG)
   ISIF   =      2    stress and relaxation
   IWAVPR =     10    prediction:  0-non 1-charg 2-wave 3-comb
   ISYM   =      0    0-nonsym 1-usesym 2-fastsym
   LCORR  =      T    Harris-Foulkes like correction to forces

   POTIM  = 0.5000    time-step for ionic-motion
   TEIN   =    0.0    initial temperature
   TEBEG  =    0.0;   TEEND  =   0.0 temperature during run
   SMASS  =  -3.00    Nose mass-parameter (am)
   estimated Nose-frequenzy (Omega)   =  0.10E-29 period in steps =****** mass=  -0.718E-27a.u.
   SCALEE = 1.0000    scale energy and forces
   NPACO  =    256;   APACO  = 16.0  distance and # of slots for P.C.
   PSTRESS=    0.0 pullay stress

  Mass of Ions in am
   POMASS =   7.01 58.93 16.00
  Ionic Valenz
   ZVAL   =   1.00  9.00  6.00
  Atomic Wigner-Seitz radii
   RWIGS  =  -1.00 -1.00 -1.00
  virtual crystal weights 
   VCA    =   1.00  1.00  1.00
   NELECT =     258.0000    total number of electrons
   NUPDOWN=       6.0000    fix difference up-down

 DOS related values:
   EMIN   =  10.00;   EMAX   =-10.00  energy-range for DOS
   EFERMI =   0.00
   ISMEAR =     0;   SIGMA  =   0.05  broadening in eV -4-tet -1-fermi 0-gaus

 Electronic relaxation 2 (details)
   IALGO  =     58    algorithm
   LDIAG  =      T    sub-space diagonalisation (order eigenvalues)
   LSUBROT=      F    optimize rotation matrix (better conditioning)
   TURBO    =      0    0=normal 1=particle mesh
   IRESTART =      0    0=no restart 2=restart with 2 vectors
   NREBOOT  =      0    no. of reboots
   NMIN     =      0    reboot dimension
   EREF     =   0.00    reference energy to select bands
   IMIX   =      4    mixing-type and parameters
     AMIX     =   0.40;   BMIX     =  1.00
     AMIX_MAG =   1.60;   BMIX_MAG =  1.00
     AMIN     =   0.10
     WC   =   100.;   INIMIX=   1;  MIXPRE=   1;  MAXMIX= -45

 Intra band minimization:
   WEIMIN = 0.0000     energy-eigenvalue tresh-hold
   EBREAK =  0.16E-08  absolut break condition
   DEPER  =   0.30     relativ break condition  

   TIME   =   0.40     timestep for ELM

  volume/ion in A,a.u.               =       9.73        65.63
  Fermi-wavevector in a.u.,A,eV,Ry     =   1.404628  2.654361 26.844003  1.972979
  Thomas-Fermi vector in A             =   2.527170
 
 Write flags
   LWAVE        =      F    write WAVECAR
   LDOWNSAMPLE  =      F    k-point downsampling of WAVECAR
   LCHARG       =      F    write CHGCAR
   LVTOT        =      F    write LOCPOT, total local potential
   LVHAR        =      F    write LOCPOT, Hartree potential only
   LELF         =      F    write electronic localiz. function (ELF)
   LORBIT       =     11    0 simple, 1 ext, 2 COOP (PROOUT), +10 PAW based schemes


 Dipole corrections
   LMONO  =      F    monopole corrections only (constant potential shift)
   LDIPOL =      F    correct potential (dipole corrections)
   IDIPOL =      0    1-x, 2-y, 3-z, 4-all directions 
   EPSILON=  1.0000000 bulk dielectric constant

 LDA+U is selected, type is set to LDAUTYPE =  2
   angular momentum for each species LDAUL =    -1    2   -1
   U (eV)           for each species LDAUU =   0.0  5.1  0.0
   J (eV)           for each species LDAUJ =   0.0  0.0  0.0
 Exchange correlation treatment:
   GGA     =    --    GGA type
   LEXCH   =     8    internal setting for exchange type
   VOSKOWN=      0    Vosko Wilk Nusair interpolation
   LHFCALC =     F    Hartree Fock is set to
   LHFONE  =     F    Hartree Fock one center treatment
   AEXX    =    0.0000 exact exchange contribution

 Linear response parameters
   LEPSILON=     F    determine dielectric tensor
   LRPA    =     F    only Hartree local field effects (RPA)
   LNABLA  =     F    use nabla operator in PAW spheres
   LVEL    =     F    velocity operator in full k-point grid
   LINTERFAST=   F  fast interpolation
   KINTER  =     0    interpolate to denser k-point grid
   CSHIFT  =0.1000    complex shift for real part using Kramers Kronig
   OMEGAMAX=  -1.0    maximum frequency
   DEG_THRESHOLD= 0.2000000E-02 threshold for treating states as degnerate
   RTIME   =   -0.100 relaxation time in fs
  (WPLASMAI=    0.000 imaginary part of plasma frequency in eV, 0.658/RTIME)
   DFIELD  = 0.0000000 0.0000000 0.0000000 field for delta impulse in time
 
 Orbital magnetization related:
   ORBITALMAG=     F  switch on orbital magnetization
   LCHIMAG   =     F  perturbation theory with respect to B field
   DQ        =  0.001000  dq finite difference perturbation B field
   LLRAUG    =     F  two centre corrections for induced B field



--------------------------------------------------------------------------------------------------------


 Static calculation
 charge density and potential will be updated during run
 spin polarized calculation
 Conjugate gradient for all bands (Freysoldt, et al. PRB 79, 241103 (2009))
 preconditioned conjugated gradient                                        
 perform sub-space diagonalisation
    before iterative eigenvector-optimisation
 modified Broyden-mixing scheme, WC =      100.0
 initial mixing is a Kerker type mixing with AMIX =  0.4000 and BMIX =      1.0000
 Hartree-type preconditioning will be used
 using additional bands           31
 real space projection scheme for non local part
 use partial core corrections
 no Harris-corrections to forces 
 use gradient corrections 
 use of overlap-Matrix (Vanderbilt PP)
 Gauss-broadening in eV      SIGMA  =   0.05


--------------------------------------------------------------------------------------------------------


  energy-cutoff  :      600.00
  volume of cell :      408.47
      direct lattice vectors                 reciprocal lattice vectors
     5.606743336  0.000000000  0.000000000     0.178356657  0.104199397 -0.013843880
    -2.867460728  4.908192635  0.000000000     0.000000000  0.203740985 -0.005637306
     0.912180662  0.410697043 14.843228340     0.000000000  0.000000000  0.067370789

  length of vectors
     5.606743336  5.684424858 14.876900658     0.207027207  0.203818959  0.067370789


 
 k-points in units of 2pi/SCALE and weight: read from INCAR                         
   0.01486305  0.02566170  0.01521926       0.028
   0.04458916  0.04302826  0.01291195       0.028
   0.07431527  0.06039483  0.01060464       0.028
  -0.07431527 -0.02643800  0.02214121       0.028
  -0.04458916 -0.00907143  0.01983389       0.028
  -0.01486305  0.00829513  0.01752658       0.028
   0.01486305  0.05961853  0.01427971       0.028
   0.04458916  0.07698510  0.01197240       0.028
   0.07431527  0.09435166  0.00966509       0.028
  -0.07431527  0.00751883  0.02120165       0.028
  -0.04458916  0.02488540  0.01889434       0.028
  -0.01486305  0.04225196  0.01658703       0.028
   0.01486305  0.09357536  0.01334016       0.028
   0.04458916  0.11094193  0.01103285       0.028
   0.07431527  0.12830849  0.00872554       0.028
  -0.07431527  0.04147566  0.02026210       0.028
  -0.04458916  0.05884223  0.01795479       0.028
  -0.01486305  0.07620879  0.01564748       0.028
   0.01486305 -0.07620879  0.01803792       0.028
   0.04458916 -0.05884223  0.01573060       0.028
   0.07431527 -0.04147566  0.01342329       0.028
  -0.07431527 -0.12830849  0.02495986       0.028
  -0.04458916 -0.11094193  0.02265254       0.028
  -0.01486305 -0.09357536  0.02034523       0.028
   0.01486305 -0.04225196  0.01709837       0.028
   0.04458916 -0.02488540  0.01479105       0.028
   0.07431527 -0.00751883  0.01248374       0.028
  -0.07431527 -0.09435166  0.02402031       0.028
  -0.04458916 -0.07698510  0.02171299       0.028
  -0.01486305 -0.05961853  0.01940568       0.028
   0.01486305 -0.00829513  0.01615882       0.028
   0.04458916  0.00907143  0.01385150       0.028
   0.07431527  0.02643800  0.01154419       0.028
  -0.07431527 -0.06039483  0.02308076       0.028
  -0.04458916 -0.04302826  0.02077344       0.028
  -0.01486305 -0.02566170  0.01846613       0.028
 
 k-points in reciprocal lattice and weights: read from INCAR                         
   0.08333333  0.08333333  0.25000000       0.028
   0.25000000  0.08333333  0.25000000       0.028
   0.41666667  0.08333333  0.25000000       0.028
  -0.41666667  0.08333333  0.25000000       0.028
  -0.25000000  0.08333333  0.25000000       0.028
  -0.08333333  0.08333333  0.25000000       0.028
   0.08333333  0.25000000  0.25000000       0.028
   0.25000000  0.25000000  0.25000000       0.028
   0.41666667  0.25000000  0.25000000       0.028
  -0.41666667  0.25000000  0.25000000       0.028
  -0.25000000  0.25000000  0.25000000       0.028
  -0.08333333  0.25000000  0.25000000       0.028
   0.08333333  0.41666667  0.25000000       0.028
   0.25000000  0.41666667  0.25000000       0.028
   0.41666667  0.41666667  0.25000000       0.028
  -0.41666667  0.41666667  0.25000000       0.028
  -0.25000000  0.41666667  0.25000000       0.028
  -0.08333333  0.41666667  0.25000000       0.028
   0.08333333 -0.41666667  0.25000000       0.028
   0.25000000 -0.41666667  0.25000000       0.028
   0.41666667 -0.41666667  0.25000000       0.028
  -0.41666667 -0.41666667  0.25000000       0.028
  -0.25000000 -0.41666667  0.25000000       0.028
  -0.08333333 -0.41666667  0.25000000       0.028
   0.08333333 -0.25000000  0.25000000       0.028
   0.25000000 -0.25000000  0.25000000       0.028
   0.41666667 -0.25000000  0.25000000       0.028
  -0.41666667 -0.25000000  0.25000000       0.028
  -0.25000000 -0.25000000  0.25000000       0.028
  -0.08333333 -0.25000000  0.25000000       0.028
   0.08333333 -0.08333333  0.25000000       0.028
   0.25000000 -0.08333333  0.25000000       0.028
   0.41666667 -0.08333333  0.25000000       0.028
  -0.41666667 -0.08333333  0.25000000       0.028
  -0.25000000 -0.08333333  0.25000000       0.028
  -0.08333333 -0.08333333  0.25000000       0.028
 
 position of ions in fractional coordinates (direct lattice) 
   0.55143960  0.08663237  0.98771505
   0.80950460  0.61199527  0.34684774
   0.17728582  0.31487201  0.66432787
   0.18060918  0.82899399  0.67160859
   0.67235544  0.33871651  0.67106427
   0.68696675  0.84501829  0.66591040
   0.10782925  0.33416535  0.15917359
   0.11162975  0.84252380  0.16404046
   0.62163604  0.36033690  0.15920997
   0.60952310  0.84482188  0.16017001
   0.03419977  0.00029949  0.51824103
   0.04065602  0.50521932  0.51148712
   0.53621680  0.99286315  0.51068407
   0.52962813  0.49445933  0.51249026
   0.35665539  0.15305870  0.82873344
   0.35134775  0.66279419  0.82349876
   0.83482371  0.15987469  0.82648329
   0.85701022  0.66647962  0.82554685
   0.89449148  0.93898565  0.22982332
   0.92469922  0.48997694  0.22790259
   0.45934506  0.00133238  0.22987856
   0.41764030  0.48103444  0.22442423
   0.31184588  0.18186960  0.09303434
   0.32254602  0.71913646  0.09432652
   0.78017830  0.17021750  0.09564160
   0.79411651  0.69511386  0.09230000
   0.38984562  0.16780037  0.58664531
   0.35034736  0.66563684  0.58772323
   0.86656810  0.16100669  0.58322356
   0.85461134  0.67710778  0.59066529
   0.22293502  0.34363968  0.45461809
   0.21698422  0.83644530  0.44883564
   0.71770211  0.33912509  0.44906270
   0.72463285  0.83920065  0.43774709
   0.18179446  0.31120654  0.88483309
   0.17721449  0.81997142  0.88752123
   0.67395459  0.32752980  0.89404271
   0.66920607  0.82034972  0.89410337
   0.00872752  0.98471011  0.75350722
   0.02756378  0.50053326  0.75775162
   0.52530242  0.00210668  0.75203853
   0.53112837  0.49846344  0.75653216
 
 position of ions in cartesian coordinates  (Angst):
   3.74433994  0.83086002 14.66088009
   3.10019994  3.14624000  5.14834023
   0.69709998  1.81829000  9.86077023
  -0.75185001  4.34468985  9.96883965
   3.41059995  1.93808997  9.96076012
   2.03602004  4.42100000  9.88426018
  -0.20844001  1.70552003  2.36264992
  -1.64039004  4.20264006  2.43489003
   2.59733009  1.83398998  2.36318994
   1.14104998  4.21232986  2.37743998
   0.66362000  0.21431001  7.69236994
  -0.75418001  2.68978000  7.59212017
   0.62527001  5.08290005  7.58020020
   2.01912999  2.63737988  7.60700989
   2.31674004  1.09159994 12.30107975
   0.82055998  3.59133005 12.22338009
   4.97610998  1.12413001 12.26768017
   3.64698005  3.61026001 12.25378036
   2.53232002  4.70311022  3.41131997
   3.98744988  2.49850011  3.38281012
   2.78130007  0.10095000  3.41213989
   1.16697001  2.45318007  3.33118010
   1.31180000  0.93085998  1.38092995
  -0.16762000  3.56839991  1.40011001
   3.97340989  0.87474000  1.41963005
   2.54339004  3.44966006  1.37003005
   2.23972988  1.06453002  8.70771027
   0.59173000  3.50845003  8.72371006
   4.92894983  1.02978003  8.65692043
   3.38879991  3.56595993  8.76737976
   0.67926002  1.87336004  6.74800015
  -0.77248001  4.28977013  6.66216993
   3.46116996  1.84891999  6.66554022
   2.05575991  4.29873991  6.49758005
   0.93403000  1.89085996 13.13377953
  -0.54806000  4.38908005 13.17368031
   3.65504003  1.97476006 13.27048016
   2.21532989  4.39364004 13.27138042
  -2.08734989  5.14261007 11.18447971
  -0.58951002  2.76792002 11.24748039
   3.62519002  0.31920001 11.16267967
   2.23867011  2.75726008 11.22937965
 


--------------------------------------------------------------------------------------------------------


 k-point  1 :   0.0833 0.0833 0.2500  plane waves:   13634
 k-point  2 :   0.2500 0.0833 0.2500  plane waves:   13623
 k-point  3 :   0.4167 0.0833 0.2500  plane waves:   13646
 k-point  4 :  -0.4167 0.0833 0.2500  plane waves:   13645
 k-point  5 :  -0.2500 0.0833 0.2500  plane waves:   13639
 k-point  6 :  -0.0833 0.0833 0.2500  plane waves:   13660
 k-point  7 :   0.0833 0.2500 0.2500  plane waves:   13619
 k-point  8 :   0.2500 0.2500 0.2500  plane waves:   13631
 k-point  9 :   0.4167 0.2500 0.2500  plane waves:   13652
 k-point 10 :  -0.4167 0.2500 0.2500  plane waves:   13624
 k-point 11 :  -0.2500 0.2500 0.2500  plane waves:   13630
 k-point 12 :  -0.0833 0.2500 0.2500  plane waves:   13644
 k-point 13 :   0.0833 0.4167 0.2500  plane waves:   13626
 k-point 14 :   0.2500 0.4167 0.2500  plane waves:   13633
 k-point 15 :   0.4167 0.4167 0.2500  plane waves:   13635
 k-point 16 :  -0.4167 0.4167 0.2500  plane waves:   13622
 k-point 17 :  -0.2500 0.4167 0.2500  plane waves:   13606
 k-point 18 :  -0.0833 0.4167 0.2500  plane waves:   13607
 k-point 19 :   0.0833-0.4167 0.2500  plane waves:   13621
 k-point 20 :   0.2500-0.4167 0.2500  plane waves:   13613
 k-point 21 :   0.4167-0.4167 0.2500  plane waves:   13626
 k-point 22 :  -0.4167-0.4167 0.2500  plane waves:   13634
 k-point 23 :  -0.2500-0.4167 0.2500  plane waves:   13637
 k-point 24 :  -0.0833-0.4167 0.2500  plane waves:   13638
 k-point 25 :   0.0833-0.2500 0.2500  plane waves:   13628
 k-point 26 :   0.2500-0.2500 0.2500  plane waves:   13613
 k-point 27 :   0.4167-0.2500 0.2500  plane waves:   13641
 k-point 28 :  -0.4167-0.2500 0.2500  plane waves:   13650
 k-point 29 :  -0.2500-0.2500 0.2500  plane waves:   13632
 k-point 30 :  -0.0833-0.2500 0.2500  plane waves:   13616
 k-point 31 :   0.0833-0.0833 0.2500  plane waves:   13650
 k-point 32 :   0.2500-0.0833 0.2500  plane waves:   13626
 k-point 33 :   0.4167-0.0833 0.2500  plane waves:   13634
 k-point 34 :  -0.4167-0.0833 0.2500  plane waves:   13617
 k-point 35 :  -0.2500-0.0833 0.2500  plane waves:   13634
 k-point 36 :  -0.0833-0.0833 0.2500  plane waves:   13634

 maximum and minimum number of plane-waves per node :      3430     3384

 maximum number of plane-waves:     13660
 maximum index in each direction: 
   IXMAX=   11   IYMAX=   11   IZMAX=   29
   IXMIN=  -11   IYMIN=  -11   IZMIN=  -29


 real space projection operators:
  total allocation   :       7252.98 KBytes
  max/ min on nodes  :       1823.72       1806.38


 parallel 3D FFT for wavefunctions:
    minimum data exchange during FFTs selected (reduces bandwidth)
 parallel 3D FFT for charge:
    minimum data exchange during FFTs selected (reduces bandwidth)


 total amount of memory used by VASP MPI-rank0   163019. kBytes
=======================================================================

   base      :      30000. kBytes
   nonlr-proj:       4140. kBytes
   fftplans  :       1691. kBytes
   grid      :       4644. kBytes
   one-center:        342. kBytes
   wavefun   :     122202. kBytes
 
     INWAV:  cpu time    0.0000: real time    0.0002
 Broyden mixing: mesh for mixing (old mesh)
   NGX = 23   NGY = 23   NGZ = 59
  (NGX  = 72   NGY  = 72   NGZ  =180)
  gives a total of  31211 points

 initial charge density was supplied:
 charge density of overlapping atoms calculated
 number of electron     258.0000000 magnetization       6.0000000
 keeping initial charge density in first step


--------------------------------------------------------------------------------------------------------


 Maximum index for non-local projection operator          661
 Maximum index for augmentation-charges          806 (set IRDMAX)


--------------------------------------------------------------------------------------------------------


 First call to EWALD:  gamma=   0.239
 Maximum number of real-space cells 4x 4x 2
 Maximum number of reciprocal cells 2x 2x 5

    FEWALD:  cpu time    0.0057: real time    0.0057


--------------------------------------- Iteration      1(   1)  ---------------------------------------


    POTLOK:  cpu time    0.0681: real time    0.0817
    SETDIJ:  cpu time    0.0172: real time    0.0192
    TRIAL :  cpu time   25.0053: real time   25.1548
    CORREC:  cpu time    0.0044: real time    0.0044
    --------------------------------------------
      LOOP:  cpu time   25.3079: real time   25.4746

 eigenvalue-minimisations  : 23040
 total energy-change (2. order) : 0.3476000E+04  (-0.1394254E+05)
 number of electron     258.0000000 magnetization       6.0000000
 augmentation part      258.0000000 magnetization       6.0000000

 Free energy of the ion-electron system (eV)
  ---------------------------------------------------
  alpha Z        PSCENC =       717.71837393
  Ewald energy   TEWEN  =    -12785.09122583
  -Hartree energ DENC   =     -8083.32634506
  -exchange      EXHF   =         0.00000000
  -V(xc)+E(xc)   XCENC  =       841.69953605
  PAW double counting   =     17015.18481625   -17491.61297812
  entropy T*S    EENTRO =        -0.00624402
  eigenvalues    EBANDS =      3092.56311538
  atomic energy  EATOM  =     20168.87094289
  ---------------------------------------------------
  free energy    TOTEN  =      3475.99999147 eV

  energy without entropy =     3476.00623549  energy(sigma->0) =     3476.00311348


--------------------------------------------------------------------------------------------------------




--------------------------------------- Iteration      1(   2)  ---------------------------------------


    TRIAL :  cpu time   25.3140: real time   25.6802
    CORREC:  cpu time    0.0051: real time    0.0052
    --------------------------------------------
      LOOP:  cpu time   25.3233: real time   25.6896

 eigenvalue-minimisations  : 24912
 total energy-change (2. order) :-0.3065524E+04  (-0.2825549E+04)
 number of electron     258.0000000 magnetization       6.0000000
 augmentation part      258.0000000 magnetization       6.0000000

 Free energy of the ion-electron system (eV)
  ---------------------------------------------------
  alpha Z        PSCENC =       717.71837393
  Ewald energy   TEWEN  =    -12785.09122583
  -Hartree energ DENC   =     -8083.32634506
  -exchange      EXHF   =         0.00000000
  -V(xc)+E(xc)   XCENC  =       841.69953605
  PAW double counting   =     17015.18481625   -17491.61297812
  entropy T*S    EENTRO =        -0.02268290
  eigenvalues    EBANDS =        27.05520864
  atomic energy  EATOM  =     20168.87094289
  ---------------------------------------------------
  free energy    TOTEN  =       410.47564585 eV

  energy without entropy =      410.49832875  energy(sigma->0) =      410.48698730


--------------------------------------------------------------------------------------------------------




--------------------------------------- Iteration      1(   3)  ---------------------------------------


    TRIAL :  cpu time   26.6988: real time   27.2494
    CORREC:  cpu time    0.0049: real time    0.0049
    --------------------------------------------
      LOOP:  cpu time   26.7049: real time   27.2597

 eigenvalue-minimisations  : 26048
 total energy-change (2. order) :-0.6309575E+03  (-0.5777794E+03)
 number of electron     258.0000000 magnetization       6.0000000
 augmentation part      258.0000000 magnetization       6.0000000

 Free energy of the ion-electron system (eV)
  ---------------------------------------------------
  alpha Z        PSCENC =       717.71837393
  Ewald energy   TEWEN  =    -12785.09122583
  -Hartree energ DENC   =     -8083.32634506
  -exchange      EXHF   =         0.00000000
  -V(xc)+E(xc)   XCENC  =       841.69953605
  PAW double counting   =     17015.18481625   -17491.61297812
  entropy T*S    EENTRO =        -0.02533237
  eigenvalues    EBANDS =      -603.89961697
  atomic energy  EATOM  =     20168.87094289
  ---------------------------------------------------
  free energy    TOTEN  =      -220.48182924 eV

  energy without entropy =     -220.45649686  energy(sigma->0) =     -220.46916305


--------------------------------------------------------------------------------------------------------




--------------------------------------- Iteration      1(   4)  ---------------------------------------


    TRIAL :  cpu time   26.7337: real time   26.8357
    CORREC:  cpu time    0.0042: real time    0.0042
    --------------------------------------------
      LOOP:  cpu time   26.7437: real time   26.8457

 eigenvalue-minimisations  : 25408
 total energy-change (2. order) :-0.5092499E+02  (-0.4981340E+02)
 number of electron     258.0000000 magnetization       6.0000000
 augmentation part      258.0000000 magnetization       6.0000000

 Free energy of the ion-electron system (eV)
  ---------------------------------------------------
  alpha Z        PSCENC =       717.71837393
  Ewald energy   TEWEN  =    -12785.09122583
  -Hartree energ DENC   =     -8083.32634506
  -exchange      EXHF   =         0.00000000
  -V(xc)+E(xc)   XCENC  =       841.69953605
  PAW double counting   =     17015.18481625   -17491.61297812
  entropy T*S    EENTRO =        -0.01746239
  eigenvalues    EBANDS =      -654.83248118
  atomic energy  EATOM  =     20168.87094289
  ---------------------------------------------------
  free energy    TOTEN  =      -271.40682346 eV

  energy without entropy =     -271.38936107  energy(sigma->0) =     -271.39809227


--------------------------------------------------------------------------------------------------------




--------------------------------------- Iteration      1(   5)  ---------------------------------------


    TRIAL :  cpu time   29.7075: real time   29.9191
    CORREC:  cpu time    0.0050: real time    0.0050
    CHARGE:  cpu time    0.5589: real time    0.5597
    --------------------------------------------
      LOOP:  cpu time   30.2779: real time   30.4903

 eigenvalue-minimisations  : 29152
 total energy-change (2. order) :-0.1817882E+01  (-0.1814682E+01)
 number of electron     257.9999952 magnetization       6.0000009
 augmentation part       67.9466835 magnetization       4.2880617

 Free energy of the ion-electron system (eV)
  ---------------------------------------------------
  alpha Z        PSCENC =       717.71837393
  Ewald energy   TEWEN  =    -12785.09122583
  -Hartree energ DENC   =     -8083.32634506
  -exchange      EXHF   =         0.00000000
  -V(xc)+E(xc)   XCENC  =       841.69953605
  PAW double counting   =     17015.18481625   -17491.61297812
  entropy T*S    EENTRO =        -0.01771802
  eigenvalues    EBANDS =      -656.65010707
  atomic energy  EATOM  =     20168.87094289
  ---------------------------------------------------
  free energy    TOTEN  =      -273.22470498 eV

  energy without entropy =     -273.20698696  energy(sigma->0) =     -273.21584597


--------------------------------------------------------------------------------------------------------




--------------------------------------- Iteration      1(   6)  ---------------------------------------


    POTLOK:  cpu time    0.0482: real time    0.0482
    SETDIJ:  cpu time    0.0573: real time    0.0581
    TRIAL :  cpu time   13.9044: real time   13.9370
    CORREC:  cpu time    5.0315: real time    5.1814
    CHARGE:  cpu time    0.5645: real time    0.5654
    --------------------------------------------
      LOOP:  cpu time   19.6101: real time   19.7943

 eigenvalue-minimisations  :     0
 total energy-change (2. order) : 0.4317453E+03  (-0.7693436E+02)
 number of electron     257.9999969 magnetization       5.9999993
 augmentation part       69.1394916 magnetization       4.3781768

 Free energy of the ion-electron system (eV)
  ---------------------------------------------------
  alpha Z        PSCENC =       717.71837393
  Ewald energy   TEWEN  =    -12785.09122583
  -Hartree energ DENC   =     -8019.24127131
  -exchange      EXHF   =         0.00000000
  -V(xc)+E(xc)   XCENC  =       876.70041622
  PAW double counting   =     23466.13378303   -23673.29154944
  entropy T*S    EENTRO =        -0.05227722
  eigenvalues    EBANDS =      -593.26114130
  atomic energy  EATOM  =     20168.87094289
  ---------------------------------------------------
  free energy    TOTEN  =       158.52061017 eV

  energy without entropy =      158.57288739  energy(sigma->0) =      158.54674878


--------------------------------------------------------------------------------------------------------




--------------------------------------- Iteration      1(   7)  ---------------------------------------


    POTLOK:  cpu time    0.0472: real time    0.0474
    SETDIJ:  cpu time    0.0128: real time    0.0128
    TRIAL :  cpu time   14.9617: real time   15.0985
    CORREC:  cpu time    5.0848: real time    5.1761
    CHARGE:  cpu time    0.6598: real time    0.6606
    --------------------------------------------
      LOOP:  cpu time   20.7706: real time   20.9996

 eigenvalue-minimisations  :     0
 total energy-change (2. order) :-0.8513568E+02  (-0.9191059E+02)
 number of electron     257.9999955 magnetization       6.0000006
 augmentation part       69.9901139 magnetization       4.2875669

 Free energy of the ion-electron system (eV)
  ---------------------------------------------------
  alpha Z        PSCENC =       717.71837393
  Ewald energy   TEWEN  =    -12785.09122583
  -Hartree energ DENC   =     -7559.92551598
  -exchange      EXHF   =         0.00000000
  -V(xc)+E(xc)   XCENC  =       869.26627973
  PAW double counting   =     23310.55534702   -23565.30147915
  entropy T*S    EENTRO =        -0.03243267
  eigenvalues    EBANDS =     -1082.65551995
  atomic energy  EATOM  =     20168.87094289
  ---------------------------------------------------
  free energy    TOTEN  =        73.38492544 eV

  energy without entropy =       73.41735810  energy(sigma->0) =       73.40114177


--------------------------------------------------------------------------------------------------------




--------------------------------------- Iteration      1(   8)  ---------------------------------------


    POTLOK:  cpu time    0.0469: real time    0.0470
    SETDIJ:  cpu time    0.0129: real time    0.0129
    TRIAL :  cpu time   16.1262: real time   16.1778
    CORREC:  cpu time    5.0890: real time    5.0988
    CHARGE:  cpu time    0.6211: real time    0.6220
    --------------------------------------------
      LOOP:  cpu time   21.9002: real time   21.9624

 eigenvalue-minimisations  :     0
 total energy-change (2. order) :-0.1006351E+03  (-0.1736753E+03)
 number of electron     257.9999972 magnetization       5.9999990
 augmentation part       71.3601735 magnetization       4.4180629

 Free energy of the ion-electron system (eV)
  ---------------------------------------------------
  alpha Z        PSCENC =       717.71837393
  Ewald energy   TEWEN  =    -12785.09122583
  -Hartree energ DENC   =     -7856.53205718
  -exchange      EXHF   =         0.00000000
  -V(xc)+E(xc)   XCENC  =       865.92070491
  PAW double counting   =     23246.85688667   -23529.20197543
  entropy T*S    EENTRO =        -0.04342365
  eigenvalues    EBANDS =      -855.75939834
  atomic energy  EATOM  =     20168.87094289
  ---------------------------------------------------
  free energy    TOTEN  =       -27.25018105 eV

  energy without entropy =      -27.20675740  energy(sigma->0) =      -27.22846922


--------------------------------------------------------------------------------------------------------




--------------------------------------- Iteration      1(   9)  ---------------------------------------


    POTLOK:  cpu time    0.0470: real time    0.0470
    SETDIJ:  cpu time    0.0128: real time    0.0128
    TRIAL :  cpu time   14.3403: real time   14.3745
    CORREC:  cpu time    5.0380: real time    5.0579
    CHARGE:  cpu time    0.5777: real time    0.5784
    --------------------------------------------
      LOOP:  cpu time   20.0199: real time   20.0748

 eigenvalue-minimisations  :     0
 total energy-change (2. order) : 0.1242425E+01  (-0.5790027E+02)
 number of electron     257.9999959 magnetization       6.0000003
 augmentation part       72.5054372 magnetization       4.3056683

 Free energy of the ion-electron system (eV)
  ---------------------------------------------------
  alpha Z        PSCENC =       717.71837393
  Ewald energy   TEWEN  =    -12785.09122583
  -Hartree energ DENC   =     -7641.68067945
  -exchange      EXHF   =         0.00000000
  -V(xc)+E(xc)   XCENC  =       861.74747126
  PAW double counting   =     23373.54395693   -23714.95057531
  entropy T*S    EENTRO =        -0.04941511
  eigenvalues    EBANDS =     -1006.12259728
  atomic energy  EATOM  =     20168.87094289
  ---------------------------------------------------
  free energy    TOTEN  =       -26.00775651 eV

  energy without entropy =      -25.95834140  energy(sigma->0) =      -25.98304896


--------------------------------------------------------------------------------------------------------




--------------------------------------- Iteration      1(  10)  ---------------------------------------


    POTLOK:  cpu time    0.0479: real time    0.0480
    SETDIJ:  cpu time    0.0129: real time    0.0129
    TRIAL :  cpu time   14.3671: real time   14.3993
    CORREC:  cpu time    5.5082: real time    5.5183
    CHARGE:  cpu time    0.6374: real time    0.6394
    --------------------------------------------
      LOOP:  cpu time   20.5780: real time   20.6231

 eigenvalue-minimisations  :     0
 total energy-change (2. order) :-0.1200532E+03  (-0.5012684E+02)
 number of electron     257.9999955 magnetization       6.0000007
 augmentation part       73.6950703 magnetization       4.2287147

 Free energy of the ion-electron system (eV)
  ---------------------------------------------------
  alpha Z        PSCENC =       717.71837393
  Ewald energy   TEWEN  =    -12785.09122583
  -Hartree energ DENC   =     -7741.83321320
  -exchange      EXHF   =         0.00000000
  -V(xc)+E(xc)   XCENC  =       857.50136980
  PAW double counting   =     23386.02100785   -23767.60954347
  entropy T*S    EENTRO =        -0.01833420
  eigenvalues    EBANDS =      -981.58922057
  atomic energy  EATOM  =     20168.87094289
  ---------------------------------------------------
  free energy    TOTEN  =      -146.06092371 eV

  energy without entropy =     -146.04258951  energy(sigma->0) =     -146.05175661


--------------------------------------------------------------------------------------------------------




--------------------------------------- Iteration      1(  11)  ---------------------------------------


    POTLOK:  cpu time    0.0468: real time    0.0469
    SETDIJ:  cpu time    0.0129: real time    0.0129
    TRIAL :  cpu time   13.8985: real time   14.0010
    CORREC:  cpu time    4.8712: real time    4.8812
    CHARGE:  cpu time    0.5703: real time    0.5711
    --------------------------------------------
      LOOP:  cpu time   19.4038: real time   19.5172

 eigenvalue-minimisations  :     0
 total energy-change (2. order) : 0.1125265E+01  (-0.2249650E+02)
 number of electron     257.9999960 magnetization       6.0000003
 augmentation part       75.4146281 magnetization       4.0453953

 Free energy of the ion-electron system (eV)
  ---------------------------------------------------
  alpha Z        PSCENC =       717.71837393
  Ewald energy   TEWEN  =    -12785.09122583
  -Hartree energ DENC   =     -8017.47509696
  -exchange      EXHF   =         0.00000000
  -V(xc)+E(xc)   XCENC  =       855.08473072
  PAW double counting   =     23513.71853505   -23942.74445601
  entropy T*S    EENTRO =        -0.02379494
  eigenvalues    EBANDS =      -654.99912787
  atomic energy  EATOM  =     20168.87094289
  ---------------------------------------------------
  free energy    TOTEN  =      -144.93565829 eV

  energy without entropy =     -144.91186335  energy(sigma->0) =     -144.92376082


--------------------------------------------------------------------------------------------------------




--------------------------------------- Iteration      1(  12)  ---------------------------------------


    POTLOK:  cpu time    0.0479: real time    0.0479
    SETDIJ:  cpu time    0.0129: real time    0.0129
    TRIAL :  cpu time   14.1801: real time   14.2141
    CORREC:  cpu time    5.0672: real time    5.0775
    CHARGE:  cpu time    0.5840: real time    0.5848
    --------------------------------------------
      LOOP:  cpu time   19.8964: real time   19.9415

 eigenvalue-minimisations  :     0
 total energy-change (2. order) :-0.3655656E+02  (-0.3620228E+02)
 number of electron     257.9999965 magnetization       5.9999998
 augmentation part       76.8661030 magnetization       3.9001021

 Free energy of the ion-electron system (eV)
  ---------------------------------------------------
  alpha Z        PSCENC =       717.71837393
  Ewald energy   TEWEN  =    -12785.09122583
  -Hartree energ DENC   =     -8088.70819963
  -exchange      EXHF   =         0.00000000
  -V(xc)+E(xc)   XCENC  =       851.30665141
  PAW double counting   =     23678.24638493   -24174.42191310
  entropy T*S    EENTRO =        -0.02467302
  eigenvalues    EBANDS =      -549.38943452
  atomic energy  EATOM  =     20168.87094289
  ---------------------------------------------------
  free energy    TOTEN  =      -181.49221485 eV

  energy without entropy =     -181.46754183  energy(sigma->0) =     -181.47987834


--------------------------------------------------------------------------------------------------------




--------------------------------------- Iteration      1(  13)  ---------------------------------------


    POTLOK:  cpu time    0.0482: real time    0.0483
    SETDIJ:  cpu time    0.0129: real time    0.0129
    TRIAL :  cpu time   14.6101: real time   14.6609
    CORREC:  cpu time    5.3612: real time    5.3816
    CHARGE:  cpu time    0.5716: real time    0.5742
    --------------------------------------------
      LOOP:  cpu time   20.6085: real time   20.6821

 eigenvalue-minimisations  :     0
 total energy-change (2. order) :-0.1666512E+02  (-0.4413288E+01)
 number of electron     257.9999964 magnetization       5.9999999
 augmentation part       76.9963517 magnetization       3.8698117

 Free energy of the ion-electron system (eV)
  ---------------------------------------------------
  alpha Z        PSCENC =       717.71837393
  Ewald energy   TEWEN  =    -12785.09122583
  -Hartree energ DENC   =     -8071.70990686
  -exchange      EXHF   =         0.00000000
  -V(xc)+E(xc)   XCENC  =       848.85354236
  PAW double counting   =     23891.12522700   -24445.68480358
  entropy T*S    EENTRO =        -0.02923377
  eigenvalues    EBANDS =      -522.21481111
  atomic energy  EATOM  =     20168.87094289
  ---------------------------------------------------
  free energy    TOTEN  =      -198.15733423 eV

  energy without entropy =     -198.12810045  energy(sigma->0) =     -198.14271734


--------------------------------------------------------------------------------------------------------




--------------------------------------- Iteration      1(  14)  ---------------------------------------


    POTLOK:  cpu time    0.0480: real time    0.0480
    SETDIJ:  cpu time    0.0137: real time    0.0137
    TRIAL :  cpu time   14.9097: real time   14.9598
    CORREC:  cpu time    4.8750: real time    4.8945
    CHARGE:  cpu time    0.6373: real time    0.6380
    --------------------------------------------
      LOOP:  cpu time   20.4881: real time   20.5585

 eigenvalue-minimisations  :     0
 total energy-change (2. order) :-0.6167811E+01  (-0.4855290E+01)
 number of electron     257.9999962 magnetization       6.0000001
 augmentation part       76.5004873 magnetization       3.8894518

 Free energy of the ion-electron system (eV)
  ---------------------------------------------------
  alpha Z        PSCENC =       717.71837393
  Ewald energy   TEWEN  =    -12785.09122583
  -Hartree energ DENC   =     -8065.52701400
  -exchange      EXHF   =         0.00000000
  -V(xc)+E(xc)   XCENC  =       848.38930743
  PAW double counting   =     23905.71214250   -24464.29166139
  entropy T*S    EENTRO =        -0.02519427
  eigenvalues    EBANDS =      -530.07677712
  atomic energy  EATOM  =     20168.87094289
  ---------------------------------------------------
  free energy    TOTEN  =      -204.32514536 eV

  energy without entropy =     -204.29995109  energy(sigma->0) =     -204.31254823


--------------------------------------------------------------------------------------------------------




--------------------------------------- Iteration      1(  15)  ---------------------------------------


    POTLOK:  cpu time    0.0477: real time    0.0478
    SETDIJ:  cpu time    0.0130: real time    0.0130
    TRIAL :  cpu time   14.0154: real time   14.0619
    CORREC:  cpu time    4.9948: real time    5.0110
    CHARGE:  cpu time    0.5591: real time    0.5901
    --------------------------------------------
      LOOP:  cpu time   19.6344: real time   19.7281

 eigenvalue-minimisations  :     0
 total energy-change (2. order) :-0.2894483E+01  (-0.4252938E+01)
 number of electron     257.9999960 magnetization       6.0000003
 augmentation part       75.4980981 magnetization       3.9229423

 Free energy of the ion-electron system (eV)
  ---------------------------------------------------
  alpha Z        PSCENC =       717.71837393
  Ewald energy   TEWEN  =    -12785.09122583
  -Hartree energ DENC   =     -8019.27793100
  -exchange      EXHF   =         0.00000000
  -V(xc)+E(xc)   XCENC  =       848.42223895
  PAW double counting   =     23777.48049270   -24312.41149580
  entropy T*S    EENTRO =        -0.02836369
  eigenvalues    EBANDS =      -602.90582950
  atomic energy  EATOM  =     20168.87094289
  ---------------------------------------------------
  free energy    TOTEN  =      -207.21962792 eV

  energy without entropy =     -207.19126423  energy(sigma->0) =     -207.20544607


--------------------------------------------------------------------------------------------------------




--------------------------------------- Iteration      1(  16)  ---------------------------------------


    POTLOK:  cpu time    0.1554: real time    0.1743
    SETDIJ:  cpu time    0.0121: real time    0.0126
    TRIAL :  cpu time   14.1283: real time   14.3249
    CORREC:  cpu time    5.2315: real time    5.2604
    CHARGE:  cpu time    0.5436: real time    0.5672
    --------------------------------------------
      LOOP:  cpu time   20.0714: real time   20.3398

 eigenvalue-minimisations  :     0
 total energy-change (2. order) :-0.2160071E+01  (-0.4907125E+01)
 number of electron     257.9999960 magnetization       6.0000003
 augmentation part       74.5815971 magnetization       3.9347043

 Free energy of the ion-electron system (eV)
  ---------------------------------------------------
  alpha Z        PSCENC =       717.71837393
  Ewald energy   TEWEN  =    -12785.09122583
  -Hartree energ DENC   =     -7977.86620768
  -exchange      EXHF   =         0.00000000
  -V(xc)+E(xc)   XCENC  =       848.67332750
  PAW double counting   =     23586.69142418   -24074.40480195
  entropy T*S    EENTRO =        -0.02263543
  eigenvalues    EBANDS =      -693.94316822
  atomic energy  EATOM  =     20168.87094289
  ---------------------------------------------------
  free energy    TOTEN  =      -209.37969888 eV

  energy without entropy =     -209.35706345  energy(sigma->0) =     -209.36838117


--------------------------------------------------------------------------------------------------------




--------------------------------------- Iteration      1(  17)  ---------------------------------------


    POTLOK:  cpu time    0.1610: real time    0.1639
    SETDIJ:  cpu time    0.0129: real time    0.0129
    TRIAL :  cpu time   13.9741: real time   14.0196
    CORREC:  cpu time    5.0209: real time    5.0349
    CHARGE:  cpu time    0.5813: real time    0.5824
    --------------------------------------------
      LOOP:  cpu time   19.7508: real time   19.8193

 eigenvalue-minimisations  :     0
 total energy-change (2. order) :-0.2264499E+01  (-0.1699587E+01)
 number of electron     257.9999961 magnetization       6.0000002
 augmentation part       74.3482419 magnetization       3.9307156

 Free energy of the ion-electron system (eV)
  ---------------------------------------------------
  alpha Z        PSCENC =       717.71837393
  Ewald energy   TEWEN  =    -12785.09122583
  -Hartree energ DENC   =     -7955.76937049
  -exchange      EXHF   =         0.00000000
  -V(xc)+E(xc)   XCENC  =       849.16656030
  PAW double counting   =     23500.91103153   -23944.82769090
  entropy T*S    EENTRO =        -0.02085429
  eigenvalues    EBANDS =      -762.60018393
  atomic energy  EATOM  =     20168.87094289
  ---------------------------------------------------
  free energy    TOTEN  =      -211.64419793 eV

  energy without entropy =     -211.62334363  energy(sigma->0) =     -211.63377078


--------------------------------------------------------------------------------------------------------




--------------------------------------- Iteration      1(  18)  ---------------------------------------


    POTLOK:  cpu time    0.1507: real time    0.1510
    SETDIJ:  cpu time    0.0565: real time    0.0566
    TRIAL :  cpu time   14.4932: real time   14.5362
    CORREC:  cpu time    4.8196: real time    4.8320
    CHARGE:  cpu time    0.6419: real time    0.6433
    --------------------------------------------
      LOOP:  cpu time   20.1663: real time   20.2236

 eigenvalue-minimisations  :     0
 total energy-change (2. order) :-0.1408970E+01  (-0.1173637E+01)
 number of electron     257.9999963 magnetization       6.0000000
 augmentation part       74.3942971 magnetization       3.9215727

 Free energy of the ion-electron system (eV)
  ---------------------------------------------------
  alpha Z        PSCENC =       717.71837393
  Ewald energy   TEWEN  =    -12785.09122583
  -Hartree energ DENC   =     -7949.63122367
  -exchange      EXHF   =         0.00000000
  -V(xc)+E(xc)   XCENC  =       849.24181157
  PAW double counting   =     23493.21343095   -23924.24956294
  entropy T*S    EENTRO =        -0.02049339
  eigenvalues    EBANDS =      -783.10486077
  atomic energy  EATOM  =     20168.87094289
  ---------------------------------------------------
  free energy    TOTEN  =      -213.05316816 eV

  energy without entropy =     -213.03267477  energy(sigma->0) =     -213.04292147


--------------------------------------------------------------------------------------------------------




--------------------------------------- Iteration      1(  19)  ---------------------------------------


    POTLOK:  cpu time    0.0469: real time    0.0471
    SETDIJ:  cpu time    0.0128: real time    0.0128
    TRIAL :  cpu time   14.1742: real time   14.2204
    CORREC:  cpu time    5.2523: real time    5.2788
    CHARGE:  cpu time    0.5465: real time    0.5702
    --------------------------------------------
      LOOP:  cpu time   20.0368: real time   20.1334

 eigenvalue-minimisations  :     0
 total energy-change (2. order) :-0.1526301E+01  (-0.1564601E+01)
 number of electron     257.9999965 magnetization       5.9999998
 augmentation part       74.7273459 magnetization       3.8954517

 Free energy of the ion-electron system (eV)
  ---------------------------------------------------
  alpha Z        PSCENC =       717.71837393
  Ewald energy   TEWEN  =    -12785.09122583
  -Hartree energ DENC   =     -7953.02406609
  -exchange      EXHF   =         0.00000000
  -V(xc)+E(xc)   XCENC  =       849.26940905
  PAW double counting   =     23505.96752153   -23936.06700104
  entropy T*S    EENTRO =        -0.02118366
  eigenvalues    EBANDS =      -782.20292975
  atomic energy  EATOM  =     20168.87094289
  ---------------------------------------------------
  free energy    TOTEN  =      -214.57946870 eV

  energy without entropy =     -214.55828504  energy(sigma->0) =     -214.56887687


--------------------------------------------------------------------------------------------------------




--------------------------------------- Iteration      1(  20)  ---------------------------------------


    POTLOK:  cpu time    0.0462: real time    0.0475
    SETDIJ:  cpu time    0.0128: real time    0.0129
    TRIAL :  cpu time   14.0069: real time   14.0676
    CORREC:  cpu time    4.8873: real time    4.9864
    CHARGE:  cpu time    0.5697: real time    0.5705
    --------------------------------------------
      LOOP:  cpu time   19.5235: real time   19.6898

 eigenvalue-minimisations  :     0
 total energy-change (2. order) :-0.1744323E+01  (-0.1586077E+01)
 number of electron     257.9999966 magnetization       5.9999998
 augmentation part       75.2904497 magnetization       3.8453373

 Free energy of the ion-electron system (eV)
  ---------------------------------------------------
  alpha Z        PSCENC =       717.71837393
  Ewald energy   TEWEN  =    -12785.09122583
  -Hartree energ DENC   =     -7978.73031648
  -exchange      EXHF   =         0.00000000
  -V(xc)+E(xc)   XCENC  =       849.38139807
  PAW double counting   =     23546.78762942   -23985.42592509
  entropy T*S    EENTRO =        -0.02130845
  eigenvalues    EBANDS =      -749.81348518
  atomic energy  EATOM  =     20168.87094289
  ---------------------------------------------------
  free energy    TOTEN  =      -216.32379194 eV

  energy without entropy =     -216.30248349  energy(sigma->0) =     -216.31313772


--------------------------------------------------------------------------------------------------------




--------------------------------------- Iteration      1(  21)  ---------------------------------------


    POTLOK:  cpu time    0.0473: real time    0.0474
    SETDIJ:  cpu time    0.0129: real time    0.0129
    TRIAL :  cpu time   14.3110: real time   14.3432
    CORREC:  cpu time    4.9318: real time    4.9403
    CHARGE:  cpu time    0.6093: real time    0.6113
    --------------------------------------------
      LOOP:  cpu time   19.9166: real time   19.9594

 eigenvalue-minimisations  :     0
 total energy-change (2. order) :-0.1802072E+01  (-0.1078861E+01)
 number of electron     257.9999966 magnetization       5.9999999
 augmentation part       75.7270470 magnetization       3.8006822

 Free energy of the ion-electron system (eV)
  ---------------------------------------------------
  alpha Z        PSCENC =       717.71837393
  Ewald energy   TEWEN  =    -12785.09122583
  -Hartree energ DENC   =     -8029.44151429
  -exchange      EXHF   =         0.00000000
  -V(xc)+E(xc)   XCENC  =       849.62391891
  PAW double counting   =     23613.46514047   -24067.96594453
  entropy T*S    EENTRO =        -0.01867154
  eigenvalues    EBANDS =      -685.28424717
  atomic energy  EATOM  =     20168.87094289
  ---------------------------------------------------
  free energy    TOTEN  =      -218.12586407 eV

  energy without entropy =     -218.10719253  energy(sigma->0) =     -218.11652830


--------------------------------------------------------------------------------------------------------




--------------------------------------- Iteration      1(  22)  ---------------------------------------


    POTLOK:  cpu time    0.1931: real time    0.1935
    SETDIJ:  cpu time    0.0129: real time    0.0129
    TRIAL :  cpu time   14.8283: real time   14.9014
    CORREC:  cpu time    5.2845: real time    5.4535
    CHARGE:  cpu time    0.5712: real time    0.5718
    --------------------------------------------
      LOOP:  cpu time   20.8942: real time   21.1374

 eigenvalue-minimisations  :     0
 total energy-change (2. order) :-0.9272574E+00  (-0.4379052E+00)
 number of electron     257.9999965 magnetization       6.0000000
 augmentation part       75.9393763 magnetization       3.7773739

 Free energy of the ion-electron system (eV)
  ---------------------------------------------------
  alpha Z        PSCENC =       717.71837393
  Ewald energy   TEWEN  =    -12785.09122583
  -Hartree energ DENC   =     -8074.74447993
  -exchange      EXHF   =         0.00000000
  -V(xc)+E(xc)   XCENC  =       849.86408290
  PAW double counting   =     23662.07978419   -24128.97751187
  entropy T*S    EENTRO =        -0.01705930
  eigenvalues    EBANDS =      -628.75441624
  atomic energy  EATOM  =     20168.87094289
  ---------------------------------------------------
  free energy    TOTEN  =      -219.05312151 eV

  energy without entropy =     -219.03606221  energy(sigma->0) =     -219.04459186


--------------------------------------------------------------------------------------------------------




--------------------------------------- Iteration      1(  23)  ---------------------------------------


    POTLOK:  cpu time    0.0476: real time    0.0477
    SETDIJ:  cpu time    0.0128: real time    0.0128
    TRIAL :  cpu time   14.2458: real time   14.2803
    CORREC:  cpu time    5.0556: real time    5.0656
    CHARGE:  cpu time    0.5717: real time    0.5725
    --------------------------------------------
      LOOP:  cpu time   19.9379: real time   19.9834

 eigenvalue-minimisations  :     0
 total energy-change (2. order) :-0.2151077E+00  (-0.2406049E+00)
 number of electron     257.9999964 magnetization       6.0000000
 augmentation part       76.0249688 magnetization       3.7678820

 Free energy of the ion-electron system (eV)
  ---------------------------------------------------
  alpha Z        PSCENC =       717.71837393
  Ewald energy   TEWEN  =    -12785.09122583
  -Hartree energ DENC   =     -8097.14371522
  -exchange      EXHF   =         0.00000000
  -V(xc)+E(xc)   XCENC  =       850.04629599
  PAW double counting   =     23673.25564841   -24145.49578689
  entropy T*S    EENTRO =        -0.01580383
  eigenvalues    EBANDS =      -601.41170318
  atomic energy  EATOM  =     20168.87094289
  ---------------------------------------------------
  free energy    TOTEN  =      -219.26822920 eV

  energy without entropy =     -219.25242537  energy(sigma->0) =     -219.26032728


--------------------------------------------------------------------------------------------------------




--------------------------------------- Iteration      1(  24)  ---------------------------------------


    POTLOK:  cpu time    0.0473: real time    0.0474
    SETDIJ:  cpu time    0.0129: real time    0.0129
    TRIAL :  cpu time   14.1398: real time   14.1705
    CORREC:  cpu time    5.0748: real time    5.0829
    CHARGE:  cpu time    0.6232: real time    0.6237
    --------------------------------------------
      LOOP:  cpu time   19.9023: real time   19.9417

 eigenvalue-minimisations  :     0
 total energy-change (2. order) :-0.2109654E+00  (-0.5298610E+00)
 number of electron     257.9999964 magnetization       6.0000001
 augmentation part       76.0294822 magnetization       3.7676810

 Free energy of the ion-electron system (eV)
  ---------------------------------------------------
  alpha Z        PSCENC =       717.71837393
  Ewald energy   TEWEN  =    -12785.09122583
  -Hartree energ DENC   =     -8098.68055427
  -exchange      EXHF   =         0.00000000
  -V(xc)+E(xc)   XCENC  =       850.23026208
  PAW double counting   =     23653.55179698   -24126.35793352
  entropy T*S    EENTRO =        -0.01465000
  eigenvalues    EBANDS =      -599.70505304
  atomic energy  EATOM  =     20168.87094289
  ---------------------------------------------------
  free energy    TOTEN  =      -219.47919461 eV

  energy without entropy =     -219.46454461  energy(sigma->0) =     -219.47186961


--------------------------------------------------------------------------------------------------------




--------------------------------------- Iteration      1(  25)  ---------------------------------------


    POTLOK:  cpu time    0.0471: real time    0.0471
    SETDIJ:  cpu time    0.0240: real time    0.0240
    TRIAL :  cpu time   14.5036: real time   14.7972
    CORREC:  cpu time    5.1594: real time    5.1702
    CHARGE:  cpu time    0.5716: real time    0.5734
    --------------------------------------------
      LOOP:  cpu time   20.3099: real time   20.6161

 eigenvalue-minimisations  :     0
 total energy-change (2. order) :-0.5197348E+00  (-0.3702540E+00)
 number of electron     257.9999964 magnetization       6.0000000
[...]
   20        1.572   3.401   0.000   4.973
   21        1.588   3.316   0.000   4.904
   22        1.580   3.371   0.000   4.952
   23        1.575   3.373   0.000   4.948
   24        1.578   3.394   0.000   4.971
   25        1.571   3.421   0.000   4.991
   26        1.585   3.339   0.000   4.924
   27        1.556   3.469   0.000   5.025
   28        1.556   3.464   0.000   5.020
   29        1.554   3.493   0.000   5.046
   30        1.556   3.463   0.000   5.019
   31        1.579   3.395   0.000   4.975
   32        1.572   3.386   0.000   4.958
   33        1.568   3.406   0.000   4.974
   34        1.573   3.338   0.000   4.912
   35        1.583   3.353   0.000   4.935
   36        1.579   3.401   0.000   4.979
   37        1.571   3.433   0.000   5.003
   38        1.576   3.355   0.000   4.931
   39        1.559   3.450   0.000   5.010
   40        1.559   3.472   0.000   5.031
   41        1.562   3.476   0.000   5.038
   42        1.562   3.449   0.000   5.012
--------------------------------------------------
tot         43.546  91.238  87.367 222.151
 


 magnetization (x)
 
# of ion       s       p       d       tot
------------------------------------------
    1        0.001   0.000   0.000   0.001
    2        0.001   0.000   0.000   0.001
    3        0.000   0.000   0.000   0.000
    4        0.000  -0.001   0.000  -0.001
    5        0.001  -0.002   0.000  -0.001
    6        0.001  -0.001   0.000  -0.000
    7        0.004   0.006   0.044   0.054
    8        0.016   0.020   1.468   1.505
    9        0.013   0.016   1.364   1.393
   10        0.011   0.016   1.176   1.203
   11        0.003  -0.000  -0.013  -0.011
   12        0.002   0.002  -0.072  -0.068
   13        0.001   0.001  -0.045  -0.043
   14        0.012   0.008   1.453   1.473
   15        0.013   0.013   1.492   1.518
   16        0.013   0.014   1.561   1.588
   17        0.004   0.006   0.007   0.016
   18        0.003   0.004  -0.026  -0.019
   19        0.000  -0.084   0.000  -0.083
   20        0.001  -0.107   0.000  -0.106
   21        0.001  -0.236   0.000  -0.235
   22        0.001  -0.132   0.000  -0.131
   23        0.000  -0.136   0.000  -0.135
   24        0.000  -0.061   0.000  -0.061
   25        0.000  -0.096   0.000  -0.096
   26        0.001  -0.185   0.000  -0.184
   27        0.001  -0.037   0.000  -0.036
   28        0.001  -0.036   0.000  -0.035
   29       -0.001  -0.020   0.000  -0.020
   30        0.001  -0.031   0.000  -0.030
   31        0.001  -0.065   0.000  -0.064
   32       -0.002  -0.072   0.000  -0.073
   33       -0.000  -0.119   0.000  -0.120
   34       -0.000  -0.132   0.000  -0.132
   35        0.002  -0.165   0.000  -0.163
   36        0.001  -0.145   0.000  -0.145
   37        0.000  -0.087   0.000  -0.087
   38        0.000  -0.112   0.000  -0.112
   39        0.001  -0.058   0.000  -0.057
   40        0.001  -0.033   0.000  -0.032
   41        0.002  -0.040   0.000  -0.038
   42        0.001  -0.097   0.000  -0.097
--------------------------------------------------
tot          0.110  -2.184   8.409   6.335
 
    FORLOC:  cpu time    0.0076: real time    0.0076
    FORNL :  cpu time    4.4783: real time    4.4813
    STRESS:  cpu time   13.0165: real time   13.0244
    FORCOR:  cpu time    0.0508: real time    0.0508
    OFIELD:  cpu time    0.0004: real time    0.0004

  DFT-D2 method for vdW energy calculation
  -------------------------------------------------------------------

  Parameters of vdW forcefield:
         C6(Jnm^6/mol)     R0(A)
   -----------------------------
   Li       1.610          0.825
   Co      10.800          1.562
   O        0.700          1.342

  IVDW =   1
  VDW_RADIUS =    50.000 A
  VDW_S6 =     0.750
  VDW_SR =     1.000
  VDW_D =    20.000
  LVDW_EWALD = F

  Number of pair interactions contributing to vdW energy: 1157396
  Edisp (eV):   -9.35202
    FORVDW:  cpu time    0.1732: real time    0.1742

  FORCE on cell =-STRESS in cart. coord.  units (eV):
  Direction    XX          YY          ZZ          XY          YZ          ZX
  --------------------------------------------------------------------------------------
  Alpha Z   717.71837   717.71837   717.71837
  Ewald    -437.65168  -715.30592-11632.20273   -69.11228   108.30163     1.34447
  Hartree  5604.89733  5488.87673 -3052.77998   -27.09149    44.35959     0.43456
  E(xc)   -1283.90337 -1284.22966 -1285.24066    -0.03803     0.02217     0.06230
  Local  -10078.69984 -9710.41411  9729.61757    95.49309  -147.25251    -0.07073
  n-local  -590.10266  -599.92491  -599.53009    -0.01477     3.82750    -0.30717
  augment  2017.03995  2030.15954  2000.22981    -1.30724    -2.17080    -0.70737
  Kinetic  4059.24535  4072.96824  4125.71166     5.75531    -2.26103    -4.30394
  Fock        0.00000     0.00000     0.00000     0.00000     0.00000     0.00000
  vdW        -6.28870    -5.68479   -12.52617    -0.45780    -0.06315    -0.18143
  -------------------------------------------------------------------------------------
  Total       2.25476    -5.83651    -9.00223     3.22679     4.76341    -3.72932
  in kB       8.84402   -22.89302   -35.31017    12.65672    18.68392   -14.62780
  external pressure =      -16.45 kB  Pullay stress =        0.00 kB


 VOLUME and BASIS-vectors are now :
 -----------------------------------------------------------------------------
  energy-cutoff  :      600.00
  volume of cell :      408.47
      direct lattice vectors                 reciprocal lattice vectors
     5.606743336  0.000000000  0.000000000     0.178356657  0.104199397 -0.013843880
    -2.867460728  4.908192635  0.000000000     0.000000000  0.203740985 -0.005637306
     0.912180662  0.410697043 14.843228340     0.000000000  0.000000000  0.067370789

  length of vectors
     5.606743336  5.684424858 14.876900658     0.207027207  0.203818959  0.067370789


 FORCES acting on ions:
    Electron-Ion                     Ewald-Force                    Non-Local-Force
 -----------------------------------------------------------------------------------------------
   0.118E+01 0.587E+01 -.229E+02   -.963E+00 -.528E+01 0.233E+02   -.237E+00 -.146E+01 0.827E+00
   -.858E+00 -.323E+00 0.222E+02   0.927E+00 0.266E+00 -.220E+02   -.405E-01 0.275E+00 -.527E+00
   -.196E+01 -.129E+01 -.110E+01   0.161E+01 0.123E+01 0.699E+00   0.311E+00 0.228E+00 0.557E+00
   -.933E+00 -.299E+00 0.720E+01   0.745E+00 0.169E+00 -.762E+01   0.235E+00 0.577E-01 -.149E-02
   -.514E+01 -.406E+00 0.689E+01   0.474E+01 0.438E+00 -.747E+01   0.108E+01 0.169E-01 0.564E-01
   0.144E+01 0.195E+01 0.154E+01   -.123E+01 -.179E+01 -.215E+01   -.158E+00 -.354E+00 0.527E+00
   0.120E+01 0.120E+02 -.655E+02   -.793E+00 -.114E+02 0.654E+02   0.194E-01 -.865E+00 -.124E+00
   -.305E+02 -.123E+02 -.114E+03   0.316E+02 0.123E+02 0.113E+03   0.395E+00 -.267E+00 -.254E-01
   -.657E+01 0.129E+02 -.811E+02   0.658E+01 -.145E+02 0.814E+02   0.333E+00 -.958E+00 -.908E-01
   -.112E+02 0.264E+02 -.996E+02   0.120E+02 -.272E+02 0.100E+03   0.374E+00 -.672E+00 -.696E-01
   -.202E+02 0.754E+01 0.280E+03   0.202E+02 -.837E+01 -.283E+03   0.132E+01 0.663E+00 0.102E+01
   0.303E+02 0.221E+01 0.285E+03   -.302E+02 -.223E+01 -.286E+03   -.547E+00 -.975E-02 0.261E+01
   -.276E+02 0.257E+01 0.319E+03   0.277E+02 -.209E+01 -.321E+03   0.834E+00 0.231E+00 0.195E+01
   -.215E+02 -.374E+02 0.278E+03   0.227E+02 0.384E+02 -.278E+03   0.315E+00 0.834E+00 0.115E+01
   0.331E+02 -.112E+02 -.191E+03   -.350E+02 0.124E+02 0.191E+03   0.256E+00 -.252E+00 -.170E+01
   -.195E+02 0.259E+02 -.191E+03   0.205E+02 -.274E+02 0.193E+03   0.108E+00 0.524E+00 -.978E+00
   -.421E+02 -.363E+01 -.206E+03   0.450E+02 0.341E+01 0.207E+03   -.167E+00 -.193E+00 -.140E+01
   0.186E+02 0.395E+01 -.216E+03   -.200E+02 -.389E+01 0.218E+03   0.373E-01 -.799E+00 -.918E+00
   -.174E+02 -.580E+02 -.409E+03   0.160E+02 0.631E+02 0.433E+03   0.200E+01 -.275E+01 -.234E+02
   -.364E+02 0.377E+01 -.393E+03   0.403E+02 -.545E+01 0.413E+03   -.381E+01 0.279E+01 -.206E+02
   0.391E+02 -.206E+02 -.414E+03   -.412E+02 0.242E+02 0.439E+03   0.742E-01 -.293E+01 -.246E+02
   0.249E+02 0.110E+02 -.406E+03   -.265E+02 -.890E+01 0.430E+03   0.179E+01 -.879E+00 -.243E+02
   0.363E+02 0.446E+01 0.268E+03   -.397E+02 -.547E+01 -.289E+03   0.235E+01 0.774E+00 0.219E+02
   0.407E+02 0.613E+02 0.283E+03   -.443E+02 -.665E+02 -.306E+03   0.199E+01 0.371E+01 0.224E+02
   -.252E+02 -.378E+02 0.279E+03   0.267E+02 0.396E+02 -.299E+03   -.113E+01 -.755E+00 0.196E+02
   -.221E+02 0.841E+00 0.299E+03   0.226E+02 0.649E+00 -.324E+03   -.321E-01 -.208E+01 0.254E+02
   0.111E+02 -.164E+01 -.150E+03   -.982E+01 0.391E+00 0.162E+03   -.284E+01 0.978E+00 -.122E+02
   -.111E+02 0.459E+01 -.154E+03   0.109E+02 -.428E+01 0.167E+03   0.925E+00 -.560E+00 -.143E+02
   0.179E+02 -.162E+02 -.148E+03   -.220E+02 0.185E+02 0.160E+03   0.310E+01 -.195E+01 -.119E+02
   -.542E+01 0.231E+02 -.137E+03   0.637E+01 -.255E+02 0.149E+03   -.710E+00 0.134E+01 -.133E+02
   0.118E+02 0.243E+02 0.535E+03   -.145E+02 -.284E+02 -.561E+03   0.254E+01 0.342E+01 0.254E+02
   0.190E+02 -.133E+02 0.528E+03   -.208E+02 0.158E+02 -.551E+03   0.124E+01 -.245E+01 0.236E+02
   -.860E+00 0.647E+01 0.516E+03   0.189E+01 -.106E+02 -.536E+03   -.144E+01 0.444E+01 0.198E+02
   -.564E+01 -.479E+01 0.506E+03   0.457E+01 0.760E+01 -.526E+03   0.103E+01 -.344E+01 0.220E+02
   0.248E+02 -.921E+01 -.459E+03   -.275E+02 0.111E+02 0.483E+03   0.147E+01 -.144E+01 -.234E+02
   0.646E+01 0.140E+02 -.487E+03   -.837E+01 -.169E+02 0.512E+03   0.206E+01 0.303E+01 -.250E+02
   -.547E+01 -.271E+02 -.476E+03   0.525E+01 0.346E+02 0.496E+03   0.254E+00 -.754E+01 -.203E+02
   -.900E+01 0.442E+01 -.470E+03   0.114E+02 -.669E+01 0.493E+03   -.314E+01 0.261E+01 -.240E+02
   -.314E+01 -.347E+02 0.208E+03   0.254E+01 0.374E+02 -.221E+03   0.103E+01 -.173E+01 0.134E+02
   -.935E+01 0.187E+02 0.220E+03   0.922E+01 -.206E+02 -.236E+03   0.170E+00 0.174E+01 0.152E+02
   -.208E+01 0.290E+01 0.233E+03   0.282E+01 -.336E+01 -.249E+03   -.827E+00 0.412E+00 0.171E+02
   0.122E+02 0.144E+02 0.210E+03   -.120E+02 -.148E+02 -.224E+03   -.341E+00 0.245E+00 0.143E+02
 -----------------------------------------------------------------------------------------------
   -.123E+02 0.605E+01 -.562E+01   -.568E-13 0.302E-13 -.426E-12   0.122E+02 -.602E+01 0.565E+01
 
 
 POSITION                                       TOTAL-FORCE (eV/Angst)
 -----------------------------------------------------------------------------------
      3.74434      0.83086     14.66088        -0.039548     -0.789964      0.936958
      3.10020      3.14624      5.14834         0.017425      0.258476     -0.260503
      0.69710      1.81829      9.86077        -0.026620      0.123235      0.053815
     -0.75185      4.34469      9.96884        -0.008463     -0.058560     -0.396287
      3.41060      1.93809      9.96076         0.523393      0.062571     -0.505845
      2.03602      4.42100      9.88426         0.065785     -0.104386     -0.197119
     -0.20844      1.70552      2.36265         0.461521     -0.129312     -0.197880
     -1.64039      4.20264      2.43489         1.271307     -0.319801     -0.789671
      2.59733      1.83399      2.36319         0.253550     -2.382172      0.112700
      1.14105      4.21233      2.37744         0.965467     -1.301645      0.380313
      0.66362      0.21431      7.69237         1.161469     -0.160483     -1.719871
     -0.75418      2.68978      7.59212        -0.308894     -0.006464      1.418310
      0.62527      5.08290      7.58020         0.682453      0.663040     -0.049059
      2.01913      2.63738      7.60701         1.334612      1.483620      0.597853
      2.31674      1.09160     12.30108        -1.443561      0.917450     -1.327132
      0.82056      3.59133     12.22338         1.027588     -0.910654      0.644722
      4.97611      1.12413     12.26768         2.443503     -0.413844     -0.516780
      3.64698      3.61026     12.25378        -1.276137     -0.630588      0.573499
      2.53232      4.70311      3.41132         0.653932      2.380712      0.565033
      3.98745      2.49850      3.38281         0.148834      1.061504     -0.416900
      2.78130      0.10095      3.41214        -1.970041      0.677902     -0.188113
      1.16697      2.45318      3.33118         0.167103      1.218052     -0.030921
      1.31180      0.93086      1.38093        -1.052688     -0.215533      0.597014
     -0.16762      3.56840      1.40011        -1.604459     -1.404630     -0.326795
      3.97341      0.87474      1.41963         0.492303      1.109339     -0.177297
      2.54339      3.44966      1.37003         0.505956     -0.593909      0.380208
      2.23973      1.06453      8.70771        -1.563669     -0.261808     -0.223068
      0.59173      3.50845      8.72371         0.708324     -0.245392     -0.939818
      4.92895      1.02978      8.65692        -0.938762      0.402073      0.262088
      3.38880      3.56596      8.76738         0.229327     -1.013877     -1.218413
      0.67926      1.87336      6.74800        -0.196813     -0.661261     -0.709090
     -0.77248      4.28977      6.66217        -0.636267      0.081866      0.349488
      3.46117      1.84892      6.66554        -0.383200      0.237826     -0.307279
      2.05576      4.29874      6.49758        -0.098558     -0.558518      2.168455
      0.93403      1.89086     13.13378        -1.229162      0.419558      0.449151
     -0.54806      4.38908     13.17368         0.187897      0.225665      0.804371
      3.65504      1.97476     13.27048         0.050097      0.055843     -0.514936
      2.21533      4.39364     13.27138        -0.756012      0.375722     -0.921356
     -2.08735      5.14261     11.18448         0.452961      0.910047      0.623082
     -0.58951      2.76792     11.24748         0.017150     -0.275962     -0.207110
      3.62519      0.31920     11.16268        -0.070271     -0.055853      0.707740
      2.23867      2.75726     11.22938        -0.218828     -0.169885      0.516440
 -----------------------------------------------------------------------------------
    total drift:                               -0.071545      0.026460      0.028376


--------------------------------------------------------------------------------------------------------



  FREE ENERGIE OF THE ION-ELECTRON SYSTEM (eV)
  ---------------------------------------------------
  free  energy   TOTEN  =      -233.00707755 eV

  energy  without entropy=     -232.99668640  energy(sigma->0) =     -233.00188197
 


--------------------------------------------------------------------------------------------------------


    POTLOK:  cpu time    0.0755: real time    0.0755


--------------------------------------------------------------------------------------------------------


     LOOP+:  cpu time 5793.3579: real time 5844.3058
    4ORBIT:  cpu time    0.0000: real time    0.0000
 


 total charge     
 
# of ion       s       p       d       tot
------------------------------------------
    1        0.086   0.176   0.000   0.262
    2        0.065   0.124   0.000   0.189
    3        0.095   0.203   0.000   0.299
    4        0.104   0.223   0.000   0.326
    5        0.108   0.234   0.000   0.341
    6        0.110   0.236   0.000   0.346
    7        0.393   0.578   7.239   8.210
    8        0.441   0.684   7.179   8.304
    9        0.465   0.741   7.218   8.425
   10        0.510   0.868   7.311   8.689
   11        0.418   0.640   7.346   8.405
   12        0.430   0.656   7.356   8.442
   13        0.419   0.644   7.325   8.388
   14        0.444   0.670   7.214   8.328
   15        0.463   0.719   7.251   8.432
   16        0.446   0.695   7.205   8.346
   17        0.421   0.648   7.354   8.423
   18        0.435   0.689   7.368   8.491
   19        1.579   3.392   0.000   4.971
   20        1.572   3.401   0.000   4.973
   21        1.588   3.316   0.000   4.904
   22        1.580   3.371   0.000   4.952
   23        1.575   3.373   0.000   4.948
   24        1.578   3.394   0.000   4.971
   25        1.571   3.421   0.000   4.991
   26        1.585   3.339   0.000   4.924
   27        1.556   3.469   0.000   5.025
   28        1.556   3.464   0.000   5.020
   29        1.554   3.493   0.000   5.046
   30        1.556   3.463   0.000   5.019
   31        1.579   3.395   0.000   4.975
   32        1.572   3.386   0.000   4.958
   33        1.568   3.406   0.000   4.974
   34        1.573   3.338   0.000   4.912
   35        1.583   3.353   0.000   4.935
   36        1.579   3.401   0.000   4.979
   37        1.571   3.433   0.000   5.003
   38        1.576   3.355   0.000   4.931
   39        1.559   3.450   0.000   5.010
   40        1.559   3.472   0.000   5.031
   41        1.562   3.476   0.000   5.038
   42        1.562   3.449   0.000   5.012
--------------------------------------------------
tot         43.546  91.238  87.367 222.151
 


 magnetization (x)
 
# of ion       s       p       d       tot
------------------------------------------
    1        0.001   0.000   0.000   0.001
    2        0.001   0.000   0.000   0.001
    3        0.000   0.000   0.000   0.000
    4        0.000  -0.001   0.000  -0.001
    5        0.001  -0.002   0.000  -0.001
    6        0.001  -0.001   0.000  -0.000
    7        0.004   0.006   0.044   0.054
    8        0.016   0.020   1.468   1.505
    9        0.013   0.016   1.364   1.393
   10        0.011   0.016   1.176   1.203
   11        0.003  -0.000  -0.013  -0.011
   12        0.002   0.002  -0.072  -0.068
   13        0.001   0.001  -0.045  -0.043
   14        0.012   0.008   1.453   1.473
   15        0.013   0.013   1.492   1.518
   16        0.013   0.014   1.561   1.588
   17        0.004   0.006   0.007   0.016
   18        0.003   0.004  -0.026  -0.019
   19        0.000  -0.084   0.000  -0.083
   20        0.001  -0.107   0.000  -0.106
   21        0.001  -0.236   0.000  -0.235
   22        0.001  -0.132   0.000  -0.131
   23        0.000  -0.136   0.000  -0.135
   24        0.000  -0.061   0.000  -0.061
   25        0.000  -0.096   0.000  -0.096
   26        0.001  -0.185   0.000  -0.184
   27        0.001  -0.037   0.000  -0.036
   28        0.001  -0.036   0.000  -0.035
   29       -0.001  -0.020   0.000  -0.020
   30        0.001  -0.031   0.000  -0.030
   31        0.001  -0.065   0.000  -0.064
   32       -0.002  -0.072   0.000  -0.073
   33       -0.000  -0.119   0.000  -0.120
   34       -0.000  -0.132   0.000  -0.132
   35        0.002  -0.165   0.000  -0.163
   36        0.001  -0.145   0.000  -0.145
   37        0.000  -0.087   0.000  -0.087
   38        0.000  -0.112   0.000  -0.112
   39        0.001  -0.058   0.000  -0.057
   40        0.001  -0.033   0.000  -0.032
   41        0.002  -0.040   0.000  -0.038
   42        0.001  -0.097   0.000  -0.097
--------------------------------------------------
tot          0.110  -2.184   8.409   6.335
 

 total amount of memory used by VASP MPI-rank0   163019. kBytes
=======================================================================

   base      :      30000. kBytes
   nonlr-proj:       4140. kBytes
   fftplans  :       1691. kBytes
   grid      :       4644. kBytes
   one-center:        342. kBytes
   wavefun   :     122202. kBytes
 
  
  
 General timing and accounting informations for this job:
 ========================================================
  
                  Total CPU time used (sec):     5819.612
                            User time (sec):     5282.760
                          System time (sec):      536.852
                         Elapsed time (sec):     5871.065
  
                   Maximum memory used (kb):     1114824.
                   Average memory used (kb):           0.
  
                          Minor page faults:        72222
                          Major page faults:           67
                 Voluntary context switches:          560
