 running on   64 total cores
 distrk:  each k-point on   64 cores,    1 groups
 distr:  one band on    4 cores,   16 groups
 using from now: INCAR     
 vasp.5.4.4.18Apr17-6-g9f103f2a35 (build Nov 22 2021 14:44:17) complex          
  
 POSCAR found type information on POSCAR  Li Co O 
 POSCAR found :  3 types and      42 ions
 scaLAPACK will be used
 LDA part: xc-table for Pade appr. of Perdew
 generate k-points for:    6    6    2
 POSCAR, INCAR and KPOINTS ok, starting setup
 FFT: planning ...
 WAVECAR not read
 entering main loop
       N       E                     dE             d eps       ncg     rms          ort
DAV:   1     0.355697627878E+04    0.35570E+04   -0.14043E+05  5760   0.227E+03
DAV:   2     0.415895255597E+03   -0.31411E+04   -0.29009E+04  5760   0.559E+02
DAV:   3    -0.215842818236E+03   -0.63174E+03   -0.56537E+03  5760   0.259E+02
DAV:   4    -0.267965432504E+03   -0.52123E+02   -0.51049E+02  5760   0.768E+01
DAV:   5    -0.269599237948E+03   -0.16338E+01   -0.16314E+01  5760   0.135E+01
 gam= 0.000 g(H,U,f)=  0.170E+04 0.110E+04 0.177E+04 ort(H,U,f) = 0.000E+00 0.000E+00 0.000E+00
SDA:   6     0.109928065989E+03    0.37953E+03   -0.16314E+01  5760   0.457E+04 0.000E+00
 gam= 0.000 trial= 0.400  step= 0.080 mean= 0.400
 gam= 1.478 g(H,U,f)=  0.980E+03 0.152E+04 0.426E+04 ort(H,U,f) = 0.854E+03 0.288E+02-0.148E+04
CGA:   7     0.361608000133E+02   -0.73767E+02   -0.18246E+03  5760   0.676E+04-0.593E+03
 gam= 1.478 trial= 0.384  step= 0.083 mean= 0.384
 gam= 0.565 g(H,U,f)=  0.259E+03 0.190E+04 0.166E+04 ort(H,U,f) = 0.362E+03 0.128E+03-0.511E+03
CGA:   8    -0.126666379679E+03   -0.16283E+03   -0.24400E+03  5760   0.382E+04-0.219E+02
 gam= 0.565 trial= 0.369  step= 0.057 mean= 0.369
 gam= 0.277 g(H,U,f)=  0.202E+03 0.535E+03 0.319E+03 ort(H,U,f) =-0.348E+03-0.725E+03-0.445E+03
CGA:   9    -0.163141701360E+03   -0.36475E+02   -0.10870E+03  5760   0.106E+04-0.152E+04
 gam= 0.277 trial= 0.353  step= 0.110 mean= 0.353
 gam= 0.334 g(H,U,f)=  0.202E+03 0.140E+03 0.963E+01 ort(H,U,f) =-0.295E+02-0.179E+03-0.127E+02
CGA:  10    -0.174291988977E+03   -0.11150E+02   -0.35106E+02  5760   0.352E+03-0.221E+03
 gam= 0.334 trial= 0.341  step= 0.194 mean= 0.341
 gam= 0.577 g(H,U,f)=  0.604E+02 0.117E+03 0.263E+02 ort(H,U,f) = 0.639E+02-0.440E+02-0.665E+01
CGA:  11    -0.202457510630E+03   -0.28166E+02   -0.27070E+02  5760   0.203E+03 0.133E+02
 gam= 0.577 trial= 0.334  step= 0.091 mean= 0.334
 gam= 0.250 g(H,U,f)=  0.152E+02 0.307E+02 0.508E+01 ort(H,U,f) = 0.291E+02-0.342E+02-0.902E+01
CGA:  12    -0.211370094952E+03   -0.89126E+01   -0.95951E+01  5760   0.510E+02-0.141E+02
 gam= 0.250 trial= 0.322  step= 0.115 mean= 0.322
 gam= 0.454 g(H,U,f)=  0.530E+01 0.153E+02 0.261E+01 ort(H,U,f) = 0.563E+01-0.101E+02-0.146E+01
CGA:  13    -0.213552353057E+03   -0.21823E+01   -0.27254E+01  5760   0.232E+02-0.598E+01
 gam= 0.454 trial= 0.311  step= 0.151 mean= 0.311
 gam= 0.679 g(H,U,f)=  0.315E+01 0.109E+02 0.167E+01 ort(H,U,f) = 0.230E+01-0.175E+01-0.117E+01
CGA:  14    -0.215038981813E+03   -0.14866E+01   -0.15425E+01  5760   0.157E+02-0.620E+00
 gam= 0.679 trial= 0.303  step= 0.138 mean= 0.303
 gam= 0.445 g(H,U,f)=  0.152E+01 0.490E+01 0.574E+00 ort(H,U,f) = 0.692E+00-0.122E+01-0.271E+00
CGA:  15    -0.215993023322E+03   -0.95404E+00   -0.10537E+01  5760   0.700E+01-0.797E+00
 gam= 0.445 trial= 0.295  step= 0.144 mean= 0.295
 gam= 0.640 g(H,U,f)=  0.107E+01 0.306E+01 0.346E+00 ort(H,U,f) = 0.719E+00-0.556E+00-0.146E+00
CGA:  16    -0.216457152346E+03   -0.46413E+00   -0.47939E+00  5760   0.448E+01 0.167E-01
 gam= 0.640 trial= 0.288  step= 0.169 mean= 0.288
 gam= 0.465 g(H,U,f)=  0.655E+00 0.133E+01 0.985E-01 ort(H,U,f) = 0.715E-01-0.509E-01-0.207E-01
CGA:  17    -0.216815310647E+03   -0.35816E+00   -0.37851E+00  5760   0.208E+01-0.544E-04
 gam= 0.465 trial= 0.282  step= 0.167 mean= 0.282
 gam= 0.812 g(H,U,f)=  0.344E+00 0.123E+01 0.113E+00 ort(H,U,f) = 0.104E+00-0.890E-01-0.232E-01
CGA:  18    -0.216980637895E+03   -0.16533E+00   -0.17397E+00  5760   0.169E+01-0.769E-02
 gam= 0.812 trial= 0.276  step= 0.198 mean= 0.276
 gam= 0.668 g(H,U,f)=  0.264E+00 0.819E+00 0.456E-01 ort(H,U,f) =-0.178E+00 0.221E+00-0.247E-01
CGA:  19    -0.217143726355E+03   -0.16309E+00   -0.16682E+00  5760   0.113E+01 0.179E-01
 gam= 0.668 trial= 0.272  step= 0.198 mean= 0.272
 gam= 0.685 g(H,U,f)=  0.232E+00 0.491E+00 0.493E-01 ort(H,U,f) =-0.170E+00 0.186E+00-0.208E-01
CGA:  20    -0.217255070814E+03   -0.11134E+00   -0.11298E+00  5760   0.773E+00-0.517E-02
 gam= 0.685 trial= 0.268  step= 0.216 mean= 0.268
 gam= 1.000 g(H,U,f)=  0.170E+00 0.564E+00 0.381E-01 ort(H,U,f) =-0.391E-01 0.586E-01-0.176E-01
CGA:  21    -0.217338040333E+03   -0.82970E-01   -0.83054E-01  5760   0.772E+00 0.183E-02
 gam= 1.000 trial= 0.266  step= 0.288 mean= 0.266
 gam= 0.935 g(H,U,f)=  0.168E+00 0.469E+00 0.857E-01 ort(H,U,f) =-0.119E+00 0.165E+00-0.103E-01
CGA:  22    -0.217450675985E+03   -0.11264E+00   -0.11160E+00  5760   0.722E+00 0.357E-01
 gam= 0.935 trial= 0.267  step= 0.290 mean= 0.267
 gam= 1.565 g(H,U,f)=  0.278E+00 0.698E+00 0.153E+00 ort(H,U,f) =-0.870E-01 0.170E+00-0.901E-01
CGA:  23    -0.217560306721E+03   -0.10963E+00   -0.10949E+00  5760   0.113E+01-0.695E-02
 gam= 1.565 trial= 0.268  step= 0.298 mean= 0.268
 gam= 0.928 g(H,U,f)=  0.423E+00 0.544E+00 0.810E-01 ort(H,U,f) =-0.143E+00 0.339E-01 0.103E+00
CGA:  24    -0.217726590960E+03   -0.16628E+00   -0.16649E+00  5760   0.105E+01-0.620E-02
 gam= 0.928 trial= 0.269  step= 0.367 mean= 0.269
 gam= 0.813 g(H,U,f)=  0.345E+00 0.486E+00 0.210E-01 ort(H,U,f) =-0.188E+00 0.230E+00 0.366E-01
CGA:  25    -0.217924135231E+03   -0.19754E+00   -0.19142E+00  5760   0.852E+00 0.791E-01
 gam= 0.813 trial= 0.274  step= 0.366 mean= 0.274
 gam= 1.234 g(H,U,f)=  0.511E+00 0.530E+00 0.101E-01 ort(H,U,f) =-0.245E+00 0.302E+00-0.889E-03
CGA:  26    -0.218095246526E+03   -0.17111E+00   -0.16752E+00  5760   0.105E+01 0.556E-01
 gam= 1.234 trial= 0.279  step= 0.408 mean= 0.279
 gam= 1.131 g(H,U,f)=  0.614E+00 0.553E+00 0.223E-01 ort(H,U,f) =-0.263E+00 0.337E+00-0.673E-02
CGA:  27    -0.218329816914E+03   -0.23457E+00   -0.22838E+00  5760   0.119E+01 0.672E-01
 gam= 1.131 trial= 0.285  step= 0.274 mean= 0.285
 gam= 1.354 g(H,U,f)=  0.407E+00 0.980E+00 0.223E+00 ort(H,U,f) =-0.182E+00 0.216E+00-0.441E-01
CGA:  28    -0.218503264830E+03   -0.17345E+00   -0.17331E+00  5760   0.161E+01-0.950E-02
 gam= 1.354 trial= 0.285  step= 0.111 mean= 0.285
 gam= 0.492 g(H,U,f)=  0.319E+00 0.413E+00 0.596E-01 ort(H,U,f) =-0.265E+00 0.342E+00-0.974E-01
CGA:  29    -0.218591296723E+03   -0.88032E-01   -0.88247E-01  5760   0.792E+00-0.202E-01
 gam= 0.492 trial= 0.276  step= 0.346 mean= 0.276
 gam= 0.754 g(H,U,f)=  0.301E+00 0.289E+00 0.749E-02 ort(H,U,f) =-0.136E+00 0.167E+00-0.264E-02
CGA:  30    -0.218727946509E+03   -0.13665E+00   -0.13518E+00  5760   0.597E+00 0.280E-01
 gam= 0.754 trial= 0.280  step= 0.378 mean= 0.280
 gam= 1.147 g(H,U,f)=  0.212E+00 0.333E+00 0.141E+00 ort(H,U,f) =-0.117E-01 0.340E-01 0.209E-01
CGA:  31    -0.218846446607E+03   -0.11850E+00   -0.11696E+00  5760   0.685E+00 0.431E-01
 gam= 1.147 trial= 0.284  step= 0.109 mean= 0.284
 gam= 0.746 g(H,U,f)=  0.174E+00 0.258E+00 0.788E-01 ort(H,U,f) = 0.666E-01 0.291E-01-0.126E+00
CGA:  32    -0.218885831564E+03   -0.39385E-01   -0.39925E-01  5760   0.511E+00-0.305E-01
 gam= 0.746 trial= 0.276  step= 0.271 mean= 0.276
 gam= 0.479 g(H,U,f)=  0.118E+00 0.121E+00 0.516E-02 ort(H,U,f) =-0.390E-01 0.303E-01-0.751E-02
CGA:  33    -0.218952033882E+03   -0.66202E-01   -0.66138E-01  5760   0.245E+00-0.163E-01
 gam= 0.479 trial= 0.275  step= 0.315 mean= 0.275
 gam= 1.761 g(H,U,f)=  0.971E-01 0.196E+00 0.138E+00 ort(H,U,f) = 0.432E-02 0.145E-01 0.121E-01
CGA:  34    -0.218989591047E+03   -0.37557E-01   -0.37309E-01  5760   0.431E+00 0.309E-01
 gam= 1.761 trial= 0.277  step= 0.109 mean= 0.277
 gam= 0.423 g(H,U,f)=  0.778E-01 0.889E-01 0.154E-01 ort(H,U,f) =-0.205E-01 0.407E-01-0.583E-01
CGA:  35    -0.219012536150E+03   -0.22945E-01   -0.26529E-01  5760   0.182E+00-0.381E-01
 gam= 0.423 trial= 0.269  step= 0.414 mean= 0.269
 gam= 0.809 g(H,U,f)=  0.647E-01 0.692E-01 0.134E-01 ort(H,U,f) =-0.418E-01 0.247E-01-0.125E-01
CGA:  36    -0.219045084686E+03   -0.32549E-01   -0.34383E-01  5760   0.147E+00-0.296E-01
 gam= 0.809 trial= 0.276  step= 0.289 mean= 0.276
 gam= 0.000 g(H,U,f)=  0.591E-01 0.843E-01 0.456E-01 ort(H,U,f) =-0.190E-01 0.258E-01-0.298E-02
SDA:  37    -0.219062929328E+03   -0.17845E-01   -0.17804E-01  5760   0.189E+00 0.378E-02
 gam= 0.000 trial= 0.277  step= 0.108 mean= 0.277
 gam= 0.757 g(H,U,f)=  0.375E-01 0.615E-01 0.441E-01 ort(H,U,f) = 0.343E-01 0.644E-03-0.324E-01
CGA:  38    -0.219073230626E+03   -0.10301E-01   -0.10173E-01  5760   0.143E+00 0.256E-02
 gam= 0.757 trial= 0.268  step= 0.317 mean= 0.268
 gam= 0.706 g(H,U,f)=  0.286E-01 0.547E-01 0.178E-01 ort(H,U,f) =-0.252E-02 0.255E-01 0.859E-02
CGA:  39    -0.219097271709E+03   -0.24041E-01   -0.23017E-01  5760   0.101E+00 0.315E-01
 gam= 0.706 trial= 0.271  step= 0.158 mean= 0.271
 gam= 1.500 g(H,U,f)=  0.278E-01 0.690E-01 0.548E-01 ort(H,U,f) = 0.588E-02 0.239E-01-0.395E-01
CGA:  40    -0.219106325099E+03   -0.90534E-02   -0.97197E-02  5760   0.152E+00-0.966E-02
 gam= 1.500 trial= 0.265  step= 0.260 mean= 0.265
 gam= 0.436 g(H,U,f)=  0.262E-01 0.293E-01 0.106E-01 ort(H,U,f) =-0.457E-01 0.329E-01-0.212E-02
CGA:  41    -0.219124223093E+03   -0.17898E-01   -0.17848E-01  5760   0.661E-01-0.150E-01
 gam= 0.436 trial= 0.265  step= 0.113 mean= 0.265
 gam= 0.959 g(H,U,f)=  0.235E-01 0.264E-01 0.135E-01 ort(H,U,f) =-0.160E-02 0.134E-01-0.111E-01
CGA:  42    -0.219127651382E+03   -0.34283E-02   -0.33622E-02  5760   0.634E-01 0.752E-03
 gam= 0.959 trial= 0.257  step= 0.245 mean= 0.257
 gam= 0.590 g(H,U,f)=  0.146E-01 0.157E-01 0.713E-02 ort(H,U,f) =-0.931E-02 0.102E-01 0.193E-02
CGA:  43    -0.219135486603E+03   -0.78352E-02   -0.78561E-02  5760   0.374E-01 0.287E-02
 gam= 0.590 trial= 0.257  step= 0.115 mean= 0.257
 gam= 0.983 g(H,U,f)=  0.142E-01 0.144E-01 0.812E-02 ort(H,U,f) = 0.278E-02 0.397E-02-0.863E-02
CGA:  44    -0.219137595594E+03   -0.21090E-02   -0.22504E-02  5760   0.367E-01-0.189E-02
 gam= 0.983 trial= 0.250  step= 0.321 mean= 0.250
 gam= 0.710 g(H,U,f)=  0.849E-02 0.115E-01 0.606E-02 ort(H,U,f) =-0.452E-02 0.324E-02-0.152E-03
CGA:  45    -0.219143140011E+03   -0.55444E-02   -0.56052E-02  5760   0.261E-01-0.144E-02
 gam= 0.710 trial= 0.253  step= 0.094 mean= 0.253
 gam= 0.641 g(H,U,f)=  0.694E-02 0.731E-02 0.247E-02 ort(H,U,f) = 0.103E-02 0.235E-02-0.341E-02
CGA:  46    -0.219144325091E+03   -0.11851E-02   -0.11807E-02  5760   0.167E-01-0.335E-04
 gam= 0.641 trial= 0.245  step= 0.257 mean= 0.245
 gam= 0.849 g(H,U,f)=  0.418E-02 0.719E-02 0.283E-02 ort(H,U,f) =-0.223E-02 0.308E-02-0.178E-03
CGA:  47    -0.219146479433E+03   -0.21543E-02   -0.21482E-02  5760   0.142E-01 0.674E-03
 gam= 0.849 trial= 0.246  step= 0.110 mean= 0.246
 gam= 0.942 g(H,U,f)=  0.456E-02 0.591E-02 0.290E-02 ort(H,U,f) =-0.799E-03 0.278E-02-0.287E-02
CGA:  48    -0.219147270282E+03   -0.79085E-03   -0.81064E-03  5760   0.134E-01-0.887E-03
 gam= 0.942 trial= 0.239  step= 0.331 mean= 0.239
 gam= 1.536 g(H,U,f)=  0.405E-02 0.932E-02 0.718E-02 ort(H,U,f) =-0.312E-02 0.350E-02 0.155E-03
CGA:  49    -0.219149369967E+03   -0.20997E-02   -0.20737E-02  5760   0.205E-01 0.539E-03
 gam= 1.536 trial= 0.244  step= 0.088 mean= 0.244
 gam= 0.442 g(H,U,f)=  0.412E-02 0.437E-02 0.600E-03 ort(H,U,f) =-0.516E-02 0.611E-02-0.192E-02
CGA:  50    -0.219150245445E+03   -0.87548E-03   -0.94020E-03  5760   0.909E-02-0.974E-03
 gam= 0.442 trial= 0.236  step= 0.450 mean= 0.236
 gam= 2.505 g(H,U,f)=  0.641E-02 0.985E-02 0.651E-02 ort(H,U,f) =-0.244E-02 0.373E-02-0.122E-02
CGA:  51    -0.219152199951E+03   -0.19545E-02   -0.19461E-02  5760   0.228E-01 0.754E-04
 gam= 2.505 trial= 0.247  step= 0.113 mean= 0.247
 gam= 0.677 g(H,U,f)=  0.787E-02 0.615E-02 0.139E-02 ort(H,U,f) =-0.539E-02 0.639E-02-0.163E-02
CGA:  52    -0.219153438671E+03   -0.12387E-02   -0.12954E-02  5760   0.154E-01-0.629E-03
 gam= 0.677 trial= 0.240  step= 0.423 mean= 0.240
 gam= 1.671 g(H,U,f)=  0.716E-02 0.108E-01 0.781E-02 ort(H,U,f) =-0.392E-02 0.312E-02 0.664E-03
CGA:  53    -0.219156593281E+03   -0.31546E-02   -0.31661E-02  5760   0.257E-01-0.131E-03
 gam= 1.671 trial= 0.249  step= 0.105 mean= 0.249
 gam= 0.548 g(H,U,f)=  0.671E-02 0.566E-02 0.174E-02 ort(H,U,f) =-0.407E-02 0.616E-02-0.310E-02
CGA:  54    -0.219157872470E+03   -0.12792E-02   -0.13400E-02  5760   0.141E-01-0.102E-02
 gam= 0.548 trial= 0.242  step= 0.358 mean= 0.242
 gam= 1.119 g(H,U,f)=  0.551E-02 0.670E-02 0.358E-02 ort(H,U,f) =-0.178E-02 0.435E-02-0.115E-02
CGA:  55    -0.219160406314E+03   -0.25338E-02   -0.24251E-02  5760   0.158E-01 0.143E-02
 gam= 1.119 trial= 0.248  step= 0.129 mean= 0.248
 gam= 0.959 g(H,U,f)=  0.480E-02 0.653E-02 0.381E-02 ort(H,U,f) =-0.420E-03 0.216E-02-0.297E-02
CGA:  56    -0.219161507921E+03   -0.11016E-02   -0.11236E-02  5760   0.151E-01-0.123E-02
 gam= 0.959 trial= 0.242  step= 0.343 mean= 0.242
 gam= 1.142 g(H,U,f)=  0.475E-02 0.801E-02 0.454E-02 ort(H,U,f) =-0.411E-02 0.372E-02 0.953E-03
CGA:  57    -0.219163940608E+03   -0.24327E-02   -0.23959E-02  5760   0.173E-01 0.559E-03
 gam= 1.142 trial= 0.247  step= 0.114 mean= 0.247
 gam= 0.698 g(H,U,f)=  0.466E-02 0.533E-02 0.208E-02 ort(H,U,f) =-0.305E-02 0.548E-02-0.350E-02
CGA:  58    -0.219164911142E+03   -0.97053E-03   -0.10202E-02  5760   0.121E-01-0.107E-02
 gam= 0.698 trial= 0.240  step= 0.400 mean= 0.240
 gam= 1.295 g(H,U,f)=  0.585E-02 0.662E-02 0.316E-02 ort(H,U,f) =-0.280E-02 0.416E-02-0.679E-03
CGA:  59    -0.219167239949E+03   -0.23288E-02   -0.22687E-02  5760   0.156E-01 0.681E-03
 gam= 1.295 trial= 0.248  step= 0.145 mean= 0.248
 gam= 1.061 g(H,U,f)=  0.593E-02 0.719E-02 0.348E-02 ort(H,U,f) =-0.142E-02 0.320E-02-0.252E-02
CGA:  60    -0.219168401529E+03   -0.11616E-02   -0.12004E-02  5760   0.166E-01-0.743E-03
 gam= 1.061 trial= 0.243  step= 0.331 mean= 0.243
 gam= 0.870 g(H,U,f)=  0.555E-02 0.601E-02 0.287E-02 ort(H,U,f) =-0.486E-02 0.387E-02 0.673E-03
CGA:  61    -0.219171001757E+03   -0.26002E-02   -0.26163E-02  5760   0.144E-01-0.323E-03
 gam= 0.870 trial= 0.247  step= 0.129 mean= 0.247
 gam= 0.859 g(H,U,f)=  0.552E-02 0.472E-02 0.215E-02 ort(H,U,f) =-0.101E-02 0.345E-02-0.294E-02
CGA:  62    -0.219171875378E+03   -0.87362E-03   -0.91379E-03  5760   0.124E-01-0.501E-03
 gam= 0.859 trial= 0.242  step= 0.370 mean= 0.242
 gam= 1.085 g(H,U,f)=  0.541E-02 0.573E-02 0.231E-02 ort(H,U,f) =-0.247E-02 0.287E-02-0.311E-03
CGA:  63    -0.219174092547E+03   -0.22172E-02   -0.22106E-02  5760   0.135E-01 0.865E-04
 gam= 1.085 trial= 0.248  step= 0.152 mean= 0.248
 gam= 1.007 g(H,U,f)=  0.509E-02 0.588E-02 0.257E-02 ort(H,U,f) =-0.817E-03 0.252E-02-0.185E-02
CGA:  64    -0.219175068381E+03   -0.97583E-03   -0.10269E-02  5760   0.135E-01-0.145E-03
 gam= 1.007 trial= 0.243  step= 0.299 mean= 0.243
 gam= 0.666 g(H,U,f)=  0.391E-02 0.435E-02 0.765E-03 ort(H,U,f) =-0.396E-02 0.344E-02 0.816E-04
CGA:  65    -0.219177059109E+03   -0.19907E-02   -0.20007E-02  5760   0.902E-02-0.436E-03
 gam= 0.666 trial= 0.246  step= 0.223 mean= 0.246
 gam= 1.760 g(H,U,f)=  0.429E-02 0.715E-02 0.443E-02 ort(H,U,f) =-0.722E-03 0.285E-02-0.215E-02
CGA:  66    -0.219178030603E+03   -0.97149E-03   -0.97512E-03  5760   0.159E-01-0.277E-04
 gam= 1.760 trial= 0.245  step= 0.270 mean= 0.245
 gam= 0.743 g(H,U,f)=  0.564E-02 0.512E-02 0.103E-02 ort(H,U,f) =-0.495E-02 0.540E-02 0.459E-03
CGA:  67    -0.219180176179E+03   -0.21456E-02   -0.21352E-02  5760   0.118E-01 0.911E-03
 gam= 0.743 trial= 0.246  step= 0.267 mean= 0.246
 gam= 0.000 g(H,U,f)=  0.553E-02 0.846E-02 0.509E-02 ort(H,U,f) =-0.175E-02 0.422E-02-0.185E-02
SDA:  68    -0.219181870930E+03   -0.16948E-02   -0.16669E-02  5760   0.191E-01 0.619E-03
 gam= 0.000 trial= 0.247  step= 0.103 mean= 0.247
 gam= 0.330 g(H,U,f)=  0.249E-02 0.279E-02 0.102E-02 ort(H,U,f) = 0.220E-02-0.552E-03-0.216E-02
CGA:  69    -0.219182822773E+03   -0.95184E-03   -0.98158E-03  5760   0.630E-02-0.505E-03
 gam= 0.330 trial= 0.240  step= 0.419 mean= 0.240
 gam= 0.732 g(H,U,f)=  0.206E-02 0.251E-02 0.455E-04 ort(H,U,f) =-0.521E-03 0.900E-03-0.536E-04
CGA:  70    -0.219184158042E+03   -0.13353E-02   -0.12861E-02  5760   0.461E-02 0.326E-03
 gam= 0.732 trial= 0.249  step= 0.506 mean= 0.249
 gam= 0.788 g(H,U,f)=  0.186E-02 0.160E-02 0.170E-03 ort(H,U,f) =-0.155E-02 0.147E-02-0.283E-04
CGA:  71    -0.219185370222E+03   -0.12122E-02   -0.12271E-02  5760   0.363E-02-0.108E-03
 gam= 0.788 trial= 0.262  step= 0.389 mean= 0.262
 gam= 2.306 g(H,U,f)=  0.187E-02 0.380E-02 0.272E-02 ort(H,U,f) =-0.591E-03 0.105E-02-0.347E-03
CGA:  72    -0.219186063160E+03   -0.69294E-03   -0.69030E-03  5760   0.838E-02 0.110E-03
 gam= 2.306 trial= 0.268  step= 0.188 mean= 0.268
 gam= 0.468 g(H,U,f)=  0.205E-02 0.151E-02 0.354E-03 ort(H,U,f) =-0.215E-02 0.260E-02-0.720E-03
CGA:  73    -0.219186842137E+03   -0.77898E-03   -0.81011E-03  5760   0.392E-02-0.270E-03
 gam= 0.468 trial= 0.264  step= 0.517 mean= 0.264
 gam= 1.002 g(H,U,f)=  0.181E-02 0.180E-02 0.318E-03 ort(H,U,f) =-0.832E-03 0.103E-02-0.966E-04
CGA:  74    -0.219187842055E+03   -0.99992E-03   -0.98092E-03  5760   0.393E-02 0.105E-03
 gam= 1.002 trial= 0.277  step= 0.273 mean= 0.277
 gam= 2.033 g(H,U,f)=  0.169E-02 0.357E-02 0.273E-02 ort(H,U,f) =-0.704E-04 0.659E-03-0.636E-03
CGA:  75    -0.219188391976E+03   -0.54992E-03   -0.54992E-03  5760   0.799E-02-0.474E-04
 gam= 2.033 trial= 0.276  step= 0.223 mean= 0.276
 gam= 0.494 g(H,U,f)=  0.191E-02 0.192E-02 0.119E-03 ort(H,U,f) =-0.178E-02 0.193E-02 0.920E-04
CGA:  76    -0.219189250784E+03   -0.85881E-03   -0.88043E-03  5760   0.394E-02 0.244E-03
 gam= 0.494 trial= 0.274  step= 0.347 mean= 0.274
 gam= 2.923 g(H,U,f)=  0.196E-02 0.555E-02 0.402E-02 ort(H,U,f) =-0.236E-03 0.132E-02-0.130E-02
CGA:  77    -0.219189952837E+03   -0.70205E-03   -0.70620E-03  5760   0.115E-01-0.217E-03
 gam= 2.923 trial= 0.277  step= 0.163 mean= 0.277
 gam= 0.463 g(H,U,f)=  0.275E-02 0.240E-02 0.181E-03 ort(H,U,f) =-0.413E-02 0.427E-02-0.881E-04
CGA:  78    -0.219190819413E+03   -0.86658E-03   -0.88972E-03  5760   0.534E-02 0.485E-04
 gam= 0.463 trial= 0.272  step= 0.215 mean= 0.272
 gam= 2.120 g(H,U,f)=  0.274E-02 0.509E-02 0.349E-02 ort(H,U,f) =-0.642E-03 0.133E-02-0.720E-03
CGA:  79    -0.219191395052E+03   -0.57564E-03   -0.57584E-03  5760   0.113E-01-0.328E-04
 gam= 2.120 trial= 0.269  step= 0.192 mean= 0.269
 gam= 0.671 g(H,U,f)=  0.359E-02 0.332E-02 0.677E-03 ort(H,U,f) =-0.410E-02 0.355E-02 0.679E-03
CGA:  80    -0.219192453143E+03   -0.10581E-02   -0.10812E-02  5760   0.759E-02 0.132E-03
 gam= 0.671 trial= 0.265  step= 0.151 mean= 0.265
 gam= 1.607 g(H,U,f)=  0.374E-02 0.516E-02 0.330E-02 ort(H,U,f) =-0.411E-03 0.261E-02-0.243E-02
CGA:  81    -0.219193045777E+03   -0.59263E-03   -0.57938E-03  5760   0.122E-01-0.229E-03
 gam= 1.607 trial= 0.259  step= 0.203 mean= 0.259
 gam= 1.117 g(H,U,f)=  0.328E-02 0.641E-02 0.394E-02 ort(H,U,f) =-0.229E-02 0.438E-02-0.159E-02
CGA:  82    -0.219194226320E+03   -0.11805E-02   -0.12022E-02  5760   0.136E-01 0.498E-03
 gam= 1.117 trial= 0.257  step= 0.082 mean= 0.257
 gam= 0.487 g(H,U,f)=  0.331E-02 0.273E-02 0.590E-03 ort(H,U,f) =-0.261E-02 0.311E-02-0.121E-02
CGA:  83    -0.219194796954E+03   -0.57063E-03   -0.58408E-03  5760   0.664E-02-0.708E-03
 gam= 0.487 trial= 0.248  step= 0.230 mean= 0.248
 gam= 2.332 g(H,U,f)=  0.285E-02 0.722E-02 0.542E-02 ort(H,U,f) =-0.923E-04 0.571E-03-0.254E-03
CGA:  84    -0.219195518701E+03   -0.72175E-03   -0.72360E-03  5760   0.155E-01 0.225E-03
 gam= 2.332 trial= 0.247  step= 0.104 mean= 0.247
 gam= 0.355 g(H,U,f)=  0.255E-02 0.257E-02 0.366E-03 ort(H,U,f) =-0.262E-02 0.179E-02 0.392E-03
CGA:  85    -0.219196301906E+03   -0.78320E-03   -0.83473E-03  5760   0.549E-02-0.443E-03
 gam= 0.355 trial= 0.240  step= 0.141 mean= 0.240
 gam= 1.689 g(H,U,f)=  0.219E-02 0.409E-02 0.299E-02 ort(H,U,f) = 0.589E-03 0.950E-03-0.162E-02
CGA:  86    -0.219196682464E+03   -0.38056E-03   -0.37537E-03  5760   0.927E-02-0.856E-04
 gam= 1.689 trial= 0.235  step= 0.148 mean= 0.235
 gam= 0.818 g(H,U,f)=  0.164E-02 0.357E-02 0.237E-02 ort(H,U,f) =-0.117E-02 0.214E-02-0.354E-03
CGA:  87    -0.219197314411E+03   -0.63195E-03   -0.67682E-03  5760   0.759E-02 0.611E-03
 gam= 0.818 trial= 0.231  step= 0.074 mean= 0.231
 gam= 0.483 g(H,U,f)=  0.168E-02 0.181E-02 0.168E-03 ort(H,U,f) =-0.111E-02 0.122E-02-0.654E-03
CGA:  88    -0.219197589300E+03   -0.27489E-03   -0.29939E-03  5760   0.366E-02-0.547E-03
 gam= 0.483 trial= 0.223  step= 0.237 mean= 0.223
 gam= 2.730 g(H,U,f)=  0.166E-02 0.499E-02 0.334E-02 ort(H,U,f) =-0.247E-03 0.697E-03-0.736E-03
CGA:  89    -0.219197990937E+03   -0.40164E-03   -0.40300E-03  5760   0.999E-02-0.287E-03
 gam= 2.730 trial= 0.223  step= 0.102 mean= 0.223
 gam= 0.470 g(H,U,f)=  0.213E-02 0.220E-02 0.360E-03 ort(H,U,f) =-0.329E-02 0.285E-02 0.484E-03
CGA:  90    -0.219198464199E+03   -0.47326E-03   -0.46940E-03  5760   0.470E-02 0.386E-04
 gam= 0.470 trial= 0.217  step= 0.115 mean= 0.217
 gam= 1.476 g(H,U,f)=  0.210E-02 0.307E-02 0.176E-02 ort(H,U,f) =-0.328E-03 0.135E-02-0.844E-03
CGA:  91    -0.219198732225E+03   -0.26803E-03   -0.27019E-03  5760   0.693E-02 0.179E-03
 gam= 1.476 trial= 0.212  step= 0.155 mean= 0.212
 gam= 1.254 g(H,U,f)=  0.196E-02 0.382E-02 0.291E-02 ort(H,U,f) =-0.153E-02 0.248E-02 0.126E-03
CGA:  92    -0.219199252395E+03   -0.52017E-03   -0.55651E-03  5760   0.869E-02 0.107E-02
 gam= 1.254 trial= 0.209  step= 0.076 mean= 0.209
 gam= 0.443 g(H,U,f)=  0.226E-02 0.149E-02 0.930E-04 ort(H,U,f) =-0.251E-02 0.225E-02-0.595E-03
CGA:  93    -0.219199578345E+03   -0.32595E-03   -0.38251E-03  5760   0.385E-02-0.853E-03
 gam= 0.443 trial= 0.203  step= 0.228 mean= 0.203
 gam= 3.142 g(H,U,f)=  0.225E-02 0.574E-02 0.410E-02 ort(H,U,f) =-0.330E-04 0.672E-03-0.141E-02
CGA:  94    -0.219199968863E+03   -0.39052E-03   -0.39534E-03  5760   0.121E-01-0.775E-03
 gam= 3.142 trial= 0.204  step= 0.114 mean= 0.204
 gam= 0.565 g(H,U,f)=  0.250E-02 0.300E-02 0.133E-02 ort(H,U,f) =-0.323E-02 0.277E-02 0.873E-04
CGA:  95    -0.219200569946E+03   -0.60108E-03   -0.55121E-03  5760   0.683E-02-0.365E-03
 gam= 0.565 trial= 0.199  step= 0.071 mean= 0.199
 gam= 0.626 g(H,U,f)=  0.223E-02 0.164E-02 0.406E-03 ort(H,U,f) =-0.376E-03 0.976E-03-0.395E-03
CGA:  96    -0.219200807868E+03   -0.23792E-03   -0.23584E-03  5760   0.428E-02 0.205E-03
 gam= 0.626 trial= 0.193  step= 0.167 mean= 0.193
 gam= 1.875 g(H,U,f)=  0.144E-02 0.373E-02 0.285E-02 ort(H,U,f) = 0.351E-03 0.489E-03-0.132E-03
CGA:  97    -0.219201167358E+03   -0.35949E-03   -0.36718E-03  5760   0.802E-02 0.708E-03
 gam= 1.875 trial= 0.192  step= 0.091 mean= 0.192
 gam= 0.380 g(H,U,f)=  0.146E-02 0.137E-02 0.216E-03 ort(H,U,f) =-0.161E-02 0.118E-02 0.200E-04
CGA:  98    -0.219201531385E+03   -0.36403E-03   -0.42484E-03  5760   0.304E-02-0.411E-03
 gam= 0.380 trial= 0.187  step= 0.122 mean= 0.187
 gam= 0.000 g(H,U,f)=  0.133E-02 0.229E-02 0.139E-02 ort(H,U,f) = 0.144E-03 0.500E-03-0.110E-02
SDA:  99    -0.219201711669E+03   -0.18028E-03   -0.17643E-03  5760   0.501E-02-0.459E-03
 gam= 0.000 trial= 0.183  step= 0.094 mean= 0.183
 gam= 0.341 g(H,U,f)=  0.482E-03 0.939E-03 0.289E-03 ort(H,U,f) = 0.438E-03 0.657E-04-0.498E-03
CGA: 100    -0.219201922874E+03   -0.21121E-03   -0.23613E-03  5760   0.171E-02 0.611E-05
 gam= 0.341 trial= 0.179  step= 0.263 mean= 0.179
 gam= 0.816 g(H,U,f)=  0.525E-03 0.785E-03 0.851E-04 ort(H,U,f) =-0.235E-03 0.292E-03-0.450E-04
CGA: 101    -0.219202147678E+03   -0.22480E-03   -0.22509E-03  5760   0.140E-02 0.116E-04
 gam= 0.816 trial= 0.183  step= 0.586 mean= 0.183
 gam= 2.378 g(H,U,f)=  0.678E-03 0.152E-02 0.112E-02 ort(H,U,f) =-0.279E-03 0.482E-03-0.199E-03
CGA: 102    -0.219202583757E+03   -0.43608E-03   -0.41143E-03  5760   0.332E-02 0.482E-05
 gam= 2.378 trial= 0.203  step= 0.134 mean= 0.203
 gam= 0.422 g(H,U,f)=  0.635E-03 0.557E-03 0.209E-03 ort(H,U,f) =-0.775E-03 0.102E-02-0.225E-03
CGA: 103    -0.219202811133E+03   -0.22738E-03   -0.22362E-03  5760   0.140E-02 0.234E-04
 gam= 0.422 trial= 0.200  step= 0.321 mean= 0.200
 gam= 0.783 g(H,U,f)=  0.445E-03 0.431E-03 0.221E-03 ort(H,U,f) =-0.149E-03 0.374E-03-0.841E-04
CGA: 104    -0.219203054454E+03   -0.24332E-03   -0.22661E-03  5760   0.110E-02 0.141E-03
 gam= 0.783 trial= 0.206  step= 0.224 mean= 0.206
 gam= 1.477 g(H,U,f)=  0.365E-03 0.756E-03 0.500E-03 ort(H,U,f) = 0.257E-04 0.202E-03-0.217E-03
CGA: 105    -0.219203189400E+03   -0.13495E-03   -0.13524E-03  5760   0.162E-02 0.105E-04
 gam= 1.477 trial= 0.207  step= 0.230 mean= 0.207
 gam= 0.362 g(H,U,f)=  0.335E-03 0.241E-03 0.113E-04 ort(H,U,f) =-0.284E-03 0.434E-03-0.147E-04
CGA: 106    -0.219203380261E+03   -0.19086E-03   -0.18788E-03  5760   0.587E-03 0.135E-03
 gam= 0.362 trial= 0.208  step= 0.535 mean= 0.208
 gam= 1.075 g(H,U,f)=  0.328E-03 0.287E-03 0.149E-04 ort(H,U,f) =-0.169E-03 0.161E-03 0.107E-04
CGA: 107    -0.219203548465E+03   -0.16820E-03   -0.17012E-03  5760   0.631E-03 0.287E-05
 gam= 1.075 trial= 0.224  step= 0.417 mean= 0.224
 gam= 1.879 g(H,U,f)=  0.276E-03 0.514E-03 0.395E-03 ort(H,U,f) =-0.133E-03 0.198E-03-0.744E-04
CGA: 108    -0.219203689119E+03   -0.14065E-03   -0.13210E-03  5760   0.119E-02-0.913E-05
 gam= 1.879 trial= 0.234  step= 0.171 mean= 0.234
 gam= 0.745 g(H,U,f)=  0.346E-03 0.409E-03 0.127E-03 ort(H,U,f) =-0.278E-03 0.461E-03-0.195E-03
CGA: 109    -0.219203790075E+03   -0.10096E-03   -0.99816E-04  5760   0.883E-03-0.115E-04
 gam= 0.745 trial= 0.231  step= 0.401 mean= 0.231
 gam= 1.045 g(H,U,f)=  0.384E-03 0.389E-03 0.150E-03 ort(H,U,f) =-0.279E-03 0.259E-03 0.148E-04
CGA: 110    -0.219203965332E+03   -0.17526E-03   -0.17525E-03  5760   0.923E-03-0.505E-05
 gam= 1.045 trial= 0.239  step= 0.232 mean= 0.239
 gam= 1.478 g(H,U,f)=  0.392E-03 0.564E-03 0.408E-03 ort(H,U,f) =-0.744E-04 0.292E-03-0.213E-03
CGA: 111    -0.219204071705E+03   -0.10637E-03   -0.10643E-03  5760   0.136E-02 0.462E-05
 gam= 1.478 trial= 0.239  step= 0.267 mean= 0.239
 gam= 0.449 g(H,U,f)=  0.383E-03 0.211E-03 0.171E-04 ort(H,U,f) =-0.226E-03 0.365E-03 0.276E-04
CGA: 112    -0.219204258220E+03   -0.18651E-03   -0.18265E-03  5760   0.612E-03 0.166E-03
 gam= 0.449 trial= 0.240  step= 0.446 mean= 0.240
 gam= 0.796 g(H,U,f)=  0.258E-03 0.200E-03 0.286E-04 ort(H,U,f) =-0.906E-04 0.131E-03-0.433E-04
CGA: 113    -0.219204412920E+03   -0.15470E-03   -0.15286E-03  5760   0.487E-03-0.273E-05
 gam= 0.796 trial= 0.251  step= 0.413 mean= 0.251
 gam= 2.269 g(H,U,f)=  0.222E-03 0.519E-03 0.364E-03 ort(H,U,f) =-0.346E-04 0.199E-04-0.245E-04
CGA: 114    -0.219204510701E+03   -0.97781E-04   -0.10003E-03  5760   0.110E-02-0.392E-04
 gam= 2.269 trial= 0.259  step= 0.142 mean= 0.259
 gam= 0.344 g(H,U,f)=  0.201E-03 0.171E-03 0.803E-05 ort(H,U,f) =-0.178E-03 0.201E-03-0.388E-04
CGA: 115    -0.219204580582E+03   -0.69881E-04   -0.71977E-04  5760   0.380E-03-0.159E-04
 gam= 0.344 trial= 0.253  step= 0.358 mean= 0.253
 gam= 0.812 g(H,U,f)=  0.114E-03 0.140E-03 0.543E-04 ort(H,U,f) =-0.543E-04 0.791E-04-0.245E-04
CGA: 116    -0.219204647672E+03   -0.67090E-04   -0.67069E-04  5760   0.308E-03 0.215E-06
 gam= 0.812 trial= 0.258  step= 0.158 mean= 0.258
 gam= 1.096 g(H,U,f)=  0.111E-03 0.156E-03 0.703E-04 ort(H,U,f) =-0.101E-04 0.428E-04-0.390E-04
CGA: 117    -0.219204671997E+03   -0.24325E-04   -0.24415E-04  5760   0.338E-03-0.633E-05
 gam= 1.096 trial= 0.253  step= 0.303 mean= 0.253
 gam= 0.606 g(H,U,f)=  0.102E-03 0.877E-04 0.149E-04 ort(H,U,f) =-0.738E-04 0.794E-04 0.600E-05
CGA: 118    -0.219204722851E+03   -0.50854E-04   -0.50215E-04  5760   0.205E-03 0.116E-04
 gam= 0.606 trial= 0.256  step= 0.206 mean= 0.256
 gam= 1.727 g(H,U,f)=  0.901E-04 0.154E-03 0.109E-03 ort(H,U,f) = 0.793E-05 0.373E-04-0.524E-04
CGA: 119    -0.219204744717E+03   -0.21866E-04   -0.21851E-04  5760   0.354E-03-0.716E-05
 gam= 1.727 trial= 0.253  step= 0.189 mean= 0.253
 gam= 0.423 g(H,U,f)=  0.733E-04 0.593E-04 0.169E-04 ort(H,U,f) =-0.781E-04 0.871E-04 0.355E-05
CGA: 120    -0.219204776059E+03   -0.31342E-04   -0.32176E-04  5760   0.150E-03 0.125E-04
 gam= 0.423 trial= 0.250  step= 0.145 mean= 0.250
 gam= 1.361 g(H,U,f)=  0.677E-04 0.876E-04 0.481E-04 ort(H,U,f) = 0.662E-05 0.202E-04-0.318E-04
CGA: 121    -0.219204787064E+03   -0.11005E-04   -0.11211E-04  5760   0.203E-03-0.494E-05
 gam= 1.361 trial= 0.245  step= 0.281 mean= 0.245
 gam= 1.165 g(H,U,f)=  0.626E-04 0.117E-03 0.578E-04 ort(H,U,f) =-0.393E-04 0.474E-04 0.481E-05
CGA: 122    -0.219204814932E+03   -0.27868E-04   -0.27631E-04  5760   0.237E-03 0.129E-04
 gam= 1.165 trial= 0.247  step= 0.099 mean= 0.247
 gam= 0.535 g(H,U,f)=  0.553E-04 0.597E-04 0.119E-04 ort(H,U,f) =-0.374E-04 0.562E-04-0.272E-04
CGA: 123    -0.219204826313E+03   -0.11381E-04   -0.12442E-04  5760   0.127E-03-0.835E-05
 gam= 0.535 trial= 0.239  step= 0.312 mean= 0.239
 gam= 1.631 g(H,U,f)=  0.537E-04 0.929E-04 0.603E-04 ort(H,U,f) =-0.352E-04 0.355E-04-0.982E-05
CGA: 124    -0.219204845239E+03   -0.18927E-04   -0.19097E-04  5760   0.207E-03-0.947E-05
 gam= 1.631 trial= 0.243  step= 0.112 mean= 0.243
 gam= 0.704 g(H,U,f)=  0.722E-04 0.649E-04 0.855E-05 ort(H,U,f) =-0.568E-04 0.701E-04-0.106E-04
CGA: 125    -0.219204855275E+03   -0.10036E-04   -0.10708E-04  5760   0.146E-03 0.283E-05
 gam= 0.704 trial= 0.236  step= 0.409 mean= 0.236
 gam= 3.024 g(H,U,f)=  0.961E-04 0.205E-03 0.139E-03 ort(H,U,f) =-0.317E-04 0.576E-04-0.307E-04
CGA: 126    -0.219204886788E+03   -0.31513E-04   -0.30175E-04  5760   0.440E-03-0.484E-05
 gam= 3.024 trial= 0.245  step= 0.130 mean= 0.245
 gam= 0.482 g(H,U,f)=  0.114E-03 0.890E-04 0.981E-05 ort(H,U,f) =-0.149E-03 0.158E-03-0.207E-04
CGA: 127    -0.219204915869E+03   -0.29081E-04   -0.27583E-04  5760   0.212E-03-0.120E-04
 gam= 0.482 trial= 0.239  step= 0.366 mean= 0.239
 gam= 1.762 g(H,U,f)=  0.116E-03 0.157E-03 0.102E-03 ort(H,U,f) =-0.547E-04 0.534E-04-0.619E-05
CGA: 128    -0.219204953103E+03   -0.37233E-04   -0.37783E-04  5760   0.374E-03-0.748E-05
 gam= 1.762 trial= 0.245  step= 0.117 mean= 0.245
 gam= 0.575 g(H,U,f)=  0.117E-03 0.881E-04 0.102E-04 ort(H,U,f) =-0.646E-04 0.859E-04-0.221E-04
CGA: 129    -0.219204973324E+03   -0.20222E-04   -0.21210E-04  5760   0.215E-03-0.819E-06
 gam= 0.575 trial= 0.239  step= 0.361 mean= 0.239
 gam= 0.000 g(H,U,f)=  0.802E-04 0.142E-03 0.964E-04 ort(H,U,f) =-0.288E-04 0.429E-04-0.258E-04
SDA: 130    -0.219205012333E+03   -0.39009E-04   -0.38805E-04  5760   0.319E-03-0.117E-04
 gam= 0.000 trial= 0.245  step= 0.088 mean= 0.245
 gam= 0.251 g(H,U,f)=  0.379E-04 0.321E-04 0.986E-05 ort(H,U,f) = 0.352E-04-0.134E-04-0.306E-04
CGA: 131    -0.219205025540E+03   -0.13207E-04   -0.14098E-04  5760   0.799E-04-0.877E-05
 gam= 0.251 trial= 0.237  step= 0.426 mean= 0.237
 gam= 0.770 g(H,U,f)=  0.288E-04 0.309E-04 0.179E-05 ort(H,U,f) = 0.417E-06 0.384E-05-0.850E-06
CGA: 132    -0.219205042417E+03   -0.16877E-04   -0.16551E-04  5760   0.615E-04 0.340E-05
 gam= 0.770 trial= 0.247  step= 0.442 mean= 0.247
 gam= 1.173 g(H,U,f)=  0.177E-04 0.349E-04 0.196E-04 ort(H,U,f) =-0.693E-05 0.148E-04-0.340E-05
CGA: 133    -0.219205057074E+03   -0.14657E-04   -0.14168E-04  5760   0.722E-04 0.443E-05
 gam= 1.173 trial= 0.256  step= 0.139 mean= 0.256
 gam= 0.625 g(H,U,f)=  0.161E-04 0.209E-04 0.804E-05 ort(H,U,f) =-0.826E-05 0.185E-04-0.947E-05
CGA: 134    -0.219205062266E+03   -0.51913E-05   -0.53793E-05  5760   0.451E-04 0.776E-06
 gam= 0.625 trial= 0.251  step= 0.476 mean= 0.251
 gam= 0.552 g(H,U,f)=  0.125E-04 0.107E-04 0.162E-05 ort(H,U,f) =-0.112E-04 0.179E-04-0.102E-05
CGA: 135    -0.219205074008E+03   -0.11743E-04   -0.10859E-04  5760   0.249E-04 0.563E-05
 gam= 0.552 trial= 0.262  step= 0.540 mean= 0.262
 gam= 2.838 g(H,U,f)=  0.147E-04 0.345E-04 0.214E-04 ort(H,U,f) =-0.254E-05 0.870E-05-0.396E-05
CGA: 136    -0.219205081993E+03   -0.79844E-05   -0.75593E-05  5760   0.706E-04 0.221E-05
 gam= 2.838 trial= 0.276  step= 0.168 mean= 0.276
 gam= 0.547 g(H,U,f)=  0.164E-04 0.175E-04 0.474E-05 ort(H,U,f) =-0.175E-04 0.228E-04-0.444E-05
CGA: 137    -0.219205088295E+03   -0.63019E-05   -0.64725E-05  5760   0.386E-04 0.804E-06
 gam= 0.547 trial= 0.270  step= 0.512 mean= 0.270
 gam= 1.086 g(H,U,f)=  0.185E-04 0.168E-04 0.662E-05 ort(H,U,f) =-0.900E-05 0.108E-04-0.232E-05
CGA: 138    -0.219205098189E+03   -0.98940E-05   -0.10014E-04  5760   0.420E-04-0.555E-06
 gam= 1.086 trial= 0.283  step= 0.221 mean= 0.283
 gam= 1.378 g(H,U,f)=  0.168E-04 0.261E-04 0.149E-04 ort(H,U,f) =-0.188E-05 0.625E-05-0.623E-05
CGA: 139    -0.219205102714E+03   -0.45252E-05   -0.45751E-05  5760   0.578E-04-0.186E-05
 gam= 1.378 trial= 0.279  step= 0.306 mean= 0.279
 gam= 0.435 g(H,U,f)=  0.110E-04 0.121E-04 0.208E-05 ort(H,U,f) =-0.105E-04 0.124E-04-0.219E-05
CGA: 140    -0.219205111155E+03   -0.84412E-05   -0.84565E-05  5760   0.251E-04-0.334E-06
 gam= 0.435 trial= 0.281  step= 0.389 mean= 0.281
 gam= 1.806 g(H,U,f)=  0.952E-05 0.219E-04 0.140E-04 ort(H,U,f) =-0.315E-05 0.498E-05-0.255E-05
CGA: 141    -0.219205116070E+03   -0.49149E-05   -0.48643E-05  5760   0.454E-04-0.727E-06
 gam= 1.806 trial= 0.286  step= 0.176 mean= 0.286
 gam= 0.627 g(H,U,f)=  0.120E-04 0.135E-04 0.296E-05 ort(H,U,f) =-0.823E-05 0.122E-04-0.410E-05
CGA: 142    -0.219205119976E+03   -0.39059E-05   -0.38790E-05  5760   0.285E-04-0.131E-06
 gam= 0.627 trial= 0.281  step= 0.625 mean= 0.281
 gam= 1.408 g(H,U,f)=  0.131E-04 0.181E-04 0.890E-05 ort(H,U,f) =-0.762E-05 0.781E-05-0.239E-06
CGA: 143    -0.219205129073E+03   -0.90972E-05   -0.88712E-05  5760   0.400E-04-0.437E-07
 gam= 1.408 trial= 0.298  step= 0.176 mean= 0.298
 gam= 0.951 g(H,U,f)=  0.123E-04 0.167E-04 0.906E-05 ort(H,U,f) =-0.336E-05 0.114E-04-0.784E-05
CGA: 144    -0.219205132609E+03   -0.35358E-05   -0.35099E-05  5760   0.381E-04 0.250E-06
 gam= 0.951 trial= 0.292  step= 0.351 mean= 0.292
 gam= 0.610 g(H,U,f)=  0.122E-04 0.998E-05 0.109E-05 ort(H,U,f) =-0.590E-05 0.814E-05-0.551E-06
CGA: 145    -0.219205139479E+03   -0.68706E-05   -0.67324E-05  5760   0.232E-04 0.170E-05
 gam= 0.610 trial= 0.295  step= 0.535 mean= 0.295
 gam= 2.264 g(H,U,f)=  0.112E-04 0.246E-04 0.168E-04 ort(H,U,f) =-0.224E-05 0.531E-05-0.332E-05
CGA: 146    -0.219205145819E+03   -0.63399E-05   -0.64958E-05  5760   0.526E-04-0.241E-06
 gam= 2.264 trial= 0.307  step= 0.130 mean= 0.307
 gam= 0.371 g(H,U,f)=  0.103E-04 0.811E-05 0.117E-05 ort(H,U,f) =-0.990E-05 0.102E-04-0.241E-05
CGA: 147    -0.219205148938E+03   -0.31186E-05   -0.33963E-05  5760   0.196E-04-0.207E-05
 gam= 0.371 trial= 0.298  step= 0.647 mean= 0.298
 gam= 0.830 g(H,U,f)=  0.842E-05 0.743E-05 0.388E-06 ort(H,U,f) =-0.429E-05 0.346E-05 0.195E-06
CGA: 148    -0.219205154880E+03   -0.59421E-05   -0.60751E-05  5760   0.162E-04-0.631E-06
 gam= 0.830 trial= 0.315  step= 0.381 mean= 0.315
 gam= 2.058 g(H,U,f)=  0.608E-05 0.161E-04 0.113E-04 ort(H,U,f) =-0.719E-06 0.410E-05-0.270E-05
CGA: 149    -0.219205157876E+03   -0.29961E-05   -0.29913E-05  5760   0.334E-04 0.680E-06
 gam= 2.058 trial= 0.319  step= 0.146 mean= 0.319
 gam= 0.381 g(H,U,f)=  0.607E-05 0.616E-05 0.506E-06 ort(H,U,f) =-0.642E-05 0.684E-05-0.133E-05
CGA: 150    -0.219205160221E+03   -0.23450E-05   -0.25442E-05  5760   0.127E-04-0.912E-06
 gam= 0.381 trial= 0.310  step= 0.606 mean= 0.310
 gam= 0.882 g(H,U,f)=  0.588E-05 0.527E-05 0.802E-07 ort(H,U,f) =-0.292E-05 0.325E-05-0.974E-08
CGA: 151    -0.219205164011E+03   -0.37897E-05   -0.37525E-05  5760   0.112E-04 0.318E-06
 gam= 0.882 trial= 0.325  step= 0.596 mean= 0.325
 gam= 1.746 g(H,U,f)=  0.537E-05 0.928E-05 0.497E-05 ort(H,U,f) =-0.211E-05 0.320E-05-0.695E-06
CGA: 152    -0.219205167469E+03   -0.34579E-05   -0.34319E-05  5760   0.196E-04 0.392E-06
 gam= 1.746 trial= 0.338  step= 0.138 mean= 0.338
 gam= 0.683 g(H,U,f)=  0.487E-05 0.628E-05 0.225E-05 ort(H,U,f) =-0.232E-05 0.375E-05-0.262E-05
CGA: 153    -0.219205168821E+03   -0.13523E-05   -0.13994E-05  5760   0.134E-04-0.119E-05
 gam= 0.683 trial= 0.328  step= 0.595 mean= 0.328
 gam= 0.794 g(H,U,f)=  0.588E-05 0.458E-05 0.171E-06 ort(H,U,f) =-0.356E-05 0.289E-05-0.144E-06
CGA: 154    -0.219205172459E+03   -0.36382E-05   -0.37466E-05  5760   0.106E-04-0.813E-06
 gam= 0.794 trial= 0.342  step= 0.555 mean= 0.342
 gam= 0.770 g(H,U,f)=  0.449E-05 0.367E-05 0.150E-07 ort(H,U,f) =-0.193E-05 0.232E-05-0.556E-08
CGA: 155    -0.219205175280E+03   -0.28211E-05   -0.27720E-05  5760   0.818E-05 0.384E-06
 gam= 0.770 trial= 0.352  step= 0.740 mean= 0.352
 gam= 1.100 g(H,U,f)=  0.421E-05 0.399E-05 0.802E-06 ort(H,U,f) =-0.214E-05 0.166E-05 0.103E-06
CGA: 156    -0.219205178320E+03   -0.30396E-05   -0.31384E-05  5760   0.900E-05-0.380E-06
 gam= 1.100 trial= 0.372  step= 0.370 mean= 0.372
 gam= 1.681 g(H,U,f)=  0.356E-05 0.722E-05 0.435E-05 ort(H,U,f) =-0.871E-06 0.244E-05-0.154E-05
CGA: 157    -0.219205179905E+03   -0.15857E-05   -0.15873E-05  5760   0.151E-04 0.297E-07
 gam= 1.681 trial= 0.372  step= 0.162 mean= 0.372
 gam= 0.481 g(H,U,f)=  0.323E-05 0.312E-05 0.928E-06 ort(H,U,f) =-0.200E-05 0.296E-05-0.734E-06
CGA: 158    -0.219205181203E+03   -0.12973E-05   -0.12266E-05  5760   0.728E-05 0.229E-06
 gam= 0.481 trial= 0.361  step= 0.420 mean= 0.361
 gam= 1.234 g(H,U,f)=  0.270E-05 0.402E-05 0.226E-05 ort(H,U,f) =-0.633E-06 0.156E-05-0.847E-06
CGA: 159    -0.219205182777E+03   -0.15741E-05   -0.15531E-05  5760   0.898E-05 0.820E-07
 gam= 1.234 trial= 0.364  step= 0.202 mean= 0.364
 gam= 0.970 g(H,U,f)=  0.254E-05 0.417E-05 0.200E-05 ort(H,U,f) =-0.610E-07 0.125E-05-0.915E-06
CGA: 160    -0.219205183720E+03   -0.94325E-06   -0.91832E-06  5760   0.871E-05 0.274E-06
 gam= 0.970 trial= 0.356  step= 0.270 mean= 0.356
 gam= 0.000 g(H,U,f)=  0.187E-05 0.167E-05 0.419E-06 ort(H,U,f) =-0.111E-05 0.183E-05-0.422E-06
SDA: 161    -0.219205184872E+03   -0.11514E-05   -0.12103E-05  5760   0.396E-05 0.301E-06
 gam= 0.000 trial= 0.352  step= 0.213 mean= 0.352
 gam= 1.470 g(H,U,f)=  0.115E-05 0.300E-05 0.167E-05 ort(H,U,f) = 0.795E-06-0.159E-06-0.828E-06
CGA: 162    -0.219205185295E+03   -0.42379E-06   -0.42173E-06  5760   0.582E-05-0.192E-06
 gam= 1.470 trial= 0.345  step= 0.224 mean= 0.345
 final diagonalization
   1 F= -.23054708E+03 E0= -.23054214E+03  d E =-.986212E-02  mag=     6.0000
