 running on   64 total cores
 distrk:  each k-point on   64 cores,    1 groups
 distr:  one band on    4 cores,   16 groups
 using from now: INCAR     
 vasp.5.4.4.18Apr17-6-g9f103f2a35 (build Nov 22 2021 14:44:17) complex          
  
 POSCAR found type information on POSCAR  Li Co O 
 POSCAR found :  3 types and      42 ions
 scaLAPACK will be used
 LDA part: xc-table for Pade appr. of Perdew
 generate k-points for:    6    6    2
 POSCAR, INCAR and KPOINTS ok, starting setup
 FFT: planning ...
 WAVECAR not read
 entering main loop
       N       E                     dE             d eps       ncg     rms          ort
DAV:   1     0.357383328267E+04    0.35738E+04   -0.14064E+05  5760   0.228E+03
DAV:   2     0.401001109760E+03   -0.31728E+04   -0.29147E+04  5760   0.560E+02
DAV:   3    -0.222802605973E+03   -0.62380E+03   -0.56383E+03  5760   0.260E+02
DAV:   4    -0.270930735602E+03   -0.48128E+02   -0.47228E+02  5760   0.742E+01
DAV:   5    -0.272408203945E+03   -0.14775E+01   -0.14750E+01  5760   0.128E+01
 gam= 0.000 g(H,U,f)=  0.165E+04 0.106E+04 0.975E+03 ort(H,U,f) = 0.000E+00 0.000E+00 0.000E+00
SDA:   6     0.822022832620E+02    0.35461E+03   -0.14750E+01  5760   0.368E+04 0.000E+00
 gam= 0.000 trial= 0.400  step= 0.097 mean= 0.400
 gam= 1.672 g(H,U,f)=  0.778E+03 0.199E+04 0.339E+04 ort(H,U,f) = 0.788E+03 0.107E+03-0.517E+03
CGA:   7    -0.458457406441E+01   -0.86787E+02   -0.17819E+03  5760   0.616E+04 0.378E+03
 gam= 1.672 trial= 0.385  step= 0.080 mean= 0.385
 gam= 0.290 g(H,U,f)=  0.271E+03 0.865E+03 0.651E+03 ort(H,U,f) = 0.230E+03 0.320E+03 0.533E+02
CGA:   8    -0.125838296943E+03   -0.12125E+03   -0.27234E+03  5760   0.179E+04 0.603E+03
 gam= 0.290 trial= 0.370  step= 0.052 mean= 0.370
 gam= 0.306 g(H,U,f)=  0.108E+03 0.244E+03 0.195E+03 ort(H,U,f) =-0.182E+02 0.886E+02-0.932E+02
CGA:   9    -0.182904622046E+03   -0.57066E+02   -0.50577E+02  5760   0.547E+03-0.228E+02
 gam= 0.306 trial= 0.354  step= 0.098 mean= 0.354
 gam= 0.000 g(H,U,f)=  0.147E+03 0.581E+03 0.194E+03 ort(H,U,f) =-0.383E+01-0.290E+03-0.746E+02
CGA:  10    -0.179749659545E+03    0.31550E+01   -0.26564E+02  5760   0.922E+03-0.368E+03
 gam= 0.000 trial= 0.341  step= 0.058 mean= 0.341
 gam= 0.370 g(H,U,f)=  0.728E+02 0.197E+03 0.713E+02 ort(H,U,f) = 0.549E+02-0.287E+03-0.109E+03
CGA:  11    -0.196484580787E+03   -0.16735E+02   -0.26635E+02  5760   0.341E+03-0.341E+03
 gam= 0.370 trial= 0.327  step= 0.131 mean= 0.327
 gam= 0.448 g(H,U,f)=  0.290E+02 0.114E+03 0.104E+02 ort(H,U,f) = 0.330E+02-0.602E+02-0.624E+01
CGA:  12    -0.206676612795E+03   -0.10192E+02   -0.14067E+02  5760   0.153E+03-0.334E+02
 gam= 0.448 trial= 0.317  step= 0.084 mean= 0.317
 gam= 0.448 g(H,U,f)=  0.127E+02 0.431E+02 0.127E+02 ort(H,U,f) = 0.204E+02-0.292E+02-0.140E+02
CGA:  13    -0.211600844839E+03   -0.49242E+01   -0.57648E+01  5760   0.686E+02-0.229E+02
 gam= 0.448 trial= 0.305  step= 0.134 mean= 0.305
 gam= 0.581 g(H,U,f)=  0.741E+01 0.261E+02 0.625E+01 ort(H,U,f) = 0.747E+01-0.113E+02-0.159E+01
CGA:  14    -0.214748373524E+03   -0.31475E+01   -0.39200E+01  5760   0.398E+02-0.542E+01
 gam= 0.581 trial= 0.297  step= 0.102 mean= 0.297
 gam= 0.705 g(H,U,f)=  0.409E+01 0.195E+02 0.452E+01 ort(H,U,f) = 0.646E+01-0.371E+01-0.340E+01
CGA:  15    -0.216470941831E+03   -0.17226E+01   -0.18630E+01  5760   0.281E+02-0.650E+00
 gam= 0.705 trial= 0.287  step= 0.106 mean= 0.287
 gam= 0.264 g(H,U,f)=  0.143E+01 0.530E+01 0.688E+00 ort(H,U,f) = 0.162E+01-0.205E+01-0.679E+00
CGA:  16    -0.217825242620E+03   -0.13543E+01   -0.14622E+01  5760   0.742E+01-0.112E+01
 gam= 0.264 trial= 0.278  step= 0.107 mean= 0.278
 gam= 0.591 g(H,U,f)=  0.109E+01 0.284E+01 0.456E+00 ort(H,U,f) = 0.977E+00-0.906E+00-0.314E+00
CGA:  17    -0.218192530194E+03   -0.36729E+00   -0.38059E+00  5760   0.439E+01-0.243E+00
 gam= 0.591 trial= 0.269  step= 0.215 mean= 0.269
 gam= 0.686 g(H,U,f)=  0.741E+00 0.211E+01 0.155E+00 ort(H,U,f) = 0.581E+00-0.420E+00-0.611E-01
CGA:  18    -0.218639800706E+03   -0.44727E+00   -0.45703E+00  5760   0.301E+01 0.997E-01
 gam= 0.686 trial= 0.267  step= 0.202 mean= 0.267
 gam= 0.612 g(H,U,f)=  0.280E+00 0.124E+01 0.322E+00 ort(H,U,f) = 0.669E-02 0.111E+00-0.137E+00
CGA:  19    -0.218943204972E+03   -0.30340E+00   -0.31139E+00  5760   0.184E+01-0.198E-01
 gam= 0.612 trial= 0.263  step= 0.116 mean= 0.263
 gam= 0.427 g(H,U,f)=  0.178E+00 0.545E+00 0.635E-01 ort(H,U,f) =-0.536E-01 0.114E+00-0.612E-01
CGA:  20    -0.219048698653E+03   -0.10549E+00   -0.10639E+00  5760   0.787E+00-0.124E-02
 gam= 0.427 trial= 0.256  step= 0.233 mean= 0.256
 gam= 1.079 g(H,U,f)=  0.129E+00 0.613E+00 0.107E+00 ort(H,U,f) =-0.318E-01 0.535E-01-0.268E-03
CGA:  21    -0.219139597018E+03   -0.90898E-01   -0.91574E-01  5760   0.849E+00 0.214E-01
 gam= 1.079 trial= 0.255  step= 0.155 mean= 0.255
 gam= 0.799 g(H,U,f)=  0.127E+00 0.491E+00 0.603E-01 ort(H,U,f) =-0.598E-01 0.838E-01-0.450E-01
CGA:  22    -0.219205831991E+03   -0.66235E-01   -0.67530E-01  5760   0.678E+00-0.210E-01
 gam= 0.799 trial= 0.250  step= 0.246 mean= 0.250
 gam= 0.602 g(H,U,f)=  0.127E+00 0.254E+00 0.270E-01 ort(H,U,f) =-0.984E-01 0.119E+00 0.111E-01
CGA:  23    -0.219287149947E+03   -0.81318E-01   -0.81439E-01  5760   0.409E+00 0.316E-01
 gam= 0.602 trial= 0.250  step= 0.378 mean= 0.250
 gam= 1.412 g(H,U,f)=  0.162E+00 0.366E+00 0.492E-01 ort(H,U,f) =-0.499E-01 0.922E-01-0.159E-02
CGA:  24    -0.219370425278E+03   -0.83275E-01   -0.80752E-01  5760   0.577E+00 0.407E-01
 gam= 1.412 trial= 0.256  step= 0.298 mean= 0.256
 gam= 1.555 g(H,U,f)=  0.225E+00 0.530E+00 0.143E+00 ort(H,U,f) =-0.560E-01 0.743E-01-0.867E-02
CGA:  25    -0.219466176418E+03   -0.95751E-01   -0.94393E-01  5760   0.897E+00 0.954E-02
 gam= 1.555 trial= 0.258  step= 0.318 mean= 0.258
 gam= 0.764 g(H,U,f)=  0.277E+00 0.385E+00 0.233E-01 ort(H,U,f) =-0.171E+00 0.169E+00 0.632E-01
CGA:  26    -0.219613702021E+03   -0.14753E+00   -0.14495E+00  5760   0.685E+00 0.613E-01
 gam= 0.764 trial= 0.261  step= 0.325 mean= 0.261
 gam= 0.959 g(H,U,f)=  0.276E+00 0.358E+00 0.226E-01 ort(H,U,f) =-0.158E+00 0.218E+00 0.113E-01
CGA:  27    -0.219735443480E+03   -0.12174E+00   -0.11900E+00  5760   0.657E+00 0.712E-01
 gam= 0.959 trial= 0.264  step= 0.389 mean= 0.264
 gam= 2.282 g(H,U,f)=  0.455E+00 0.883E+00 0.161E+00 ort(H,U,f) =-0.106E+00 0.140E+00-0.227E-01
CGA:  28    -0.219878420555E+03   -0.14298E+00   -0.14093E+00  5760   0.150E+01 0.110E-01
 gam= 2.282 trial= 0.271  step= 0.230 mean= 0.271
 gam= 1.379 g(H,U,f)=  0.659E+00 0.105E+01 0.360E+00 ort(H,U,f) =-0.455E+00 0.555E+00-0.537E+00
CGA:  29    -0.220073992170E+03   -0.19557E+00   -0.17542E+00  5760   0.207E+01-0.438E+00
 gam= 1.379 trial= 0.269  step= 0.157 mean= 0.269
 gam= 0.810 g(H,U,f)=  0.827E+00 0.740E+00 0.108E+00 ort(H,U,f) =-0.741E+00 0.758E+00 0.774E-01
CGA:  30    -0.220214302355E+03   -0.14031E+00   -0.11470E+00  5760   0.168E+01 0.953E-01
 gam= 0.810 trial= 0.263  step= 0.101 mean= 0.263
 gam= 0.922 g(H,U,f)=  0.786E+00 0.663E+00 0.955E-01 ort(H,U,f) =-0.236E+00 0.365E+00-0.157E+00
CGA:  31    -0.220302367235E+03   -0.88065E-01   -0.88589E-01  5760   0.154E+01-0.281E-01
 gam= 0.922 trial= 0.255  step= 0.161 mean= 0.255
 gam= 1.412 g(H,U,f)=  0.816E+00 0.109E+01 0.271E+00 ort(H,U,f) =-0.970E-01 0.268E+00-0.166E+00
CGA:  32    -0.220419944694E+03   -0.11758E+00   -0.12201E+00  5760   0.218E+01 0.551E-02
 gam= 1.412 trial= 0.250  step= 0.097 mean= 0.250
 gam= 0.655 g(H,U,f)=  0.713E+00 0.698E+00 0.180E-01 ort(H,U,f) =-0.177E+00 0.297E+00 0.351E-03
CGA:  33    -0.220530955703E+03   -0.11101E+00   -0.10662E+00  5760   0.143E+01 0.120E+00
 gam= 0.655 trial= 0.243  step= 0.136 mean= 0.243
 gam= 0.969 g(H,U,f)=  0.572E+00 0.630E+00 0.183E+00 ort(H,U,f) =-0.756E-01 0.732E-01-0.372E-02
CGA:  34    -0.220628090490E+03   -0.97135E-01   -0.10279E+00  5760   0.138E+01-0.618E-02
 gam= 0.969 trial= 0.237  step= 0.115 mean= 0.237
 gam= 0.565 g(H,U,f)=  0.450E+00 0.308E+00 0.240E-01 ort(H,U,f) =-0.134E+00 0.104E+00 0.117E-02
CGA:  35    -0.220701787046E+03   -0.73697E-01   -0.79381E-01  5760   0.782E+00-0.285E-01
 gam= 0.565 trial= 0.231  step= 0.228 mean= 0.231
 gam= 0.987 g(H,U,f)=  0.303E+00 0.332E+00 0.137E+00 ort(H,U,f) =-0.609E-01 0.885E-01 0.311E+00
CGA:  36    -0.220789198487E+03   -0.87411E-01   -0.87478E-01  5760   0.772E+00 0.339E+00
 gam= 0.987 trial= 0.231  step= 0.121 mean= 0.231
 gam= 0.846 g(H,U,f)=  0.229E+00 0.366E+00 0.586E-01 ort(H,U,f) =-0.822E-02 0.895E-01-0.188E+00
CGA:  37    -0.220834953494E+03   -0.45755E-01   -0.67128E-01  5760   0.653E+00-0.107E+00
 gam= 0.846 trial= 0.226  step= 0.206 mean= 0.226
 gam= 0.815 g(H,U,f)=  0.215E+00 0.285E+00 0.329E-01 ort(H,U,f) =-0.162E+00 0.664E-01-0.116E+00
CGA:  38    -0.220894985027E+03   -0.60032E-01   -0.58014E-01  5760   0.532E+00-0.211E+00
 gam= 0.815 trial= 0.225  step= 0.172 mean= 0.225
 gam= 1.129 g(H,U,f)=  0.271E+00 0.275E+00 0.555E-01 ort(H,U,f) =-0.748E-01 0.552E-01 0.433E-01
CGA:  39    -0.220927749238E+03   -0.32764E-01   -0.30986E-01  5760   0.601E+00 0.237E-01
 gam= 1.129 trial= 0.222  step= 0.102 mean= 0.222
 gam= 0.665 g(H,U,f)=  0.193E+00 0.180E+00 0.263E-01 ort(H,U,f) = 0.516E-01 0.103E+00-0.123E+00
CGA:  40    -0.220964451940E+03   -0.36703E-01   -0.31940E-01  5760   0.400E+00 0.308E-01
 gam= 0.665 trial= 0.216  step= 0.135 mean= 0.216
 gam= 0.000 g(H,U,f)=  0.148E+00 0.351E+00 0.239E+00 ort(H,U,f) = 0.480E-01 0.541E-01-0.180E+00
SDA:  41    -0.220997713762E+03   -0.33262E-01   -0.28374E-01  5760   0.737E+00-0.778E-01
 gam= 0.000 trial= 0.212  step= 0.090 mean= 0.212
 gam= 0.543 g(H,U,f)=  0.119E+00 0.212E+00 0.685E-01 ort(H,U,f) = 0.785E-01-0.456E-01-0.114E+00
CGA:  42    -0.221022940547E+03   -0.25227E-01   -0.33055E-01  5760   0.400E+00-0.812E-01
 gam= 0.543 trial= 0.206  step= 0.436 mean= 0.206
 gam= 1.557 g(H,U,f)=  0.117E+00 0.339E+00 0.167E+00 ort(H,U,f) =-0.389E-01 0.238E-01 0.363E-02
CGA:  43    -0.221095995998E+03   -0.73055E-01   -0.77657E-01  5760   0.623E+00-0.114E-01
 gam= 1.557 trial= 0.217  step= 0.133 mean= 0.217
 gam= 0.470 g(H,U,f)=  0.855E-01 0.158E+00 0.491E-01 ort(H,U,f) =-0.516E-01 0.106E+00-0.744E-01
CGA:  44    -0.221129199192E+03   -0.33203E-01   -0.40350E-01  5760   0.293E+00-0.197E-01
 gam= 0.470 trial= 0.213  step= 0.260 mean= 0.213
 gam= 0.827 g(H,U,f)=  0.720E-01 0.104E+00 0.657E-01 ort(H,U,f) =-0.488E-01 0.572E-01-0.693E-02
CGA:  45    -0.221165739224E+03   -0.36540E-01   -0.36893E-01  5760   0.242E+00 0.151E-02
 gam= 0.827 trial= 0.215  step= 0.152 mean= 0.215
 gam= 0.644 g(H,U,f)=  0.607E-01 0.770E-01 0.181E-01 ort(H,U,f) =-0.178E-01 0.462E-01-0.216E-01
CGA:  46    -0.221182014806E+03   -0.16276E-01   -0.18499E-01  5760   0.156E+00 0.678E-02
 gam= 0.644 trial= 0.212  step= 0.388 mean= 0.212
 gam= 1.158 g(H,U,f)=  0.535E-01 0.982E-01 0.287E-01 ort(H,U,f) =-0.195E-01 0.176E-01-0.274E-02
CGA:  47    -0.221211650142E+03   -0.29635E-01   -0.31044E-01  5760   0.180E+00-0.469E-02
 gam= 1.158 trial= 0.221  step= 0.144 mean= 0.221
 gam= 0.669 g(H,U,f)=  0.438E-01 0.519E-01 0.250E-01 ort(H,U,f) =-0.226E-01 0.338E-01-0.272E-01
CGA:  48    -0.221223462380E+03   -0.11812E-01   -0.12629E-01  5760   0.121E+00-0.161E-01
 gam= 0.669 trial= 0.217  step= 0.280 mean= 0.217
 gam= 0.593 g(H,U,f)=  0.322E-01 0.350E-01 0.440E-02 ort(H,U,f) =-0.910E-02 0.878E-02-0.944E-03
CGA:  49    -0.221238845838E+03   -0.15383E-01   -0.15407E-01  5760   0.716E-01-0.126E-02
 gam= 0.593 trial= 0.220  step= 0.364 mean= 0.220
 gam= 0.488 g(H,U,f)=  0.153E-01 0.190E-01 0.707E-03 ort(H,U,f) =-0.487E-02 0.131E-01 0.130E-03
CGA:  50    -0.221252513445E+03   -0.13668E-01   -0.12883E-01  5760   0.350E-01 0.833E-02
 gam= 0.488 trial= 0.228  step= 0.347 mean= 0.228
 gam= 2.443 g(H,U,f)=  0.126E-01 0.468E-01 0.259E-01 ort(H,U,f) =-0.421E-02 0.558E-02-0.635E-02
CGA:  51    -0.221259309842E+03   -0.67964E-02   -0.67797E-02  5760   0.854E-01-0.498E-02
 gam= 2.443 trial= 0.234  step= 0.165 mean= 0.234
 gam= 0.586 g(H,U,f)=  0.214E-01 0.251E-01 0.349E-02 ort(H,U,f) =-0.279E-01 0.258E-01 0.242E-02
CGA:  52    -0.221265150627E+03   -0.58408E-02   -0.60558E-02  5760   0.500E-01 0.293E-03
 gam= 0.586 trial= 0.230  step= 0.261 mean= 0.230
 gam= 1.686 g(H,U,f)=  0.252E-01 0.433E-01 0.158E-01 ort(H,U,f) =-0.651E-02 0.211E-01-0.648E-02
CGA:  53    -0.221271932350E+03   -0.67817E-02   -0.65526E-02  5760   0.843E-01 0.809E-02
 gam= 1.686 trial= 0.232  step= 0.181 mean= 0.232
 gam= 0.707 g(H,U,f)=  0.214E-01 0.277E-01 0.105E-01 ort(H,U,f) =-0.185E-01 0.194E-01-0.888E-02
CGA:  54    -0.221281341693E+03   -0.94093E-02   -0.88780E-02  5760   0.596E-01-0.800E-02
 gam= 0.707 trial= 0.229  step= 0.321 mean= 0.229
 gam= 2.787 g(H,U,f)=  0.284E-01 0.804E-01 0.574E-01 ort(H,U,f) =-0.116E-01 0.465E-02-0.145E-01
CGA:  55    -0.221289203800E+03   -0.78621E-02   -0.86558E-02  5760   0.166E+00-0.215E-01
 gam= 2.787 trial= 0.234  step= 0.039 mean= 0.234
 gam= 1.055 g(H,U,f)=  0.292E-01 0.828E-01 0.633E-01 ort(H,U,f) =-0.193E-01 0.519E-01-0.100E-01
CGA:  56    -0.221291736638E+03   -0.25328E-02   -0.20910E-02  5760   0.175E+00 0.225E-01
 gam= 1.055 trial= 0.224  step= 0.080 mean= 0.224
 gam= 0.670 g(H,U,f)=  0.261E-01 0.508E-01 0.405E-01 ort(H,U,f) =-0.295E-01 0.356E-01-0.708E-02
CGA:  57    -0.221298484163E+03   -0.67475E-02   -0.79855E-02  5760   0.117E+00-0.103E-02
 gam= 0.670 trial= 0.217  step= 0.118 mean= 0.217
 gam= 0.502 g(H,U,f)=  0.280E-01 0.233E-01 0.771E-02 ort(H,U,f) =-0.207E-01 0.150E-01 0.432E-02
CGA:  58    -0.221303629633E+03   -0.51455E-02   -0.69035E-02  5760   0.590E-01-0.134E-02
 gam= 0.502 trial= 0.212  step= 0.230 mean= 0.212
 gam= 0.729 g(H,U,f)=  0.252E-01 0.153E-01 0.248E-02 ort(H,U,f) = 0.167E-02 0.901E-02-0.223E-02
CGA:  59    -0.221310481158E+03   -0.68515E-02   -0.66954E-02  5760   0.430E-01 0.845E-02
 gam= 0.729 trial= 0.213  step= 0.243 mean= 0.213
 gam= 0.830 g(H,U,f)=  0.104E-01 0.176E-01 0.773E-02 ort(H,U,f) = 0.172E-02-0.393E-02-0.135E-02
CGA:  60    -0.221316400680E+03   -0.59195E-02   -0.59637E-02  5760   0.357E-01-0.356E-02
 gam= 0.830 trial= 0.214  step= 0.278 mean= 0.214
 gam= 0.841 g(H,U,f)=  0.132E-01 0.154E-01 0.147E-02 ort(H,U,f) =-0.144E-02 0.360E-02-0.223E-03
CGA:  61    -0.221321032310E+03   -0.46316E-02   -0.45456E-02  5760   0.300E-01 0.193E-02
 gam= 0.841 trial= 0.217  step= 0.310 mean= 0.217
 gam= 0.815 g(H,U,f)=  0.924E-02 0.118E-01 0.349E-02 ort(H,U,f) =-0.117E-02 0.728E-02-0.344E-02
CGA:  62    -0.221326177177E+03   -0.51449E-02   -0.49070E-02  5760   0.245E-01 0.268E-02
 gam= 0.815 trial= 0.222  step= 0.238 mean= 0.222
 gam= 0.987 g(H,U,f)=  0.980E-02 0.103E-01 0.408E-02 ort(H,U,f) =-0.717E-02 0.738E-02-0.206E-03
CGA:  63    -0.221329358320E+03   -0.31811E-02   -0.31807E-02  5760   0.242E-01 0.295E-05
 gam= 0.987 trial= 0.223  step= 0.388 mean= 0.223
 gam= 1.046 g(H,U,f)=  0.129E-01 0.119E-01 0.438E-03 ort(H,U,f) =-0.883E-02 0.845E-02 0.514E-03
CGA:  64    -0.221334067574E+03   -0.47093E-02   -0.46917E-02  5760   0.253E-01 0.134E-03
 gam= 1.046 trial= 0.231  step= 0.544 mean= 0.231
 gam= 1.669 g(H,U,f)=  0.183E-01 0.191E-01 0.488E-02 ort(H,U,f) =-0.991E-02 0.132E-01-0.209E-02
CGA:  65    -0.221341078649E+03   -0.70111E-02   -0.69126E-02  5760   0.422E-01 0.118E-02
 gam= 1.669 trial= 0.247  step= 0.275 mean= 0.247
 gam= 1.128 g(H,U,f)=  0.240E-01 0.199E-01 0.375E-02 ort(H,U,f) =-0.196E-01 0.220E-01 0.891E-02
CGA:  66    -0.221347324215E+03   -0.62456E-02   -0.60827E-02  5760   0.476E-01 0.113E-01
 gam= 1.128 trial= 0.248  step= 0.312 mean= 0.248
 gam= 0.000 g(H,U,f)=  0.280E-01 0.404E-01 0.598E-01 ort(H,U,f) =-0.790E-02 0.384E-01 0.357E-02
CGA:  67    -0.221356378839E+03   -0.90546E-02   -0.94092E-02  5760   0.128E+00 0.340E-01
 gam= 0.000 trial= 0.251  step= 0.124 mean= 0.251
 gam= 0.538 g(H,U,f)=  0.194E-01 0.279E-01 0.217E-01 ort(H,U,f) = 0.159E-01 0.374E-02-0.108E-01
CGA:  68    -0.221362473341E+03   -0.60945E-02   -0.79840E-02  5760   0.690E-01 0.884E-02
 gam= 0.538 trial= 0.245  step= 0.274 mean= 0.245
 gam= 0.405 g(H,U,f)=  0.893E-02 0.180E-01 0.972E-03 ort(H,U,f) = 0.510E-02 0.997E-02 0.183E-02
CGA:  69    -0.221372971618E+03   -0.10498E-01   -0.10117E-01  5760   0.279E-01 0.169E-01
 gam= 0.405 trial= 0.247  step= 0.529 mean= 0.247
 gam= 3.066 g(H,U,f)=  0.890E-02 0.313E-01 0.454E-01 ort(H,U,f) =-0.289E-02 0.862E-02 0.463E-02
CGA:  70    -0.221382854330E+03   -0.98827E-02   -0.91950E-02  5760   0.856E-01 0.104E-01
 gam= 3.066 trial= 0.261  step= 0.174 mean= 0.261
 gam= 0.000 g(H,U,f)=  0.193E-01 0.296E-01 0.361E-01 ort(H,U,f) =-0.301E-01 0.468E-01 0.646E-01
CGA:  71    -0.221391692928E+03   -0.88386E-02   -0.10230E-01  5760   0.850E-01 0.813E-01
 gam= 0.000 trial= 0.256  step= 0.163 mean= 0.256
 gam= 0.489 g(H,U,f)=  0.609E-02 0.151E-01 0.204E-01 ort(H,U,f) = 0.763E-02 0.743E-02 0.732E-02
CGA:  72    -0.221396632076E+03   -0.49391E-02   -0.69464E-02  5760   0.416E-01 0.224E-01
 gam= 0.489 trial= 0.252  step= 0.157 mean= 0.252
 gam= 0.730 g(H,U,f)=  0.699E-02 0.176E-01 0.576E-02 ort(H,U,f) = 0.358E-02 0.622E-02-0.150E-02
CGA:  73    -0.221400127355E+03   -0.34953E-02   -0.41212E-02  5760   0.304E-01 0.831E-02
 gam= 0.730 trial= 0.247  step= 0.359 mean= 0.247
 gam= 1.282 g(H,U,f)=  0.575E-02 0.195E-01 0.137E-01 ort(H,U,f) =-0.419E-02 0.130E-01 0.372E-02
CGA:  74    -0.221407508691E+03   -0.73813E-02   -0.65463E-02  5760   0.389E-01 0.125E-01
 gam= 1.282 trial= 0.253  step= 0.272 mean= 0.253
 gam= 2.656 g(H,U,f)=  0.186E-01 0.425E-01 0.422E-01 ort(H,U,f) =-0.245E-02 0.289E-01-0.924E-02
CGA:  75    -0.221415022473E+03   -0.75138E-02   -0.74668E-02  5760   0.103E+00 0.173E-01
 gam= 2.656 trial= 0.254  step= 0.240 mean= 0.254
 gam= 0.000 g(H,U,f)=  0.500E-01 0.518E-01 0.159E-01 ort(H,U,f) =-0.420E-01 0.948E-01 0.515E-02
CGA:  76    -0.221432327078E+03   -0.17305E-01   -0.17876E-01  5760   0.118E+00 0.580E-01
 gam= 0.000 trial= 0.253  step= 0.187 mean= 0.253
 gam= 0.988 g(H,U,f)=  0.204E-01 0.434E-01 0.524E-01 ort(H,U,f) = 0.214E-01 0.235E-02-0.187E-01
CGA:  77    -0.221442959331E+03   -0.10632E-01   -0.10992E-01  5760   0.116E+00 0.504E-02
 gam= 0.988 trial= 0.250  step= 0.139 mean= 0.250
 gam= 0.432 g(H,U,f)=  0.149E-01 0.325E-01 0.281E-02 ort(H,U,f) = 0.805E-02-0.119E-02-0.745E-02
CGA:  78    -0.221451112432E+03   -0.81531E-02   -0.84135E-02  5760   0.502E-01-0.591E-03
 gam= 0.432 trial= 0.244  step= 0.561 mean= 0.244
 gam= 1.849 g(H,U,f)=  0.148E-01 0.318E-01 0.462E-01 ort(H,U,f) =-0.200E-01 0.172E-01 0.219E-02
CGA:  79    -0.221465052085E+03   -0.13940E-01   -0.14017E-01  5760   0.928E-01-0.543E-03
 gam= 1.849 trial= 0.260  step= 0.148 mean= 0.260
 gam= 0.839 g(H,U,f)=  0.301E-01 0.374E-01 0.104E-01 ort(H,U,f) =-0.355E-01 0.553E-01-0.234E-01
CGA:  80    -0.221471150513E+03   -0.60984E-02   -0.68093E-02  5760   0.779E-01-0.361E-02
 gam= 0.839 trial= 0.254  step= 1.749 mean= 0.254
 gam= 0.839 trial= 1.653  step= 1.653 mean= 0.401
 gam= 0.000 g(H,U,f)=  0.185E+01 0.942E+01 0.633E+01 ort(H,U,f) =-0.152E+00-0.232E+01-0.900E+00
CGA:  81    -0.220832477638E+03    0.63867E+00   -0.98814E-01  5760   0.176E+02-0.338E+01
 gam= 0.000 trial= 0.464  step= 0.216 mean= 0.464
 gam= 0.081 g(H,U,f)=  0.645E+00 0.777E+00 0.296E-05 ort(H,U,f) =-0.858E+00-0.151E+01-0.826E-05
CGA:  82    -0.221417498260E+03   -0.58502E+00   -0.18997E+01  5760   0.142E+01-0.237E+01
 gam= 0.081 trial= 0.451  step= 0.231 mean= 0.451
 gam= 0.034 g(H,U,f)=  0.382E-01 0.106E-01 0.267E-04 ort(H,U,f) = 0.700E-01 0.285E-03 0.635E-04
CGA:  83    -0.221570254811E+03   -0.15276E+00   -0.14226E+00  5760   0.489E-01 0.704E-01
 gam= 0.034 trial= 0.440  step= 0.409 mean= 0.440
 gam= 0.487 g(H,U,f)=  0.103E-01 0.135E-01 0.234E-04 ort(H,U,f) = 0.331E-02-0.339E-02 0.716E-05
CGA:  84    -0.221580767099E+03   -0.10512E-01   -0.10495E-01  5760   0.238E-01-0.785E-04
 gam= 0.487 trial= 0.439  step= 0.406 mean= 0.439
 gam= 0.401 g(H,U,f)=  0.427E-02 0.522E-02 0.578E-04 ort(H,U,f) =-0.409E-02 0.408E-02 0.471E-04
CGA:  85    -0.221585595144E+03   -0.48280E-02   -0.48284E-02  5760   0.955E-02 0.296E-04
 gam= 0.401 trial= 0.437  step= 0.655 mean= 0.437
 gam= 1.056 g(H,U,f)=  0.408E-02 0.599E-02 0.184E-04 ort(H,U,f) =-0.247E-02 0.264E-02 0.256E-04
CGA:  86    -0.221588752561E+03   -0.31574E-02   -0.31328E-02  5760   0.101E-01 0.190E-03
 gam= 1.056 trial= 0.448  step= 0.622 mean= 0.448
 gam= 1.162 g(H,U,f)=  0.649E-02 0.523E-02 0.501E-05 ort(H,U,f) =-0.338E-02 0.345E-02 0.126E-04
CGA:  87    -0.221591963053E+03   -0.32105E-02   -0.32002E-02  5760   0.117E-01 0.862E-04
 gam= 1.162 trial= 0.457  step= 1.051 mean= 0.457
 gam= 1.010 g(H,U,f)=  0.674E-02 0.508E-02 0.137E-04 ort(H,U,f) =-0.339E-02 0.358E-02 0.503E-04
CGA:  88    -0.221598244274E+03   -0.62812E-02   -0.62116E-02  5760   0.118E-01 0.238E-03
 gam= 1.010 trial= 0.487  step= 0.507 mean= 0.487
 gam= 0.938 g(H,U,f)=  0.634E-02 0.474E-02 0.222E-04 ort(H,U,f) =-0.659E-03 0.420E-03 0.735E-04
CGA:  89    -0.221601300195E+03   -0.30559E-02   -0.30633E-02  5760   0.111E-01-0.165E-03
 gam= 0.938 trial= 0.488  step= 0.595 mean= 0.488
 gam= 0.500 g(H,U,f)=  0.305E-02 0.249E-02 0.182E-04 ort(H,U,f) =-0.555E-03 0.100E-02 0.792E-04
CGA:  90    -0.221604590499E+03   -0.32903E-02   -0.32594E-02  5760   0.555E-02 0.527E-03
 gam= 0.500 trial= 0.493  step= 0.400 mean= 0.493
 gam= 0.533 g(H,U,f)=  0.141E-02 0.153E-02 0.147E-04 ort(H,U,f) =-0.582E-03 0.586E-03 0.620E-04
CGA:  91    -0.221605747815E+03   -0.11573E-02   -0.11648E-02  5760   0.296E-02 0.661E-04
 gam= 0.533 trial= 0.488  step= 0.622 mean= 0.488
 gam= 1.193 g(H,U,f)=  0.120E-02 0.232E-02 0.107E-04 ort(H,U,f) =-0.520E-03 0.594E-03 0.353E-04
CGA:  92    -0.221606673508E+03   -0.92569E-03   -0.93052E-03  5760   0.353E-02 0.109E-03
 gam= 1.193 trial= 0.495  step= 0.517 mean= 0.495
 gam= 0.758 g(H,U,f)=  0.158E-02 0.109E-02 0.882E-05 ort(H,U,f) =-0.134E-02 0.145E-02 0.514E-04
CGA:  93    -0.221607621065E+03   -0.94756E-03   -0.94535E-03  5760   0.268E-02 0.163E-03
 gam= 0.758 trial= 0.496  step= 0.862 mean= 0.496
 gam= 1.659 g(H,U,f)=  0.208E-02 0.236E-02 0.431E-05 ort(H,U,f) =-0.760E-03 0.877E-03 0.201E-04
CGA:  94    -0.221608857248E+03   -0.12362E-02   -0.12065E-02  5760   0.444E-02 0.137E-03
 gam= 1.659 trial= 0.514  step= 0.629 mean= 0.514
 gam= 1.173 g(H,U,f)=  0.269E-02 0.251E-02 0.607E-05 ort(H,U,f) =-0.136E-02 0.149E-02 0.455E-04
CGA:  95    -0.221610326552E+03   -0.14693E-02   -0.14671E-02  5760   0.521E-02 0.178E-03
 gam= 1.173 trial= 0.520  step= 0.590 mean= 0.520
 gam= 0.920 g(H,U,f)=  0.237E-02 0.240E-02 0.113E-04 ort(H,U,f) =-0.111E-02 0.968E-03 0.113E-03
CGA:  96    -0.221611903970E+03   -0.15774E-02   -0.15973E-02  5760   0.479E-02-0.261E-04
 gam= 0.920 trial= 0.524  step= 0.576 mean= 0.524
 gam= 0.830 g(H,U,f)=  0.211E-02 0.187E-02 0.660E-05 ort(H,U,f) =-0.100E-02 0.116E-02 0.313E-04
CGA:  97    -0.221613284338E+03   -0.13804E-02   -0.13728E-02  5760   0.398E-02 0.187E-03
 gam= 0.830 trial= 0.526  step= 0.667 mean= 0.526
 gam= 1.209 g(H,U,f)=  0.221E-02 0.258E-02 0.112E-04 ort(H,U,f) =-0.723E-03 0.748E-03-0.665E-04
CGA:  98    -0.221614666412E+03   -0.13821E-02   -0.13794E-02  5760   0.481E-02-0.419E-04
 gam= 1.209 trial= 0.533  step= 0.600 mean= 0.533
 gam= 0.728 g(H,U,f)=  0.192E-02 0.158E-02 0.147E-05 ort(H,U,f) =-0.133E-02 0.121E-02-0.752E-05
CGA:  99    -0.221616086262E+03   -0.14198E-02   -0.14269E-02  5760   0.350E-02-0.128E-03
 gam= 0.728 trial= 0.537  step= 0.456 mean= 0.537
 gam= 0.753 g(H,U,f)=  0.149E-02 0.115E-02 0.116E-05 ort(H,U,f) =-0.317E-03 0.345E-03 0.239E-04
CGA: 100    -0.221616868912E+03   -0.78265E-03   -0.77696E-03  5760   0.264E-02 0.523E-04
 gam= 0.753 trial= 0.533  step= 0.585 mean= 0.533
 gam= 0.607 g(H,U,f)=  0.907E-03 0.692E-03 0.637E-06 ort(H,U,f) =-0.274E-03 0.258E-03-0.110E-04
CGA: 101    -0.221617650784E+03   -0.78187E-03   -0.78278E-03  5760   0.160E-02-0.270E-04
 gam= 0.607 trial= 0.535  step= 0.469 mean= 0.535
 gam= 0.538 g(H,U,f)=  0.498E-03 0.362E-03 0.804E-06 ort(H,U,f) =-0.115E-03 0.113E-03-0.744E-05
CGA: 102    -0.221618022869E+03   -0.37209E-03   -0.37154E-03  5760   0.861E-03-0.960E-05
 gam= 0.538 trial= 0.532  step= 0.533 mean= 0.532
 gam= 0.821 g(H,U,f)=  0.302E-03 0.405E-03 0.525E-06 ort(H,U,f) =-0.528E-04 0.561E-04-0.245E-05
CGA: 103    -0.221618251217E+03   -0.22835E-03   -0.22840E-03  5760   0.707E-03 0.866E-06
 gam= 0.821 trial= 0.532  step= 0.468 mean= 0.532
 gam= 0.569 g(H,U,f)=  0.193E-03 0.209E-03 0.577E-07 ort(H,U,f) =-0.721E-04 0.569E-04-0.201E-06
CGA: 104    -0.221618417896E+03   -0.16668E-03   -0.16541E-03  5760   0.402E-03-0.154E-04
 gam= 0.569 trial= 0.529  step= 0.595 mean= 0.529
 gam= 0.703 g(H,U,f)=  0.151E-03 0.131E-03 0.882E-07 ort(H,U,f) =-0.796E-04 0.813E-04 0.125E-06
CGA: 105    -0.221618534769E+03   -0.11687E-03   -0.11697E-03  5760   0.283E-03 0.178E-05
 gam= 0.703 trial= 0.532  step= 0.694 mean= 0.532
 gam= 1.170 g(H,U,f)=  0.157E-03 0.174E-03 0.268E-07 ort(H,U,f) =-0.524E-04 0.467E-04-0.991E-07
CGA: 106    -0.221618632364E+03   -0.97595E-04   -0.98525E-04  5760   0.331E-03-0.576E-05
 gam= 1.170 trial= 0.540  step= 0.444 mean= 0.540
 gam= 0.603 g(H,U,f)=  0.109E-03 0.900E-04 0.232E-06 ort(H,U,f) =-0.720E-04 0.740E-04-0.212E-06
CGA: 107    -0.221618704370E+03   -0.72006E-04   -0.71977E-04  5760   0.199E-03 0.177E-05
 gam= 0.603 trial= 0.535  step= 0.631 mean= 0.535
 gam= 1.021 g(H,U,f)=  0.105E-03 0.988E-04 0.982E-07 ort(H,U,f) =-0.363E-04 0.369E-04 0.873E-07
CGA: 108    -0.221618767526E+03   -0.63157E-04   -0.63266E-04  5760   0.204E-03 0.732E-06
 gam= 1.021 trial= 0.540  step= 0.596 mean= 0.540
 gam= 0.866 g(H,U,f)=  0.835E-04 0.927E-04 0.816E-07 ort(H,U,f) =-0.483E-04 0.470E-04 0.814E-07
CGA: 109    -0.221618828393E+03   -0.60866E-04   -0.60927E-04  5760   0.176E-03-0.121E-05
 gam= 0.866 trial= 0.543  step= 0.618 mean= 0.543
 gam= 1.073 g(H,U,f)=  0.906E-04 0.985E-04 0.505E-07 ort(H,U,f) =-0.453E-04 0.440E-04 0.181E-06
CGA: 110    -0.221618882066E+03   -0.53674E-04   -0.54128E-04  5760   0.189E-03-0.109E-05
 gam= 1.073 trial= 0.547  step= 0.535 mean= 0.547
 gam= 0.933 g(H,U,f)=  0.876E-04 0.887E-04 0.189E-06 ort(H,U,f) =-0.419E-04 0.420E-04 0.258E-06
CGA: 111    -0.221618932319E+03   -0.50253E-04   -0.50239E-04  5760   0.176E-03 0.285E-06
 gam= 0.933 trial= 0.546  step= 0.729 mean= 0.546
 gam= 0.000 g(H,U,f)=  0.879E-04 0.788E-04 0.455E-07 ort(H,U,f) =-0.427E-04 0.459E-04 0.246E-06
SDA: 112    -0.221618996844E+03   -0.64525E-04   -0.64411E-04  5760   0.167E-03 0.345E-05
 gam= 0.000 trial= 0.555  step= 0.410 mean= 0.555
 gam= 0.504 g(H,U,f)=  0.336E-04 0.503E-04 0.159E-07 ort(H,U,f) = 0.110E-04-0.123E-04 0.246E-07
CGA: 113    -0.221619031479E+03   -0.34635E-04   -0.34158E-04  5760   0.840E-04-0.133E-05
 gam= 0.504 trial= 0.548  step= 0.632 mean= 0.548
 gam= 0.853 g(H,U,f)=  0.261E-04 0.454E-04 0.710E-07 ort(H,U,f) =-0.890E-05 0.839E-05-0.202E-07
CGA: 114    -0.221619057689E+03   -0.26211E-04   -0.26323E-04  5760   0.716E-04-0.531E-06
 gam= 0.853 trial= 0.552  step= 0.581 mean= 0.552
 gam= 0.697 g(H,U,f)=  0.228E-04 0.271E-04 0.109E-06 ort(H,U,f) =-0.154E-04 0.174E-04 0.670E-07
CGA: 115    -0.221619078373E+03   -0.20683E-04   -0.20666E-04  5760   0.500E-04 0.200E-05
 gam= 0.697 trial= 0.554  step= 0.666 mean= 0.554
 gam= 0.899 g(H,U,f)=  0.199E-04 0.250E-04 0.132E-07 ort(H,U,f) =-0.118E-04 0.108E-04-0.276E-07
CGA: 116    -0.221619095286E+03   -0.16913E-04   -0.17105E-04  5760   0.449E-04-0.106E-05
 gam= 0.899 trial= 0.559  step= 0.722 mean= 0.559
 gam= 1.111 g(H,U,f)=  0.226E-04 0.273E-04 0.229E-07 ort(H,U,f) =-0.818E-05 0.770E-05 0.160E-08
CGA: 117    -0.221619111060E+03   -0.15774E-04   -0.15868E-04  5760   0.499E-04-0.485E-06
 gam= 1.111 trial= 0.567  step= 0.651 mean= 0.567
 gam= 0.644 g(H,U,f)=  0.182E-04 0.140E-04 0.452E-08 ort(H,U,f) =-0.101E-04 0.110E-04 0.132E-07
CGA: 118    -0.221619127144E+03   -0.16083E-04   -0.16057E-04  5760   0.321E-04 0.922E-06
 gam= 0.644 trial= 0.572  step= 0.981 mean= 0.572
 gam= 1.245 g(H,U,f)=  0.188E-04 0.211E-04 0.319E-07 ort(H,U,f) =-0.826E-05 0.708E-05 0.391E-07
CGA: 119    -0.221619142965E+03   -0.15821E-04   -0.16063E-04  5760   0.400E-04-0.114E-05
 gam= 1.245 trial= 0.592  step= 0.923 mean= 0.592
 gam= 0.878 g(H,U,f)=  0.200E-04 0.151E-04 0.517E-07 ort(H,U,f) =-0.130E-04 0.130E-04-0.339E-07
CGA: 120    -0.221619160757E+03   -0.17792E-04   -0.17825E-04  5760   0.352E-04-0.105E-06
 gam= 0.878 trial= 0.609  step= 0.821 mean= 0.609
 gam= 1.237 g(H,U,f)=  0.196E-04 0.237E-04 0.122E-06 ort(H,U,f) =-0.716E-05 0.785E-05-0.869E-08
CGA: 121    -0.221619175226E+03   -0.14469E-04   -0.14392E-04  5760   0.435E-04 0.688E-06
 gam= 1.237 trial= 0.619  step= 0.736 mean= 0.619
 gam= 0.853 g(H,U,f)=  0.185E-04 0.185E-04 0.765E-07 ort(H,U,f) =-0.911E-05 0.869E-05 0.141E-06
CGA: 122    -0.221619191507E+03   -0.16281E-04   -0.16305E-04  5760   0.371E-04-0.280E-06
 gam= 0.853 trial= 0.625  step= 0.667 mean= 0.625
 gam= 0.762 g(H,U,f)=  0.158E-04 0.125E-04 0.504E-07 ort(H,U,f) =-0.571E-05 0.549E-05 0.148E-06
CGA: 123    -0.221619203782E+03   -0.12275E-04   -0.12288E-04  5760   0.283E-04-0.679E-07
 gam= 0.762 trial= 0.627  step= 0.695 mean= 0.627
 gam= 0.699 g(H,U,f)=  0.981E-05 0.990E-05 0.470E-07 ort(H,U,f) =-0.243E-05 0.349E-05 0.159E-06
CGA: 124    -0.221619213622E+03   -0.98398E-05   -0.97993E-05  5760   0.198E-04 0.121E-05
 gam= 0.699 trial= 0.630  step= 0.681 mean= 0.630
 gam= 0.706 g(H,U,f)=  0.585E-05 0.806E-05 0.223E-07 ort(H,U,f) =-0.301E-05 0.305E-05 0.102E-06
CGA: 125    -0.221619220646E+03   -0.70239E-05   -0.70179E-05  5760   0.139E-04 0.137E-06
 gam= 0.706 trial= 0.633  step= 0.591 mean= 0.633
 gam= 0.949 g(H,U,f)=  0.505E-05 0.817E-05 0.130E-07 ort(H,U,f) =-0.191E-05 0.224E-05 0.341E-07
CGA: 126    -0.221619224801E+03   -0.41551E-05   -0.41449E-05  5760   0.132E-04 0.365E-06
 gam= 0.949 trial= 0.631  step= 0.651 mean= 0.631
 gam= 0.765 g(H,U,f)=  0.523E-05 0.488E-05 0.865E-08 ort(H,U,f) =-0.231E-05 0.245E-05 0.129E-06
CGA: 127    -0.221619229215E+03   -0.44147E-05   -0.44204E-05  5760   0.101E-04 0.268E-06
 gam= 0.765 trial= 0.632  step= 0.539 mean= 0.632
 gam= 0.604 g(H,U,f)=  0.381E-05 0.230E-05 0.117E-09 ort(H,U,f) =-0.186E-05 0.201E-05-0.475E-08
CGA: 128    -0.221619232001E+03   -0.27855E-05   -0.27816E-05  5760   0.611E-05 0.148E-06
 gam= 0.604 trial= 0.627  step= 0.861 mean= 0.627
 gam= 0.799 g(H,U,f)=  0.235E-05 0.251E-05 0.196E-07 ort(H,U,f) =-0.968E-06 0.568E-06-0.994E-07
CGA: 129    -0.221619234623E+03   -0.26218E-05   -0.26687E-05  5760   0.489E-05-0.500E-06
 gam= 0.799 trial= 0.639  step= 0.598 mean= 0.639
 gam= 0.654 g(H,U,f)=  0.172E-05 0.145E-05 0.209E-07 ort(H,U,f) =-0.693E-06 0.477E-06-0.610E-07
CGA: 130    -0.221619235975E+03   -0.13527E-05   -0.13412E-05  5760   0.319E-05-0.277E-06
 gam= 0.654 trial= 0.637  step= 0.641 mean= 0.637
 gam= 0.845 g(H,U,f)=  0.113E-05 0.156E-05 0.622E-08 ort(H,U,f) =-0.314E-06 0.325E-06-0.110E-07
CGA: 131    -0.221619236941E+03   -0.96575E-06   -0.96561E-06  5760   0.270E-05-0.301E-09
 gam= 0.845 trial= 0.637  step= 0.681 mean= 0.637
 final diagonalization
   1 F= -.23289875E+03 E0= -.23289821E+03  d E =-.108328E-02  mag=     6.0000
