 vasp.5.4.4.18Apr17-6-g9f103f2a35 (build Nov 22 2021 14:44:17) complex          
  
 executed on             LinuxIFC date 2022.08.08  10:58:02
 running on   64 total cores
 distrk:  each k-point on   64 cores,    1 groups
 distr:  one band on NCORES_PER_BAND=   4 cores,   16 groups


--------------------------------------------------------------------------------------------------------


 INCAR:
 POTCAR:    PAW_PBE Li 17Jan2003                  
 POTCAR:    PAW_PBE Co 02Aug2007                  
 POTCAR:    PAW_PBE O 08Apr2002                   
 POTCAR:    PAW_PBE Li 17Jan2003                  
   VRHFIN =Li: s1p0                                                             
   LEXCH  = PE                                                                  
   EATOM  =     5.3001 eV,    0.3895 Ry                                         
                                                                                
   TITEL  = PAW_PBE Li 17Jan2003                                                
   LULTRA =        F    use ultrasoft PP ?                                      
   IUNSCR =        1    unscreen: 0-lin 1-nonlin 2-no                           
   RPACOR =    1.500    partial core radius                                     
   POMASS =    7.010; ZVAL   =    1.000    mass and valenz                      
   RCORE  =    2.050    outmost cutoff radius                                   
   RWIGS  =    2.600; RWIGS  =    1.376    wigner-seitz radius (au A)           
   ENMAX  =  140.000; ENMIN  =  100.000 eV                                      
   ICORE  =        2    local potential                                         
   LCOR   =        T    correct aug charges                                     
   LPAW   =        T    paw PP                                                  
   EAUG   =  331.638                                                            
   DEXC   =    0.000                                                            
   RMAX   =    2.098    core radius for proj-oper                               
   RAUG   =    1.300    factor for augmentation sphere                          
   RDEP   =    2.094    radius for radial grids                                 
   RDEPT  =    1.810    core radius for aug-charge                              
                                                                                
   Atomic configuration                                                         
    4 entries                                                                   
     n  l   j            E        occ.                                          
     1  0  0.50       -51.8549   2.0000                                         
     2  0  0.50        -2.8742   1.0000                                         
     2  1  0.50        -1.3606   0.0000                                         
     3  2  1.50        -1.3606   0.0000                                         
   Description                                                                  
     l       E           TYP  RCUT    TYP  RCUT                                 
     0     -2.8742052     23  2.050                                             
     0     27.2116520     23  2.050                                             
     1     -1.3605826     23  2.050                                             
     2     -1.3605826     23  2.050                                             
  local pseudopotential read in
  partial core-charges read in
  partial kinetic energy density read in
  atomic valenz-charges read in
  non local Contribution for L=           0  read in
    real space projection operators read in
  non local Contribution for L=           0  read in
    real space projection operators read in
  non local Contribution for L=           1  read in
    real space projection operators read in
    PAW grid and wavefunctions read in
 
   number of l-projection  operators is LMAX  =           3
   number of lm-projection operators is LMMAX =           5
 
 POTCAR:    PAW_PBE Co 02Aug2007                  
   VRHFIN =Co: d8 s1                                                            
   LEXCH  = PE                                                                  
   EATOM  =   813.3670 eV,   59.7808 Ry                                         
                                                                                
   TITEL  = PAW_PBE Co 02Aug2007                                                
   LULTRA =        F    use ultrasoft PP ?                                      
   IUNSCR =        1    unscreen: 0-lin 1-nonlin 2-no                           
   RPACOR =    2.000    partial core radius                                     
   POMASS =   58.933; ZVAL   =    9.000    mass and valenz                      
   RCORE  =    2.300    outmost cutoff radius                                   
   RWIGS  =    2.460; RWIGS  =    1.302    wigner-seitz radius (au A)           
   ENMAX  =  267.968; ENMIN  =  200.976 eV                                      
   RCLOC  =    1.203    cutoff for local pot                                    
   LCOR   =        T    correct aug charges                                     
   LPAW   =        T    paw PP                                                  
   EAUG   =  477.818                                                            
   DEXC   =    0.000                                                            
   RMAX   =    2.360    core radius for proj-oper                               
   RAUG   =    1.300    factor for augmentation sphere                          
   RDEP   =    2.393    radius for radial grids                                 
   RDEPT  =    1.864    core radius for aug-charge                              
                                                                                
   Atomic configuration                                                         
    9 entries                                                                   
     n  l   j            E        occ.                                          
     1  0  0.50     -7587.6674   2.0000                                         
     2  0  0.50      -893.6084   2.0000                                         
     2  1  1.50      -764.5805   6.0000                                         
     3  0  0.50       -97.5973   2.0000                                         
     3  1  1.50       -60.9648   6.0000                                         
     3  2  2.50        -4.2382   8.0000                                         
     4  0  0.50        -4.3746   1.0000                                         
     4  1  1.50        -4.0817   0.0000                                         
     4  3  2.50        -1.3606   0.0000                                         
   Description                                                                  
     l       E           TYP  RCUT    TYP  RCUT                                 
     2     -4.2382362     23  2.300                                             
     2     -5.5988188     23  2.300                                             
     0     -4.3745797     23  2.300                                             
     0      5.7660125     23  2.300                                             
     1     -2.7211652     23  2.300                                             
     1     16.9860234     23  2.300                                             
  local pseudopotential read in
  partial core-charges read in
  partial kinetic energy density read in
  atomic valenz-charges read in
  non local Contribution for L=           2  read in
    real space projection operators read in
  non local Contribution for L=           2  read in
    real space projection operators read in
  non local Contribution for L=           0  read in
    real space projection operators read in
  non local Contribution for L=           0  read in
    real space projection operators read in
  non local Contribution for L=           1  read in
    real space projection operators read in
  non local Contribution for L=           1  read in
    real space projection operators read in
    PAW grid and wavefunctions read in
 
   number of l-projection  operators is LMAX  =           6
   number of lm-projection operators is LMMAX =          18
 
 POTCAR:    PAW_PBE O 08Apr2002                   
   VRHFIN =O: s2p4                                                              
   LEXCH  = PE                                                                  
   EATOM  =   432.3788 eV,   31.7789 Ry                                         
                                                                                
   TITEL  = PAW_PBE O 08Apr2002                                                 
   LULTRA =        F    use ultrasoft PP ?                                      
   IUNSCR =        1    unscreen: 0-lin 1-nonlin 2-no                           
   RPACOR =    1.200    partial core radius                                     
   POMASS =   16.000; ZVAL   =    6.000    mass and valenz                      
   RCORE  =    1.520    outmost cutoff radius                                   
   RWIGS  =    1.550; RWIGS  =    0.820    wigner-seitz radius (au A)           
   ENMAX  =  400.000; ENMIN  =  300.000 eV                                      
   ICORE  =        2    local potential                                         
   LCOR   =        T    correct aug charges                                     
   LPAW   =        T    paw PP                                                  
   EAUG   =  605.392                                                            
   DEXC   =    0.000                                                            
   RMAX   =    1.553    core radius for proj-oper                               
   RAUG   =    1.300    factor for augmentation sphere                          
   RDEP   =    1.550    radius for radial grids                                 
   RDEPT  =    1.329    core radius for aug-charge                              
                                                                                
   Atomic configuration                                                         
    4 entries                                                                   
     n  l   j            E        occ.                                          
     1  0  0.50      -514.6923   2.0000                                         
     2  0  0.50       -23.9615   2.0000                                         
     2  1  0.50        -9.0305   4.0000                                         
     3  2  1.50        -9.5241   0.0000                                         
   Description                                                                  
     l       E           TYP  RCUT    TYP  RCUT                                 
     0    -23.9615318     23  1.200                                             
     0     -9.5240782     23  1.200                                             
     1     -9.0304911     23  1.520                                             
     1      8.1634956     23  1.520                                             
     2     -9.5240782      7  1.500                                             
  local pseudopotential read in
  partial core-charges read in
  partial kinetic energy density read in
  kinetic energy density of atom read in
  atomic valenz-charges read in
  non local Contribution for L=           0  read in
    real space projection operators read in
  non local Contribution for L=           0  read in
    real space projection operators read in
  non local Contribution for L=           1  read in
    real space projection operators read in
  non local Contribution for L=           1  read in
    real space projection operators read in
    PAW grid and wavefunctions read in
 
   number of l-projection  operators is LMAX  =           4
   number of lm-projection operators is LMMAX =           8
 
 Optimization of the real space projectors (new method)

 maximal supplied QI-value         = 18.33
 optimisation between [QCUT,QGAM] = [ 12.46, 24.93] = [ 43.51,174.03] Ry 
 Optimized for a Real-space Cutoff    1.13 Angstroem

   l    n(q)    QCUT    max X(q) W(low)/X(q) W(high)/X(q)  e(spline) 
   0      8    12.465    33.825    0.12E-03    0.29E-03    0.99E-07
   0      8    12.465     8.944    0.86E-04    0.22E-03    0.72E-07
   1      8    12.465     4.214    0.27E-03    0.11E-03    0.82E-07
 Optimization of the real space projectors (new method)

 maximal supplied QI-value         = 16.25
 optimisation between [QCUT,QGAM] = [ 12.51, 25.03] = [ 43.85,175.40] Ry 
 Optimized for a Real-space Cutoff    1.31 Angstroem

   l    n(q)    QCUT    max X(q) W(low)/X(q) W(high)/X(q)  e(spline) 
   2      9    12.514    65.824    0.30E-03    0.46E-03    0.43E-06
   2      9    12.514    61.429    0.31E-03    0.46E-03    0.44E-06
   0     10    12.514    56.174    0.90E-04    0.33E-03    0.30E-06
   0     10    12.514    31.263    0.81E-04    0.30E-03    0.28E-06
   1      9    12.514    19.828    0.38E-03    0.65E-04    0.24E-06
   1      9    12.514    15.139    0.32E-03    0.60E-04    0.20E-06
 Optimization of the real space projectors (new method)

 maximal supplied QI-value         = 24.76
 optimisation between [QCUT,QGAM] = [ 12.38, 25.00] = [ 42.90,175.06] Ry 
 Optimized for a Real-space Cutoff    1.13 Angstroem

   l    n(q)    QCUT    max X(q) W(low)/X(q) W(high)/X(q)  e(spline) 
   0      8    12.378    20.381    0.16E-03    0.54E-05    0.27E-06
   0      8    12.378    15.268    0.17E-03    0.61E-05    0.29E-06
   1      8    12.378     5.964    0.38E-03    0.23E-03    0.28E-06
   1      8    12.378     5.382    0.33E-03    0.20E-03    0.25E-06
  PAW_PBE Li 17Jan2003                  :
 energy of atom  1       EATOM=   -5.3001
 kinetic energy error for atom=    0.0000 (will be added to EATOM!!)
  PAW_PBE Co 02Aug2007                  :
 energy of atom  2       EATOM= -813.3670
 kinetic energy error for atom=    0.0018 (will be added to EATOM!!)
  PAW_PBE O 08Apr2002                   :
 energy of atom  3       EATOM= -432.3788
 kinetic energy error for atom=    0.0168 (will be added to EATOM!!)
 
 
 POSCAR: Li6 Co12 O24                            
  positions in cartesian coordinates
  No initial velocities read in
 exchange correlation table for  LEXCH =        8
   RHO(1)=    0.500       N(1)  =     2000
   RHO(2)=  100.500       N(2)  =     4000
 


--------------------------------------------------------------------------------------------------------


 ion  position               nearest neighbor table
   1  0.956  0.972  0.002-  38 1.89  25 1.92  36 1.94  26 1.98  35 1.98  23 2.25  10 2.62  18 2.65
                            15 2.69  17 2.73   2 2.73   3 2.76   3 2.76   2 2.78   7 2.89   8 2.91
   2  0.463  0.978  0.009-  23 1.91  24 1.92  38 1.93  36 1.99  37 2.06  25 2.18   8 2.57  17 2.72
                             3 2.72  16 2.73   1 2.73   9 2.76   1 2.78  10 2.79   3 2.81  15 2.83
   3  0.449  0.478  0.002-  35 1.93  24 1.95  37 1.96  23 2.05  38 2.08  26 2.31   7 2.66  15 2.67
                            16 2.68   2 2.72  18 2.76   1 2.76   1 2.76   2 2.81  10 2.86   9 2.95
   4  0.895  0.692  0.332-  32 1.78  20 1.81  19 1.85  33 1.93  22 2.01  34 2.03   8 2.40  11 2.51
                            12 2.54  10 2.60   9 2.63  14 2.65
   5  0.664  0.324  0.670-  40 1.81  41 1.89  42 1.94  27 2.02  29 2.13  30 2.20  17 2.53  18 2.63
                             6 2.70  15 2.77   6 2.85  13 2.87  12 2.88  14 2.89
   6  0.644  0.827  0.653-  28 1.76  39 1.96  29 2.04  30 2.11  42 2.12  41 2.20  13 2.65  14 2.67
                             5 2.70  18 2.76  11 2.81   5 2.85  16 2.85  17 2.85
   7  0.176  0.327  0.183-  19 1.76  20 1.84  23 1.88  25 1.88  22 1.92  24 1.93   3 2.66   9 2.69
                            10 2.71   8 2.76   8 2.77  10 2.81   9 2.82   1 2.89
   8  0.187  0.834  0.181-  24 1.82  21 1.82  23 1.83  26 1.90  20 1.90  19 1.90   4 2.40   2 2.57
                            10 2.73   9 2.74   7 2.76   7 2.77  10 2.78   9 2.78   1 2.91
   9  0.687  0.326  0.180-  21 1.82  25 1.86  22 1.86  20 1.88  26 1.91  23 1.92   4 2.63   7 2.69
                            10 2.70   8 2.74   2 2.76   8 2.78   7 2.82  10 2.83   3 2.95
  10  0.685  0.836  0.179-  21 1.82  22 1.85  19 1.86  24 1.87  26 1.89  25 1.91   4 2.60   1 2.62
                             9 2.70   7 2.71   8 2.73   8 2.78   2 2.79   7 2.81   9 2.83   3 2.86
  11  0.031  0.007  0.488-  27 1.84  32 1.85  30 1.86  31 1.89  34 1.91  29 1.92   4 2.51  13 2.70
                            14 2.72  12 2.75  12 2.78  14 2.80   6 2.81  13 2.82
  12  0.024  0.507  0.491-  31 1.83  29 1.84  30 1.85  33 1.85  28 1.89  32 1.94   4 2.54  14 2.71
                            11 2.75  13 2.76  13 2.76  11 2.78  14 2.81   5 2.88
  13  0.522  0.009  0.480-  32 1.77  34 1.80  28 1.83  33 1.87  27 1.87  29 1.87   6 2.65  11 2.70
                            14 2.76  12 2.76  12 2.76  14 2.77  11 2.82   5 2.87
  14  0.516  0.507  0.483-  31 1.77  27 1.79  34 1.80  30 1.82  33 1.83  28 1.83   4 2.65   6 2.67
                            12 2.71  11 2.72  13 2.76  13 2.77  11 2.80  12 2.81   5 2.89
  15  0.286  0.155  0.833-  41 1.82  42 1.85  36 1.88  39 1.89  37 1.91  35 1.96   3 2.67   1 2.69
                            18 2.72  16 2.74  17 2.75   5 2.77  17 2.77  16 2.79  18 2.80   2 2.83
  16  0.298  0.657  0.833-  40 1.88  36 1.88  38 1.92  41 1.96  35 1.96  42 2.01   3 2.68   2 2.73
                            18 2.73  15 2.74  17 2.75  18 2.78  17 2.78  15 2.79   6 2.85
  17  0.788  0.162  0.836-  37 1.83  38 1.84  40 1.86  41 1.87  35 1.88  39 1.93   5 2.53   2 2.72
                            18 2.73   1 2.73  15 2.75  16 2.75  15 2.77  16 2.78  18 2.80   6 2.85
  18  0.796  0.660  0.831-  40 1.83  42 1.85  36 1.93  37 1.93  38 1.94  39 1.96   5 2.63   1 2.65
                            15 2.72  17 2.73  16 2.73   3 2.76   6 2.76  16 2.78  15 2.80  17 2.80
  19  0.020  0.012  0.253-   7 1.76   4 1.85  10 1.86   8 1.90
  20  0.020  0.498  0.259-   4 1.81   7 1.84   9 1.88   8 1.90
  21  0.520  0.998  0.251-   9 1.82  10 1.82   8 1.82
  22  0.532  0.506  0.253-  10 1.85   9 1.86   7 1.92   4 2.01
  23  0.337  0.156  0.105-   8 1.83   7 1.88   2 1.91   9 1.92   3 2.05   1 2.25
  24  0.346  0.672  0.105-   8 1.82  10 1.87   2 1.92   7 1.93   3 1.95
  25  0.853  0.171  0.098-   9 1.86   7 1.88  10 1.91   1 1.92   2 2.18
  26  0.851  0.665  0.102-  10 1.89   8 1.90   9 1.91   1 1.98   3 2.31
  27  0.371  0.192  0.556-  14 1.79  11 1.84  13 1.87   5 2.02
  28  0.375  0.690  0.558-   6 1.76  14 1.83  13 1.83  12 1.89
  29  0.848  0.173  0.562-  12 1.84  13 1.87  11 1.92   6 2.04   5 2.13
  30  0.841  0.667  0.557-  14 1.82  12 1.85  11 1.86   6 2.11   5 2.20
  31  0.191  0.349  0.415-  14 1.77  12 1.83  11 1.89
  32  0.201  0.850  0.411-  13 1.77   4 1.78  11 1.85  12 1.94
  33  0.696  0.354  0.413-  14 1.83  12 1.85  13 1.87   4 1.93
  34  0.683  0.837  0.415-  13 1.80  14 1.80  11 1.91   4 2.03
  35  0.113  0.320  0.919-  17 1.88   3 1.93  16 1.96  15 1.96   1 1.98
  36  0.137  0.827  0.913-  15 1.88  16 1.88  18 1.93   1 1.94   2 1.99
  37  0.624  0.321  0.913-  17 1.83  15 1.91  18 1.93   3 1.96   2 2.06
  38  0.638  0.841  0.914-  17 1.84   1 1.89  16 1.92   2 1.93  18 1.94   3 2.08
  39  0.960  0.004  0.750-  15 1.89  17 1.93   6 1.96  18 1.96
  40  0.959  0.492  0.759-   5 1.81  18 1.83  17 1.86  16 1.88
  41  0.459  0.009  0.756-  15 1.82  17 1.87   5 1.89  16 1.96   6 2.20
  42  0.473  0.474  0.752-  18 1.85  15 1.85   5 1.94  16 2.01   6 2.12
 

IMPORTANT INFORMATION: All symmetrisations will be switched off!
NOSYMM: (Re-)initialisation of all symmetry stuff for point group C_1.

 
 

Automatic generation of k-mesh.
 generate k-points for:    6    6    2
Space group operators:
 irot       det(A)        alpha          n_x          n_y          n_z        tau_x        tau_y        tau_z
    1     1.000000     0.000001     1.000000     0.000000     0.000000     0.000000     0.000000     0.000000
 
 Subroutine IBZKPT returns following result:
 ===========================================
 
 Found     36 irreducible k-points:
 
 Following reciprocal coordinates:
            Coordinates               Weight
  0.083333  0.083333  0.250000      2.000000
  0.250000  0.083333  0.250000      2.000000
  0.416667  0.083333  0.250000      2.000000
 -0.416667  0.083333  0.250000      2.000000
 -0.250000  0.083333  0.250000      2.000000
 -0.083333  0.083333  0.250000      2.000000
  0.083333  0.250000  0.250000      2.000000
  0.250000  0.250000  0.250000      2.000000
  0.416667  0.250000  0.250000      2.000000
 -0.416667  0.250000  0.250000      2.000000
 -0.250000  0.250000  0.250000      2.000000
 -0.083333  0.250000  0.250000      2.000000
  0.083333  0.416667  0.250000      2.000000
  0.250000  0.416667  0.250000      2.000000
  0.416667  0.416667  0.250000      2.000000
 -0.416667  0.416667  0.250000      2.000000
 -0.250000  0.416667  0.250000      2.000000
 -0.083333  0.416667  0.250000      2.000000
  0.083333 -0.416667  0.250000      2.000000
  0.250000 -0.416667  0.250000      2.000000
  0.416667 -0.416667  0.250000      2.000000
 -0.416667 -0.416667  0.250000      2.000000
 -0.250000 -0.416667  0.250000      2.000000
 -0.083333 -0.416667  0.250000      2.000000
  0.083333 -0.250000  0.250000      2.000000
  0.250000 -0.250000  0.250000      2.000000
  0.416667 -0.250000  0.250000      2.000000
 -0.416667 -0.250000  0.250000      2.000000
 -0.250000 -0.250000  0.250000      2.000000
 -0.083333 -0.250000  0.250000      2.000000
  0.083333 -0.083333  0.250000      2.000000
  0.250000 -0.083333  0.250000      2.000000
  0.416667 -0.083333  0.250000      2.000000
 -0.416667 -0.083333  0.250000      2.000000
 -0.250000 -0.083333  0.250000      2.000000
 -0.083333 -0.083333  0.250000      2.000000
 
 Following cartesian coordinates:
            Coordinates               Weight
  0.015123  0.026117  0.019553      2.000000
  0.045369  0.043553  0.019665      2.000000
  0.075615  0.060989  0.019777      2.000000
 -0.075615 -0.026191  0.019217      2.000000
 -0.045369 -0.008755  0.019329      2.000000
 -0.015123  0.008681  0.019441      2.000000
  0.015123  0.060915  0.019629      2.000000
  0.045369  0.078351  0.019741      2.000000
  0.075615  0.095787  0.019853      2.000000
 -0.075615  0.008608  0.019293      2.000000
 -0.045369  0.026044  0.019405      2.000000
 -0.015123  0.043479  0.019517      2.000000
  0.015123  0.095714  0.019705      2.000000
  0.045369  0.113150  0.019816      2.000000
  0.075615  0.130585  0.019928      2.000000
 -0.075615  0.043406  0.019369      2.000000
 -0.045369  0.060842  0.019481      2.000000
 -0.015123  0.078278  0.019593      2.000000
  0.015123 -0.078278  0.019325      2.000000
  0.045369 -0.060842  0.019437      2.000000
  0.075615 -0.043406  0.019549      2.000000
 -0.075615 -0.130585  0.018990      2.000000
 -0.045369 -0.113150  0.019101      2.000000
 -0.015123 -0.095714  0.019213      2.000000
  0.015123 -0.043479  0.019401      2.000000
  0.045369 -0.026044  0.019513      2.000000
  0.075615 -0.008608  0.019625      2.000000
 -0.075615 -0.095787  0.019065      2.000000
 -0.045369 -0.078351  0.019177      2.000000
 -0.015123 -0.060915  0.019289      2.000000
  0.015123 -0.008681  0.019477      2.000000
  0.045369  0.008755  0.019589      2.000000
  0.075615  0.026191  0.019701      2.000000
 -0.075615 -0.060989  0.019141      2.000000
 -0.045369 -0.043553  0.019253      2.000000
 -0.015123 -0.026117  0.019365      2.000000
 


--------------------------------------------------------------------------------------------------------




 Dimension of arrays:
   k-points           NKPTS =     36   k-points in BZ     NKDIM =     36   number of bands    NBANDS=    160
   number of dos      NEDOS =    301   number of ions     NIONS =     42
   non local maximal  LDIM  =      6   non local SUM 2l+1 LMDIM =     18
   total plane-waves  NPLWV = 103680
   max r-space proj   IRMAX =   2907   max aug-charges    IRDMAX=  12257
   dimension x,y,z NGX =    36 NGY =   36 NGZ =   80
   dimension x,y,z NGXF=    72 NGYF=   72 NGZF=  160
   support grid    NGXF=    72 NGYF=   72 NGZF=  160
   ions per type =               6  12  24
   NGX,Y,Z   is equivalent  to a cutoff of  10.86, 10.83, 10.35 a.u.
   NGXF,Y,Z  is equivalent  to a cutoff of  21.72, 21.65, 20.70 a.u.

 SYSTEM =  LiCoO2                                  
 POSCAR =  Li6 Co12 O24                            

 Startparameter for this run:
   NWRITE =      2    write-flag & timer
   PREC   = normal    normal or accurate (medium, high low for compatibility)
   ISTART =      0    job   : 0-new  1-cont  2-samecut
   ICHARG =      2    charge: 1-file 2-atom 10-const
   ISPIN  =      2    spin polarized calculation?
   LNONCOLLINEAR =      F non collinear calculations
   LSORBIT =      F    spin-orbit coupling
   INIWAV =      1    electr: 0-lowe 1-rand  2-diag
   LASPH  =      F    aspherical Exc in radial PAW
   METAGGA=      F    non-selfconsistent MetaGGA calc.

 Electronic Relaxation 1
   ENCUT  =  600.0 eV  44.10 Ry    6.64 a.u.  11.01 11.04 25.66*2*pi/ulx,y,z
   ENINI  =  600.0     initial cutoff
   ENAUG  =  605.4 eV  augmentation charge cutoff
   NELM   =    600;   NELMIN=  2; NELMDL= -5     # of ELM steps 
   EDIFF  = 0.1E-05   stopping-criterion for ELM
   LREAL  =      T    real-space projection
   NLSPLINE    = F    spline interpolate recip. space projectors
   LCOMPAT=      F    compatible to vasp.4.4
   GGA_COMPAT  = T    GGA compatible to vasp.4.4-vasp.4.6
   LMAXPAW     = -100 max onsite density
   LMAXMIX     =    2 max onsite mixed and CHGCAR
   VOSKOWN=      0    Vosko Wilk Nusair interpolation
   ROPT   =   -0.00050  -0.00050  -0.00050
 Ionic relaxation
   EDIFFG = 0.1E-04   stopping-criterion for IOM
   NSW    =      0    number of steps for IOM
   NBLOCK =      1;   KBLOCK =      1    inner block; outer block 
   IBRION =     -1    ionic relax: 0-MD 1-quasi-New 2-CG
   NFREE  =      0    steps in history (QN), initial steepest desc. (CG)
   ISIF   =      2    stress and relaxation
   IWAVPR =     10    prediction:  0-non 1-charg 2-wave 3-comb
   ISYM   =      0    0-nonsym 1-usesym 2-fastsym
   LCORR  =      T    Harris-Foulkes like correction to forces

   POTIM  = 0.5000    time-step for ionic-motion
   TEIN   =    0.0    initial temperature
   TEBEG  =    0.0;   TEEND  =   0.0 temperature during run
   SMASS  =  -3.00    Nose mass-parameter (am)
   estimated Nose-frequenzy (Omega)   =  0.10E-29 period in steps =****** mass=  -0.694E-27a.u.
   SCALEE = 1.0000    scale energy and forces
   NPACO  =    256;   APACO  = 16.0  distance and # of slots for P.C.
   PSTRESS=    0.0 pullay stress

  Mass of Ions in am
   POMASS =   7.01 58.93 16.00
  Ionic Valenz
   ZVAL   =   1.00  9.00  6.00
  Atomic Wigner-Seitz radii
   RWIGS  =  -1.00 -1.00 -1.00
  virtual crystal weights 
   VCA    =   1.00  1.00  1.00
   NELECT =     258.0000    total number of electrons
   NUPDOWN=       6.0000    fix difference up-down

 DOS related values:
   EMIN   =  10.00;   EMAX   =-10.00  energy-range for DOS
   EFERMI =   0.00
   ISMEAR =     0;   SIGMA  =   0.05  broadening in eV -4-tet -1-fermi 0-gaus

 Electronic relaxation 2 (details)
   IALGO  =     58    algorithm
   LDIAG  =      T    sub-space diagonalisation (order eigenvalues)
   LSUBROT=      F    optimize rotation matrix (better conditioning)
   TURBO    =      0    0=normal 1=particle mesh
   IRESTART =      0    0=no restart 2=restart with 2 vectors
   NREBOOT  =      0    no. of reboots
   NMIN     =      0    reboot dimension
   EREF     =   0.00    reference energy to select bands
   IMIX   =      4    mixing-type and parameters
     AMIX     =   0.40;   BMIX     =  1.00
     AMIX_MAG =   1.60;   BMIX_MAG =  1.00
     AMIN     =   0.10
     WC   =   100.;   INIMIX=   1;  MIXPRE=   1;  MAXMIX= -45

 Intra band minimization:
   WEIMIN = 0.0000     energy-eigenvalue tresh-hold
   EBREAK =  0.16E-08  absolut break condition
   DEPER  =   0.30     relativ break condition  

   TIME   =   0.40     timestep for ELM

  volume/ion in A,a.u.               =       8.07        54.48
  Fermi-wavevector in a.u.,A,eV,Ry     =   1.494571  2.824330 30.391926  2.233744
  Thomas-Fermi vector in A             =   2.606827
 
 Write flags
   LWAVE        =      F    write WAVECAR
   LDOWNSAMPLE  =      F    k-point downsampling of WAVECAR
   LCHARG       =      F    write CHGCAR
   LVTOT        =      F    write LOCPOT, total local potential
   LVHAR        =      F    write LOCPOT, Hartree potential only
   LELF         =      F    write electronic localiz. function (ELF)
   LORBIT       =     11    0 simple, 1 ext, 2 COOP (PROOUT), +10 PAW based schemes


 Dipole corrections
   LMONO  =      F    monopole corrections only (constant potential shift)
   LDIPOL =      F    correct potential (dipole corrections)
   IDIPOL =      0    1-x, 2-y, 3-z, 4-all directions 
   EPSILON=  1.0000000 bulk dielectric constant

 LDA+U is selected, type is set to LDAUTYPE =  2
   angular momentum for each species LDAUL =    -1    2   -1
   U (eV)           for each species LDAUU =   0.0  5.1  0.0
   J (eV)           for each species LDAUJ =   0.0  0.0  0.0
 Exchange correlation treatment:
   GGA     =    --    GGA type
   LEXCH   =     8    internal setting for exchange type
   VOSKOWN=      0    Vosko Wilk Nusair interpolation
   LHFCALC =     F    Hartree Fock is set to
   LHFONE  =     F    Hartree Fock one center treatment
   AEXX    =    0.0000 exact exchange contribution

 Linear response parameters
   LEPSILON=     F    determine dielectric tensor
   LRPA    =     F    only Hartree local field effects (RPA)
   LNABLA  =     F    use nabla operator in PAW spheres
   LVEL    =     F    velocity operator in full k-point grid
   LINTERFAST=   F  fast interpolation
   KINTER  =     0    interpolate to denser k-point grid
   CSHIFT  =0.1000    complex shift for real part using Kramers Kronig
   OMEGAMAX=  -1.0    maximum frequency
   DEG_THRESHOLD= 0.2000000E-02 threshold for treating states as degnerate
   RTIME   =   -0.100 relaxation time in fs
  (WPLASMAI=    0.000 imaginary part of plasma frequency in eV, 0.658/RTIME)
   DFIELD  = 0.0000000 0.0000000 0.0000000 field for delta impulse in time
 
 Orbital magnetization related:
   ORBITALMAG=     F  switch on orbital magnetization
   LCHIMAG   =     F  perturbation theory with respect to B field
   DQ        =  0.001000  dq finite difference perturbation B field
   LLRAUG    =     F  two centre corrections for induced B field



--------------------------------------------------------------------------------------------------------


 Static calculation
 charge density and potential will be updated during run
 spin polarized calculation
 Conjugate gradient for all bands (Freysoldt, et al. PRB 79, 241103 (2009))
 preconditioned conjugated gradient                                        
 perform sub-space diagonalisation
    before iterative eigenvector-optimisation
 modified Broyden-mixing scheme, WC =      100.0
 initial mixing is a Kerker type mixing with AMIX =  0.4000 and BMIX =      1.0000
 Hartree-type preconditioning will be used
 using additional bands           31
 real space projection scheme for non local part
 use partial core corrections
 no Harris-corrections to forces 
 use gradient corrections 
 use of overlap-Matrix (Vanderbilt PP)
 Gauss-broadening in eV      SIGMA  =   0.05


--------------------------------------------------------------------------------------------------------


  energy-cutoff  :      600.00
  volume of cell :      339.07
      direct lattice vectors                 reciprocal lattice vectors
     5.510400295  0.000000000  0.000000000     0.181475019  0.104615446  0.000671674
    -2.761021614  4.789507389  0.000000000     0.000000000  0.208789739  0.000454984
    -0.031411890 -0.027996713 12.847547531     0.000000000  0.000000000  0.077835867

  length of vectors
     5.510400295  5.528347075 12.847616436     0.209470822  0.208790235  0.077835867


 
 k-points in units of 2pi/SCALE and weight: read from INCAR                         
   0.01512292  0.02611710  0.01955285       0.028
   0.04536875  0.04355301  0.01966480       0.028
   0.07561459  0.06098891  0.01977675       0.028
  -0.07561459 -0.02619062  0.01921702       0.028
  -0.04536875 -0.00875472  0.01932896       0.028
  -0.01512292  0.00868119  0.01944091       0.028
   0.01512292  0.06091539  0.01962869       0.028
   0.04536875  0.07835130  0.01974063       0.028
   0.07561459  0.09578720  0.01985258       0.028
  -0.07561459  0.00860767  0.01929285       0.028
  -0.04536875  0.02604357  0.01940479       0.028
  -0.01512292  0.04347948  0.01951674       0.028
   0.01512292  0.09571368  0.01970452       0.028
   0.04536875  0.11314959  0.01981646       0.028
   0.07561459  0.13058549  0.01992841       0.028
  -0.07561459  0.04340596  0.01936868       0.028
  -0.04536875  0.06084186  0.01948062       0.028
  -0.01512292  0.07827777  0.01959257       0.028
   0.01512292 -0.07827777  0.01932536       0.028
   0.04536875 -0.06084186  0.01943731       0.028
   0.07561459 -0.04340596  0.01954925       0.028
  -0.07561459 -0.13058549  0.01898953       0.028
  -0.04536875 -0.11314959  0.01910147       0.028
  -0.01512292 -0.09571368  0.01921342       0.028
   0.01512292 -0.04347948  0.01940119       0.028
   0.04536875 -0.02604357  0.01951314       0.028
   0.07561459 -0.00860767  0.01962508       0.028
  -0.07561459 -0.09578720  0.01906536       0.028
  -0.04536875 -0.07835130  0.01917730       0.028
  -0.01512292 -0.06091539  0.01928925       0.028
   0.01512292 -0.00868119  0.01947702       0.028
   0.04536875  0.00875472  0.01958897       0.028
   0.07561459  0.02619062  0.01970092       0.028
  -0.07561459 -0.06098891  0.01914119       0.028
  -0.04536875 -0.04355301  0.01925313       0.028
  -0.01512292 -0.02611710  0.01936508       0.028
 
 k-points in reciprocal lattice and weights: read from INCAR                         
   0.08333333  0.08333333  0.25000000       0.028
   0.25000000  0.08333333  0.25000000       0.028
   0.41666667  0.08333333  0.25000000       0.028
  -0.41666667  0.08333333  0.25000000       0.028
  -0.25000000  0.08333333  0.25000000       0.028
  -0.08333333  0.08333333  0.25000000       0.028
   0.08333333  0.25000000  0.25000000       0.028
   0.25000000  0.25000000  0.25000000       0.028
   0.41666667  0.25000000  0.25000000       0.028
  -0.41666667  0.25000000  0.25000000       0.028
  -0.25000000  0.25000000  0.25000000       0.028
  -0.08333333  0.25000000  0.25000000       0.028
   0.08333333  0.41666667  0.25000000       0.028
   0.25000000  0.41666667  0.25000000       0.028
   0.41666667  0.41666667  0.25000000       0.028
  -0.41666667  0.41666667  0.25000000       0.028
  -0.25000000  0.41666667  0.25000000       0.028
  -0.08333333  0.41666667  0.25000000       0.028
   0.08333333 -0.41666667  0.25000000       0.028
   0.25000000 -0.41666667  0.25000000       0.028
   0.41666667 -0.41666667  0.25000000       0.028
  -0.41666667 -0.41666667  0.25000000       0.028
  -0.25000000 -0.41666667  0.25000000       0.028
  -0.08333333 -0.41666667  0.25000000       0.028
   0.08333333 -0.25000000  0.25000000       0.028
   0.25000000 -0.25000000  0.25000000       0.028
   0.41666667 -0.25000000  0.25000000       0.028
  -0.41666667 -0.25000000  0.25000000       0.028
  -0.25000000 -0.25000000  0.25000000       0.028
  -0.08333333 -0.25000000  0.25000000       0.028
   0.08333333 -0.08333333  0.25000000       0.028
   0.25000000 -0.08333333  0.25000000       0.028
   0.41666667 -0.08333333  0.25000000       0.028
  -0.41666667 -0.08333333  0.25000000       0.028
  -0.25000000 -0.08333333  0.25000000       0.028
  -0.08333333 -0.08333333  0.25000000       0.028
 
 position of ions in fractional coordinates (direct lattice) 
   0.95573468  0.97212197  0.00161821
   0.46337116  0.97761885  0.00903441
   0.44861813  0.47839924  0.00238411
   0.89466596  0.69172953  0.33195597
   0.66448404  0.32394334  0.67039957
   0.64442625  0.82733380  0.65262028
   0.17569121  0.32709436  0.18255235
   0.18741799  0.83354963  0.18080882
   0.68718086  0.32552534  0.17952143
   0.68466630  0.83645064  0.17881934
   0.03144413  0.00680260  0.48795461
   0.02433400  0.50657565  0.49069753
   0.52176680  0.00913486  0.48046602
   0.51574044  0.50718147  0.48253177
   0.28634215  0.15545344  0.83279084
   0.29838340  0.65743825  0.83314892
   0.78793614  0.16238835  0.83617669
   0.79564244  0.65952050  0.83146761
   0.01986367  0.01222073  0.25293233
   0.02028240  0.49768181  0.25862680
   0.51968605  0.99843998  0.25129932
   0.53156797  0.50645323  0.25258050
   0.33745298  0.15599732  0.10502394
   0.34626498  0.67164853  0.10450088
   0.85330297  0.17133842  0.09810588
   0.85066959  0.66477072  0.10230513
   0.37124969  0.19151565  0.55633654
   0.37526588  0.68986930  0.55842407
   0.84848574  0.17327627  0.56177883
   0.84104115  0.66710185  0.55681989
   0.19121607  0.34868957  0.41473675
   0.20139183  0.85019568  0.41070327
   0.69604763  0.35412477  0.41337696
   0.68263176  0.83728383  0.41530494
   0.11259467  0.32015826  0.91869054
   0.13659993  0.82704719  0.91255706
   0.62352445  0.32140420  0.91288396
   0.63790806  0.84050766  0.91395028
   0.96026284  0.00383316  0.74969324
   0.95855452  0.49150679  0.75921258
   0.45919676  0.00932719  0.75625481
   0.47346226  0.47383813  0.75191940
 
 position of ions in cartesian coordinates  (Angst):
   2.58238006  4.65594006  0.02079000
  -0.14614999  4.68205976  0.11607000
   1.15111995  2.29122996  0.03063000
   3.00966001  3.30375004  4.26482010
   2.74609995  1.53276002  8.61299038
   1.24626005  3.94425011  8.38457012
   0.05928000  1.56150997  2.34535003
  -1.27437997  3.98723006  2.32294989
   2.88222003  1.55408001  2.30641007
   1.45771003  4.00118017  2.29738998
   0.13916001  0.01892000  6.26902008
  -1.27998996  2.41250992  6.30425978
   2.83483005  0.03030000  6.17281008
   1.42644000  2.41564012  6.19934988
   1.12249005  0.72122997 10.69931984
  -0.19716001  3.12547994 10.70392036
   3.86721992  0.75435001 10.74281979
   2.53724003  3.13549995 10.68231964
   0.06777000  0.05145000  3.24956012
  -1.27047002  2.37641001  3.32272005
   0.09907000  4.77500010  3.22858000
   1.52288997  2.41859007  3.24503994
   1.42549002  0.74421000  1.34930003
   0.05034000  3.21393991  1.34257996
   4.22589016  0.81787997  1.26041996
   2.84887004  3.18106008  1.31437004
   1.49948001  0.90169001  7.14756012
   0.14557999  3.28850007  7.17437983
   4.17943001  0.81418002  7.21748018
   2.77509999  3.17950010  7.15376997
   0.07791000  1.65843999  5.32835007
  -1.25056005  4.06052017  5.27652979
   2.84476995  1.68450999  5.31088018
   1.43676996  3.99854994  5.33564997
  -0.29238001  1.50768006 11.80292034
  -1.55944002  3.93560004 11.72412014
   2.51978993  1.51381004 11.72832012
   1.16576004  4.00003004 11.74201965
   5.25729990 -0.00263000  9.63171959
   3.90110993  2.33281994  9.75401974
   2.48084998  0.02350000  9.71601963
   1.27707005  2.24839997  9.66032028
 


--------------------------------------------------------------------------------------------------------


 k-point  1 :   0.0833 0.0833 0.2500  plane waves:   11271
 k-point  2 :   0.2500 0.0833 0.2500  plane waves:   11327
 k-point  3 :   0.4167 0.0833 0.2500  plane waves:   11330
 k-point  4 :  -0.4167 0.0833 0.2500  plane waves:   11328
 k-point  5 :  -0.2500 0.0833 0.2500  plane waves:   11308
 k-point  6 :  -0.0833 0.0833 0.2500  plane waves:   11265
 k-point  7 :   0.0833 0.2500 0.2500  plane waves:   11323
 k-point  8 :   0.2500 0.2500 0.2500  plane waves:   11327
 k-point  9 :   0.4167 0.2500 0.2500  plane waves:   11328
 k-point 10 :  -0.4167 0.2500 0.2500  plane waves:   11336
 k-point 11 :  -0.2500 0.2500 0.2500  plane waves:   11311
 k-point 12 :  -0.0833 0.2500 0.2500  plane waves:   11285
 k-point 13 :   0.0833 0.4167 0.2500  plane waves:   11328
 k-point 14 :   0.2500 0.4167 0.2500  plane waves:   11320
 k-point 15 :   0.4167 0.4167 0.2500  plane waves:   11340
 k-point 16 :  -0.4167 0.4167 0.2500  plane waves:   11313
 k-point 17 :  -0.2500 0.4167 0.2500  plane waves:   11325
 k-point 18 :  -0.0833 0.4167 0.2500  plane waves:   11334
 k-point 19 :   0.0833-0.4167 0.2500  plane waves:   11333
 k-point 20 :   0.2500-0.4167 0.2500  plane waves:   11321
 k-point 21 :   0.4167-0.4167 0.2500  plane waves:   11325
 k-point 22 :  -0.4167-0.4167 0.2500  plane waves:   11334
 k-point 23 :  -0.2500-0.4167 0.2500  plane waves:   11329
 k-point 24 :  -0.0833-0.4167 0.2500  plane waves:   11344
 k-point 25 :   0.0833-0.2500 0.2500  plane waves:   11298
 k-point 26 :   0.2500-0.2500 0.2500  plane waves:   11307
 k-point 27 :   0.4167-0.2500 0.2500  plane waves:   11330
 k-point 28 :  -0.4167-0.2500 0.2500  plane waves:   11331
 k-point 29 :  -0.2500-0.2500 0.2500  plane waves:   11334
 k-point 30 :  -0.0833-0.2500 0.2500  plane waves:   11318
 k-point 31 :   0.0833-0.0833 0.2500  plane waves:   11262
 k-point 32 :   0.2500-0.0833 0.2500  plane waves:   11305
 k-point 33 :   0.4167-0.0833 0.2500  plane waves:   11327
 k-point 34 :  -0.4167-0.0833 0.2500  plane waves:   11339
 k-point 35 :  -0.2500-0.0833 0.2500  plane waves:   11316
 k-point 36 :  -0.0833-0.0833 0.2500  plane waves:   11278

 maximum and minimum number of plane-waves per node :      2860     2791

 maximum number of plane-waves:     11344
 maximum index in each direction: 
   IXMAX=   11   IYMAX=   11   IZMAX=   25
   IXMIN=  -11   IYMIN=  -11   IZMIN=  -25


 real space projection operators:
  total allocation   :       7767.20 KBytes
  max/ min on nodes  :       1949.69       1931.70


 parallel 3D FFT for wavefunctions:
    minimum data exchange during FFTs selected (reduces bandwidth)
 parallel 3D FFT for charge:
    minimum data exchange during FFTs selected (reduces bandwidth)


 total amount of memory used by VASP MPI-rank0   143268. kBytes
=======================================================================

   base      :      30000. kBytes
   nonlr-proj:       4443. kBytes
   fftplans  :       1502. kBytes
   grid      :       4132. kBytes
   one-center:        342. kBytes
   wavefun   :     102849. kBytes
 
     INWAV:  cpu time    0.0000: real time    0.0002
 Broyden mixing: mesh for mixing (old mesh)
   NGX = 21   NGY = 23   NGZ = 51
  (NGX  = 72   NGY  = 72   NGZ  =160)
  gives a total of  24633 points

 initial charge density was supplied:
 charge density of overlapping atoms calculated
 number of electron     258.0000000 magnetization       6.0000000
 keeping initial charge density in first step


--------------------------------------------------------------------------------------------------------


 Maximum index for non-local projection operator          708
 Maximum index for augmentation-charges          890 (set IRDMAX)


--------------------------------------------------------------------------------------------------------


 First call to EWALD:  gamma=   0.254
 Maximum number of real-space cells 4x 4x 2
 Maximum number of reciprocal cells 2x 2x 5

    FEWALD:  cpu time    0.0051: real time    0.0050


--------------------------------------- Iteration      1(   1)  ---------------------------------------


    POTLOK:  cpu time    0.0649: real time    0.0694
    SETDIJ:  cpu time    0.0196: real time    0.0205
    TRIAL :  cpu time   23.5025: real time   23.7169
    CORREC:  cpu time    0.0042: real time    0.0042
    --------------------------------------------
      LOOP:  cpu time   23.8049: real time   24.0277

 eigenvalue-minimisations  : 23040
 total energy-change (2. order) : 0.3573833E+04  (-0.1406398E+05)
 number of electron     258.0000000 magnetization       6.0000000
 augmentation part      258.0000000 magnetization       6.0000000

 Free energy of the ion-electron system (eV)
  ---------------------------------------------------
  alpha Z        PSCENC =       864.61044642
  Ewald energy   TEWEN  =    -15567.97733189
  -Hartree energ DENC   =     -5938.22063994
  -exchange      EXHF   =         0.00000000
  -V(xc)+E(xc)   XCENC  =       851.14559782
  PAW double counting   =     17015.18481625   -17491.61297812
  entropy T*S    EENTRO =        -0.00643160
  eigenvalues    EBANDS =      3671.83886085
  atomic energy  EATOM  =     20168.87094289
  ---------------------------------------------------
  free energy    TOTEN  =      3573.83328267 eV

  energy without entropy =     3573.83971427  energy(sigma->0) =     3573.83649847


--------------------------------------------------------------------------------------------------------




--------------------------------------- Iteration      1(   2)  ---------------------------------------


    TRIAL :  cpu time   24.1555: real time   24.6017
    CORREC:  cpu time    0.0041: real time    0.0042
    --------------------------------------------
      LOOP:  cpu time   24.1639: real time   24.6102

 eigenvalue-minimisations  : 24896
 total energy-change (2. order) :-0.3172832E+04  (-0.2914668E+04)
 number of electron     258.0000000 magnetization       6.0000000
 augmentation part      258.0000000 magnetization       6.0000000

 Free energy of the ion-electron system (eV)
  ---------------------------------------------------
  alpha Z        PSCENC =       864.61044642
  Ewald energy   TEWEN  =    -15567.97733189
  -Hartree energ DENC   =     -5938.22063994
  -exchange      EXHF   =         0.00000000
  -V(xc)+E(xc)   XCENC  =       851.14559782
  PAW double counting   =     17015.18481625   -17491.61297812
  entropy T*S    EENTRO =        -0.02001054
  eigenvalues    EBANDS =       499.02026688
  atomic energy  EATOM  =     20168.87094289
  ---------------------------------------------------
  free energy    TOTEN  =       401.00110976 eV

  energy without entropy =      401.02112030  energy(sigma->0) =      401.01111503


--------------------------------------------------------------------------------------------------------




--------------------------------------- Iteration      1(   3)  ---------------------------------------


    TRIAL :  cpu time   23.9689: real time   24.5336
    CORREC:  cpu time    0.0042: real time    0.0042
    --------------------------------------------
      LOOP:  cpu time   23.9733: real time   24.5422

 eigenvalue-minimisations  : 24800
 total energy-change (2. order) :-0.6238037E+03  (-0.5638288E+03)
 number of electron     258.0000000 magnetization       6.0000000
 augmentation part      258.0000000 magnetization       6.0000000

 Free energy of the ion-electron system (eV)
  ---------------------------------------------------
  alpha Z        PSCENC =       864.61044642
  Ewald energy   TEWEN  =    -15567.97733189
  -Hartree energ DENC   =     -5938.22063994
  -exchange      EXHF   =         0.00000000
  -V(xc)+E(xc)   XCENC  =       851.14559782
  PAW double counting   =     17015.18481625   -17491.61297812
  entropy T*S    EENTRO =        -0.03285729
  eigenvalues    EBANDS =      -124.77060210
  atomic energy  EATOM  =     20168.87094289
  ---------------------------------------------------
  free energy    TOTEN  =      -222.80260597 eV

  energy without entropy =     -222.76974868  energy(sigma->0) =     -222.78617733


--------------------------------------------------------------------------------------------------------




--------------------------------------- Iteration      1(   4)  ---------------------------------------


    TRIAL :  cpu time   24.4472: real time   24.9237
    CORREC:  cpu time    0.0032: real time    0.0032
    --------------------------------------------
      LOOP:  cpu time   24.4508: real time   24.9316

 eigenvalue-minimisations  : 25328
 total energy-change (2. order) :-0.4812813E+02  (-0.4722755E+02)
 number of electron     258.0000000 magnetization       6.0000000
 augmentation part      258.0000000 magnetization       6.0000000

 Free energy of the ion-electron system (eV)
  ---------------------------------------------------
  alpha Z        PSCENC =       864.61044642
  Ewald energy   TEWEN  =    -15567.97733189
  -Hartree energ DENC   =     -5938.22063994
  -exchange      EXHF   =         0.00000000
  -V(xc)+E(xc)   XCENC  =       851.14559782
  PAW double counting   =     17015.18481625   -17491.61297812
  entropy T*S    EENTRO =        -0.03984577
  eigenvalues    EBANDS =      -172.89174325
  atomic energy  EATOM  =     20168.87094289
  ---------------------------------------------------
  free energy    TOTEN  =      -270.93073560 eV

  energy without entropy =     -270.89088983  energy(sigma->0) =     -270.91081271


--------------------------------------------------------------------------------------------------------




--------------------------------------- Iteration      1(   5)  ---------------------------------------


    TRIAL :  cpu time   26.6232: real time   26.7073
    CORREC:  cpu time    0.0041: real time    0.0041
    CHARGE:  cpu time    0.3822: real time    0.3827
    --------------------------------------------
      LOOP:  cpu time   27.0137: real time   27.0983

 eigenvalue-minimisations  : 27488
 total energy-change (2. order) :-0.1477468E+01  (-0.1475030E+01)
 number of electron     258.0000049 magnetization       6.0000005
 augmentation part       68.2931072 magnetization       4.2978156

 Free energy of the ion-electron system (eV)
  ---------------------------------------------------
  alpha Z        PSCENC =       864.61044642
  Ewald energy   TEWEN  =    -15567.97733189
  -Hartree energ DENC   =     -5938.22063994
  -exchange      EXHF   =         0.00000000
  -V(xc)+E(xc)   XCENC  =       851.14559782
  PAW double counting   =     17015.18481625   -17491.61297812
  entropy T*S    EENTRO =        -0.04017831
  eigenvalues    EBANDS =      -174.36887906
  atomic energy  EATOM  =     20168.87094289
  ---------------------------------------------------
  free energy    TOTEN  =      -272.40820394 eV

  energy without entropy =     -272.36802564  energy(sigma->0) =     -272.38811479


--------------------------------------------------------------------------------------------------------




--------------------------------------- Iteration      1(   6)  ---------------------------------------


    POTLOK:  cpu time    0.0437: real time    0.0438
    SETDIJ:  cpu time    0.0131: real time    0.0131
    TRIAL :  cpu time   13.4021: real time   13.4362
    CORREC:  cpu time    4.4590: real time    4.4690
    CHARGE:  cpu time    0.3753: real time    0.3761
    --------------------------------------------
      LOOP:  cpu time   18.2973: real time   18.3423

 eigenvalue-minimisations  :     0
 total energy-change (2. order) : 0.3546105E+03  (-0.1781905E+03)
 number of electron     258.0000053 magnetization       6.0000004
 augmentation part       71.1099671 magnetization       4.4636931

 Free energy of the ion-electron system (eV)
  ---------------------------------------------------
  alpha Z        PSCENC =       864.61044642
  Ewald energy   TEWEN  =    -15567.97733189
  -Hartree energ DENC   =     -5610.64332823
  -exchange      EXHF   =         0.00000000
  -V(xc)+E(xc)   XCENC  =       884.02581906
  PAW double counting   =     24842.56843622   -25054.85261866
  entropy T*S    EENTRO =        -0.03906152
  eigenvalues    EBANDS =      -444.35990423
  atomic energy  EATOM  =     20168.87094289
  ---------------------------------------------------
  free energy    TOTEN  =        82.20228326 eV

  energy without entropy =       82.24134478  energy(sigma->0) =       82.22181402


--------------------------------------------------------------------------------------------------------




--------------------------------------- Iteration      1(   7)  ---------------------------------------


    POTLOK:  cpu time    0.0425: real time    0.0426
    SETDIJ:  cpu time    0.0134: real time    0.0134
    TRIAL :  cpu time   13.2715: real time   13.3049
    CORREC:  cpu time    4.4443: real time    4.4536
    CHARGE:  cpu time    0.3782: real time    0.3787
    --------------------------------------------
      LOOP:  cpu time   18.1542: real time   18.1975

 eigenvalue-minimisations  :     0
 total energy-change (2. order) :-0.8678686E+02  (-0.2723434E+03)
 number of electron     258.0000055 magnetization       6.0000003
 augmentation part       74.6978612 magnetization       4.0187271

 Free energy of the ion-electron system (eV)
  ---------------------------------------------------
  alpha Z        PSCENC =       864.61044642
  Ewald energy   TEWEN  =    -15567.97733189
  -Hartree energ DENC   =     -5885.18281376
  -exchange      EXHF   =         0.00000000
  -V(xc)+E(xc)   XCENC  =       875.15858878
  PAW double counting   =     24931.38058621   -25257.84927886
  entropy T*S    EENTRO =        -0.01279071
  eigenvalues    EBANDS =      -133.55665232
  atomic energy  EATOM  =     20168.87094289
  ---------------------------------------------------
  free energy    TOTEN  =        -4.58457406 eV

  energy without entropy =       -4.57178336  energy(sigma->0) =       -4.57817871


--------------------------------------------------------------------------------------------------------




--------------------------------------- Iteration      1(   8)  ---------------------------------------


    POTLOK:  cpu time    0.0428: real time    0.0429
    SETDIJ:  cpu time    0.0132: real time    0.0133
    TRIAL :  cpu time   13.6200: real time   13.6527
    CORREC:  cpu time    4.2785: real time    4.2880
    CHARGE:  cpu time    0.3729: real time    0.3734
    --------------------------------------------
      LOOP:  cpu time   18.3318: real time   18.3746

 eigenvalue-minimisations  :     0
 total energy-change (2. order) :-0.1212537E+03  (-0.5057745E+02)
 number of electron     258.0000056 magnetization       6.0000003
 augmentation part       76.3558525 magnetization       3.8110454

 Free energy of the ion-electron system (eV)
  ---------------------------------------------------
  alpha Z        PSCENC =       864.61044642
  Ewald energy   TEWEN  =    -15567.97733189
  -Hartree energ DENC   =     -5642.84067422
  -exchange      EXHF   =         0.00000000
  -V(xc)+E(xc)   XCENC  =       860.39878308
  PAW double counting   =     24506.63864248   -24981.60587503
  entropy T*S    EENTRO =        -0.02584256
  eigenvalues    EBANDS =      -333.92043996
  atomic energy  EATOM  =     20168.87094289
  ---------------------------------------------------
  free energy    TOTEN  =      -125.83829694 eV

  energy without entropy =     -125.81245439  energy(sigma->0) =     -125.82537567


--------------------------------------------------------------------------------------------------------




--------------------------------------- Iteration      1(   9)  ---------------------------------------


    POTLOK:  cpu time    0.0422: real time    0.0423
    SETDIJ:  cpu time    0.0129: real time    0.0131
    TRIAL :  cpu time   14.3902: real time   14.8657
    CORREC:  cpu time    4.3235: real time    4.3331
    CHARGE:  cpu time    0.3768: real time    0.3773
    --------------------------------------------
      LOOP:  cpu time   19.1499: real time   19.6357

 eigenvalue-minimisations  :     0
 total energy-change (2. order) :-0.5706633E+02  (-0.2656386E+02)
 number of electron     258.0000056 magnetization       6.0000003
 augmentation part       77.1168144 magnetization       3.7640233

 Free energy of the ion-electron system (eV)
  ---------------------------------------------------
  alpha Z        PSCENC =       864.61044642
  Ewald energy   TEWEN  =    -15567.97733189
  -Hartree energ DENC   =     -5749.23383790
  -exchange      EXHF   =         0.00000000
  -V(xc)+E(xc)   XCENC  =       857.05172773
  PAW double counting   =     24718.00046344   -25258.22027892
  entropy T*S    EENTRO =        -0.02861463
  eigenvalues    EBANDS =      -215.98091125
  atomic energy  EATOM  =     20168.87094289
  ---------------------------------------------------
  free energy    TOTEN  =      -182.90462205 eV

  energy without entropy =     -182.87600741  energy(sigma->0) =     -182.89031473


--------------------------------------------------------------------------------------------------------




--------------------------------------- Iteration      1(  10)  ---------------------------------------


    POTLOK:  cpu time    0.0424: real time    0.0425
    SETDIJ:  cpu time    0.0129: real time    0.0129
    TRIAL :  cpu time   13.4186: real time   13.4592
    CORREC:  cpu time    4.3509: real time    4.3600
    CHARGE:  cpu time    0.3751: real time    0.3755
    --------------------------------------------
      LOOP:  cpu time   18.2041: real time   18.2544

 eigenvalue-minimisations  :     0
 total energy-change (2. order) : 0.3154963E+01  (-0.2663516E+02)
 number of electron     258.0000055 magnetization       6.0000003
 augmentation part       76.7624694 magnetization       3.7696783

 Free energy of the ion-electron system (eV)
  ---------------------------------------------------
  alpha Z        PSCENC =       864.61044642
  Ewald energy   TEWEN  =    -15567.97733189
  -Hartree energ DENC   =     -5932.61505590
  -exchange      EXHF   =         0.00000000
  -V(xc)+E(xc)   XCENC  =       856.26938909
  PAW double counting   =     24979.00854764   -25550.11580596
  entropy T*S    EENTRO =        -0.02805378
  eigenvalues    EBANDS =         2.22782282
  atomic energy  EATOM  =     20168.87094289
  ---------------------------------------------------
  free energy    TOTEN  =      -179.74965955 eV

  energy without entropy =     -179.72160576  energy(sigma->0) =     -179.73563265


--------------------------------------------------------------------------------------------------------




--------------------------------------- Iteration      1(  11)  ---------------------------------------


    POTLOK:  cpu time    0.0432: real time    0.0433
    SETDIJ:  cpu time    0.0130: real time    0.0131
    TRIAL :  cpu time   13.4764: real time   13.5079
    CORREC:  cpu time    4.3836: real time    4.3929
    CHARGE:  cpu time    0.3771: real time    0.3776
    --------------------------------------------
      LOOP:  cpu time   18.2974: real time   18.3389

 eigenvalue-minimisations  :     0
 total energy-change (2. order) :-0.1673492E+02  (-0.1406678E+02)
 number of electron     258.0000055 magnetization       6.0000003
 augmentation part       75.7606885 magnetization       3.8346244

 Free energy of the ion-electron system (eV)
  ---------------------------------------------------
  alpha Z        PSCENC =       864.61044642
  Ewald energy   TEWEN  =    -15567.97733189
  -Hartree energ DENC   =     -5790.19913876
  -exchange      EXHF   =         0.00000000
  -V(xc)+E(xc)   XCENC  =       856.50918862
  PAW double counting   =     24849.86275092   -25400.52449279
  entropy T*S    EENTRO =        -0.02638473
  eigenvalues    EBANDS =      -177.60889240
  atomic energy  EATOM  =     20168.87094289
  ---------------------------------------------------
  free energy    TOTEN  =      -196.48458079 eV

  energy without entropy =     -196.45819606  energy(sigma->0) =     -196.47138842


--------------------------------------------------------------------------------------------------------




--------------------------------------- Iteration      1(  12)  ---------------------------------------


    POTLOK:  cpu time    0.0423: real time    0.0423
    SETDIJ:  cpu time    0.0131: real time    0.0131
    TRIAL :  cpu time   13.4553: real time   13.5002
    CORREC:  cpu time    4.1718: real time    4.1805
    CHARGE:  cpu time    0.3745: real time    0.3753
    --------------------------------------------
      LOOP:  cpu time   18.0612: real time   18.1156

 eigenvalue-minimisations  :     0
 total energy-change (2. order) :-0.1019203E+02  (-0.5764787E+01)
 number of electron     258.0000054 magnetization       6.0000003
 augmentation part       75.4765144 magnetization       3.8442819

 Free energy of the ion-electron system (eV)
  ---------------------------------------------------
  alpha Z        PSCENC =       864.61044642
  Ewald energy   TEWEN  =    -15567.97733189
  -Hartree energ DENC   =     -5823.43455981
  -exchange      EXHF   =         0.00000000
  -V(xc)+E(xc)   XCENC  =       857.39562457
  PAW double counting   =     24690.50018679   -25191.39298063
  entropy T*S    EENTRO =        -0.02435644
  eigenvalues    EBANDS =      -205.22255639
  atomic energy  EATOM  =     20168.87094289
  ---------------------------------------------------
  free energy    TOTEN  =      -206.67661279 eV

  energy without entropy =     -206.65225635  energy(sigma->0) =     -206.66443457


--------------------------------------------------------------------------------------------------------




--------------------------------------- Iteration      1(  13)  ---------------------------------------


    POTLOK:  cpu time    0.0425: real time    0.0426
    SETDIJ:  cpu time    0.0132: real time    0.0132
    TRIAL :  cpu time   13.3193: real time   13.4284
    CORREC:  cpu time    4.2207: real time    4.2396
    CHARGE:  cpu time    0.3738: real time    0.3750
    --------------------------------------------
      LOOP:  cpu time   17.9738: real time   18.1032

 eigenvalue-minimisations  :     0
 total energy-change (2. order) :-0.4924232E+01  (-0.3920039E+01)
 number of electron     258.0000054 magnetization       6.0000003
 augmentation part       75.4459271 magnetization       3.8483809

 Free energy of the ion-electron system (eV)
  ---------------------------------------------------
  alpha Z        PSCENC =       864.61044642
  Ewald energy   TEWEN  =    -15567.97733189
  -Hartree energ DENC   =     -5814.05636027
  -exchange      EXHF   =         0.00000000
  -V(xc)+E(xc)   XCENC  =       857.90823990
  PAW double counting   =     24686.13496992   -25169.29654059
  entropy T*S    EENTRO =        -0.02485594
  eigenvalues    EBANDS =      -237.77085476
  atomic energy  EATOM  =     20168.87094289
  ---------------------------------------------------
  free energy    TOTEN  =      -211.60084484 eV

  energy without entropy =     -211.57598890  energy(sigma->0) =     -211.58841687


--------------------------------------------------------------------------------------------------------




--------------------------------------- Iteration      1(  14)  ---------------------------------------


    POTLOK:  cpu time    0.0426: real time    0.0426
    SETDIJ:  cpu time    0.0132: real time    0.0132
    TRIAL :  cpu time   13.1709: real time   13.3396
    CORREC:  cpu time    4.3907: real time    4.4005
    CHARGE:  cpu time    0.3776: real time    0.3784
    --------------------------------------------
      LOOP:  cpu time   17.9993: real time   18.1785

 eigenvalue-minimisations  :     0
 total energy-change (2. order) :-0.3147529E+01  (-0.1862959E+01)
 number of electron     258.0000054 magnetization       6.0000003
 augmentation part       75.6034379 magnetization       3.8442869

 Free energy of the ion-electron system (eV)
  ---------------------------------------------------
  alpha Z        PSCENC =       864.61044642
  Ewald energy   TEWEN  =    -15567.97733189
  -Hartree energ DENC   =     -5817.12115728
  -exchange      EXHF   =         0.00000000
  -V(xc)+E(xc)   XCENC  =       858.49443903
  PAW double counting   =     24779.68411836   -25253.05002876
  entropy T*S    EENTRO =        -0.02318721
  eigenvalues    EBANDS =      -248.23494634
  atomic energy  EATOM  =     20168.87094289
  ---------------------------------------------------
  free energy    TOTEN  =      -214.74837352 eV

  energy without entropy =     -214.72518632  energy(sigma->0) =     -214.73677992


--------------------------------------------------------------------------------------------------------




--------------------------------------- Iteration      1(  15)  ---------------------------------------


    POTLOK:  cpu time    0.0425: real time    0.0425
    SETDIJ:  cpu time    0.0135: real time    0.0135
    TRIAL :  cpu time   13.4282: real time   13.4577
    CORREC:  cpu time    4.3521: real time    4.3611
    CHARGE:  cpu time    0.3721: real time    0.3726
    --------------------------------------------
      LOOP:  cpu time   18.2125: real time   18.2518

 eigenvalue-minimisations  :     0
 total energy-change (2. order) :-0.1722568E+01  (-0.1462223E+01)
 number of electron     258.0000054 magnetization       6.0000003
 augmentation part       75.8476615 magnetization       3.8255818

 Free energy of the ion-electron system (eV)
  ---------------------------------------------------
  alpha Z        PSCENC =       864.61044642
  Ewald energy   TEWEN  =    -15567.97733189
  -Hartree energ DENC   =     -5861.60918614
  -exchange      EXHF   =         0.00000000
  -V(xc)+E(xc)   XCENC  =       858.84543215
  PAW double counting   =     24872.45633477   -25345.59870651
  entropy T*S    EENTRO =        -0.02082139
  eigenvalues    EBANDS =      -206.04568630
  atomic energy  EATOM  =     20168.87094289
  ---------------------------------------------------
  free energy    TOTEN  =      -216.47094183 eV

  energy without entropy =     -216.45012044  energy(sigma->0) =     -216.46053114


--------------------------------------------------------------------------------------------------------




--------------------------------------- Iteration      1(  16)  ---------------------------------------


    POTLOK:  cpu time    0.0424: real time    0.0424
    SETDIJ:  cpu time    0.0131: real time    0.0131
    TRIAL :  cpu time   13.2082: real time   13.2415
    CORREC:  cpu time    4.2240: real time    4.2330
    CHARGE:  cpu time    0.3774: real time    0.3779
    --------------------------------------------
      LOOP:  cpu time   17.8692: real time   17.9122

 eigenvalue-minimisations  :     0
 total energy-change (2. order) :-0.1354301E+01  (-0.3805857E+00)
 number of electron     258.0000054 magnetization       6.0000003
 augmentation part       75.9226495 magnetization       3.8125009

 Free energy of the ion-electron system (eV)
  ---------------------------------------------------
  alpha Z        PSCENC =       864.61044642
  Ewald energy   TEWEN  =    -15567.97733189
  -Hartree energ DENC   =     -5872.39078897
  -exchange      EXHF   =         0.00000000
  -V(xc)+E(xc)   XCENC  =       859.15626971
  PAW double counting   =     24967.06746803   -25442.66568021
  entropy T*S    EENTRO =        -0.02032935
  eigenvalues    EBANDS =      -194.47574720
  atomic energy  EATOM  =     20168.87094289
  ---------------------------------------------------
  free energy    TOTEN  =      -217.82524262 eV

  energy without entropy =     -217.80491328  energy(sigma->0) =     -217.81507795


--------------------------------------------------------------------------------------------------------




--------------------------------------- Iteration      1(  17)  ---------------------------------------


    POTLOK:  cpu time    0.0457: real time    0.0458
    SETDIJ:  cpu time    0.0130: real time    0.0130
    TRIAL :  cpu time   13.2897: real time   13.3201
    CORREC:  cpu time    4.4005: real time    4.4095
    CHARGE:  cpu time    0.3727: real time    0.3732
    --------------------------------------------
      LOOP:  cpu time   18.1260: real time   18.1659

 eigenvalue-minimisations  :     0
 total energy-change (2. order) :-0.3672876E+00  (-0.4570265E+00)
 number of electron     258.0000054 magnetization       6.0000003
 augmentation part       75.9940964 magnetization       3.7815965

 Free energy of the ion-electron system (eV)
  ---------------------------------------------------
  alpha Z        PSCENC =       864.61044642
  Ewald energy   TEWEN  =    -15567.97733189
  -Hartree energ DENC   =     -5874.19974440
  -exchange      EXHF   =         0.00000000
  -V(xc)+E(xc)   XCENC  =       859.22523584
  PAW double counting   =     24984.35829485   -25459.43237484
  entropy T*S    EENTRO =        -0.01966627
  eigenvalues    EBANDS =      -193.62766971
  atomic energy  EATOM  =     20168.87094289
  ---------------------------------------------------
  free energy    TOTEN  =      -218.19253019 eV

  energy without entropy =     -218.17286392  energy(sigma->0) =     -218.18269706


--------------------------------------------------------------------------------------------------------




--------------------------------------- Iteration      1(  18)  ---------------------------------------


    POTLOK:  cpu time    0.0526: real time    0.0527
    SETDIJ:  cpu time    0.0130: real time    0.0130
    TRIAL :  cpu time   13.5879: real time   13.6194
    CORREC:  cpu time    4.1334: real time    4.1429
    CHARGE:  cpu time    0.3693: real time    0.3698
    --------------------------------------------
      LOOP:  cpu time   18.1595: real time   18.2010

 eigenvalue-minimisations  :     0
 total energy-change (2. order) :-0.4472705E+00  (-0.3113887E+00)
 number of electron     258.0000054 magnetization       6.0000003
 augmentation part       76.0388105 magnetization       3.7491218

 Free energy of the ion-electron system (eV)
  ---------------------------------------------------
  alpha Z        PSCENC =       864.61044642
  Ewald energy   TEWEN  =    -15567.97733189
  -Hartree energ DENC   =     -5883.64340868
  -exchange      EXHF   =         0.00000000
  -V(xc)+E(xc)   XCENC  =       859.32204855
  PAW double counting   =     24972.00863753   -25443.00057924
  entropy T*S    EENTRO =        -0.01799951
  eigenvalues    EBANDS =      -188.81089000
  atomic energy  EATOM  =     20168.87094289
  ---------------------------------------------------
  free energy    TOTEN  =      -218.63980071 eV

  energy without entropy =     -218.62180119  energy(sigma->0) =     -218.63080095


--------------------------------------------------------------------------------------------------------




--------------------------------------- Iteration      1(  19)  ---------------------------------------


    POTLOK:  cpu time    0.0426: real time    0.0426
    SETDIJ:  cpu time    0.0130: real time    0.0130
    TRIAL :  cpu time   13.1718: real time   13.2025
    CORREC:  cpu time    4.2182: real time    4.2276
    CHARGE:  cpu time    0.3665: real time    0.3670
    --------------------------------------------
      LOOP:  cpu time   17.8167: real time   17.8580

 eigenvalue-minimisations  :     0
 total energy-change (2. order) :-0.3034043E+00  (-0.1063914E+00)
 number of electron     258.0000054 magnetization       6.0000003
 augmentation part       76.0726214 magnetization       3.7338778

 Free energy of the ion-electron system (eV)
  ---------------------------------------------------
  alpha Z        PSCENC =       864.61044642
  Ewald energy   TEWEN  =    -15567.97733189
  -Hartree energ DENC   =     -5875.85421856
  -exchange      EXHF   =         0.00000000
  -V(xc)+E(xc)   XCENC  =       859.47484546
  PAW double counting   =     24938.17974118   -25404.82295590
  entropy T*S    EENTRO =        -0.01812785
  eigenvalues    EBANDS =      -201.40667505
  atomic energy  EATOM  =     20168.87094289
  ---------------------------------------------------
  free energy    TOTEN  =      -218.94320497 eV

  energy without entropy =     -218.92507713  energy(sigma->0) =     -218.93414105


--------------------------------------------------------------------------------------------------------




--------------------------------------- Iteration      1(  20)  ---------------------------------------


    POTLOK:  cpu time    0.0424: real time    0.0424
    SETDIJ:  cpu time    0.0131: real time    0.0131
    TRIAL :  cpu time   13.4297: real time   13.4604
    CORREC:  cpu time    4.3710: real time    4.3821
    CHARGE:  cpu time    0.3681: real time    0.3685
    --------------------------------------------
      LOOP:  cpu time   18.2285: real time   18.2708

 eigenvalue-minimisations  :     0
 total energy-change (2. order) :-0.1054937E+00  (-0.9157405E-01)
 number of electron     258.0000054 magnetization       6.0000003
 augmentation part       76.1497043 magnetization       3.7125607

 Free energy of the ion-electron system (eV)
  ---------------------------------------------------
  alpha Z        PSCENC =       864.61044642
  Ewald energy   TEWEN  =    -15567.97733189
  -Hartree energ DENC   =     -5883.13659118
  -exchange      EXHF   =         0.00000000
  -V(xc)+E(xc)   XCENC  =       859.60239775
  PAW double counting   =     24921.38554522   -25386.93916568
  entropy T*S    EENTRO =        -0.01768671
  eigenvalues    EBANDS =      -195.44681432
  atomic energy  EATOM  =     20168.87094289
  ---------------------------------------------------
  free energy    TOTEN  =      -219.04869865 eV

  energy without entropy =     -219.03101194  energy(sigma->0) =     -219.03985530


--------------------------------------------------------------------------------------------------------




--------------------------------------- Iteration      1(  21)  ---------------------------------------


    POTLOK:  cpu time    0.0424: real time    0.0425
    SETDIJ:  cpu time    0.0131: real time    0.0131
    TRIAL :  cpu time   13.6078: real time   13.6572
    CORREC:  cpu time    4.3117: real time    4.3208
    CHARGE:  cpu time    0.3634: real time    0.3641
    --------------------------------------------
      LOOP:  cpu time   18.3427: real time   18.4019

 eigenvalue-minimisations  :     0
 total energy-change (2. order) :-0.9089837E-01  (-0.6753012E-01)
 number of electron     258.0000054 magnetization       6.0000003
 augmentation part       76.2016950 magnetization       3.6990616

 Free energy of the ion-electron system (eV)
  ---------------------------------------------------
  alpha Z        PSCENC =       864.61044642
  Ewald energy   TEWEN  =    -15567.97733189
  -Hartree energ DENC   =     -5884.85194835
  -exchange      EXHF   =         0.00000000
  -V(xc)+E(xc)   XCENC  =       859.84206011
  PAW double counting   =     24901.69289665   -25368.04127338
  entropy T*S    EENTRO =        -0.01737103
  eigenvalues    EBANDS =      -193.26770274
  atomic energy  EATOM  =     20168.87094289
  ---------------------------------------------------
  free energy    TOTEN  =      -219.13959702 eV

  energy without entropy =     -219.12222599  energy(sigma->0) =     -219.13091150


--------------------------------------------------------------------------------------------------------




--------------------------------------- Iteration      1(  22)  ---------------------------------------


    POTLOK:  cpu time    0.0425: real time    0.0426
    SETDIJ:  cpu time    0.0132: real time    0.0132
    TRIAL :  cpu time   13.3767: real time   13.4093
    CORREC:  cpu time    4.3028: real time    4.3119
    CHARGE:  cpu time    0.3631: real time    0.3635
    --------------------------------------------
      LOOP:  cpu time   18.1026: real time   18.1448

 eigenvalue-minimisations  :     0
 total energy-change (2. order) :-0.6623497E-01  (-0.8143859E-01)
 number of electron     258.0000054 magnetization       6.0000003
 augmentation part       76.2306041 magnetization       3.6863421

 Free energy of the ion-electron system (eV)
  ---------------------------------------------------
  alpha Z        PSCENC =       864.61044642
  Ewald energy   TEWEN  =    -15567.97733189
  -Hartree energ DENC   =     -5888.31338625
  -exchange      EXHF   =         0.00000000
  -V(xc)+E(xc)   XCENC  =       860.01873787
  PAW double counting   =     24885.18665511   -25352.34572601
  entropy T*S    EENTRO =        -0.01661625
  eigenvalues    EBANDS =      -189.23879909
  atomic energy  EATOM  =     20168.87094289
  ---------------------------------------------------
  free energy    TOTEN  =      -219.20583199 eV

  energy without entropy =     -219.18921574  energy(sigma->0) =     -219.19752387


--------------------------------------------------------------------------------------------------------




--------------------------------------- Iteration      1(  23)  ---------------------------------------


    POTLOK:  cpu time    0.0423: real time    0.0423
    SETDIJ:  cpu time    0.0130: real time    0.0131
    TRIAL :  cpu time   13.2645: real time   13.2954
    CORREC:  cpu time    4.1605: real time    4.1694
    CHARGE:  cpu time    0.3605: real time    0.3611
    --------------------------------------------
      LOOP:  cpu time   17.8451: real time   17.8855

 eigenvalue-minimisations  :     0
 total energy-change (2. order) :-0.8131796E-01  (-0.8075163E-01)
 number of electron     258.0000054 magnetization       6.0000002
 augmentation part       76.1598435 magnetization       3.6981605

 Free energy of the ion-electron system (eV)
  ---------------------------------------------------
  alpha Z        PSCENC =       864.61044642
  Ewald energy   TEWEN  =    -15567.97733189
  -Hartree energ DENC   =     -5891.18216784
  -exchange      EXHF   =         0.00000000
  -V(xc)+E(xc)   XCENC  =       860.14261938
  PAW double counting   =     24858.97521605   -25326.61250000
  entropy T*S    EENTRO =        -0.01513630
  eigenvalues    EBANDS =      -186.09775869
  atomic energy  EATOM  =     20168.87094289
  ---------------------------------------------------
  free energy    TOTEN  =      -219.28714995 eV

  energy without entropy =     -219.27201365  energy(sigma->0) =     -219.27958180


--------------------------------------------------------------------------------------------------------




--------------------------------------- Iteration      1(  24)  ---------------------------------------


    POTLOK:  cpu time    0.0424: real time    0.0424
    SETDIJ:  cpu time    0.0131: real time    0.0131
    TRIAL :  cpu time   13.3555: real time   13.3968
    CORREC:  cpu time    4.1741: real time    4.1836
    CHARGE:  cpu time    0.3630: real time    0.3635
    --------------------------------------------
      LOOP:  cpu time   17.9525: real time   18.0037

 eigenvalue-minimisations  :     0
 total energy-change (2. order) :-0.8327533E-01  (-0.9439321E-01)
 number of electron     258.0000054 magnetization       6.0000002
 augmentation part       76.0847410 magnetization       3.7310074

 Free energy of the ion-electron system (eV)
  ---------------------------------------------------
  alpha Z        PSCENC =       864.61044642
  Ewald energy   TEWEN  =    -15567.97733189
  -Hartree energ DENC   =     -5884.90679977
  -exchange      EXHF   =         0.00000000
  -V(xc)+E(xc)   XCENC  =       859.97081696
  PAW double counting   =     24831.62745038   -25297.73987026
  entropy T*S    EENTRO =        -0.01497027
  eigenvalues    EBANDS =      -193.81094369
  atomic energy  EATOM  =     20168.87094289
  ---------------------------------------------------
  free energy    TOTEN  =      -219.37042528 eV

  energy without entropy =     -219.35545501  energy(sigma->0) =     -219.36294014


--------------------------------------------------------------------------------------------------------




--------------------------------------- Iteration      1(  25)  ---------------------------------------


    POTLOK:  cpu time    0.0425: real time    0.0425
    SETDIJ:  cpu time    0.0131: real time    0.0131
    TRIAL :  cpu time   13.4289: real time   13.4592
    CORREC:  cpu time    4.2945: real time    4.3038
    CHARGE:  cpu time    0.3585: real time    0.3589
    --------------------------------------------
      LOOP:  cpu time   18.1417: real time   18.1818

 eigenvalue-minimisations  :     0
[...]
   20        1.578   3.443   0.000   5.021
   21        1.587   3.418   0.000   5.005
   22        1.579   3.418   0.000   4.997
   23        1.562   3.504   0.000   5.065
   24        1.565   3.491   0.000   5.057
   25        1.574   3.448   0.000   5.021
   26        1.572   3.434   0.000   5.006
   27        1.579   3.451   0.000   5.030
   28        1.578   3.464   0.000   5.042
   29        1.573   3.443   0.000   5.016
   30        1.572   3.472   0.000   5.044
   31        1.591   3.402   0.000   4.993
   32        1.583   3.454   0.000   5.037
   33        1.587   3.427   0.000   5.014
   34        1.582   3.451   0.000   5.033
   35        1.565   3.449   0.000   5.014
   36        1.560   3.479   0.000   5.039
   37        1.565   3.468   0.000   5.033
   38        1.557   3.520   0.000   5.076
   39        1.571   3.402   0.000   4.973
   40        1.570   3.460   0.000   5.030
   41        1.566   3.463   0.000   5.029
   42        1.561   3.467   0.000   5.029
--------------------------------------------------
tot         44.197  93.945  88.503 226.645
 


 magnetization (x)
 
# of ion       s       p       d       tot
------------------------------------------
    1        0.000  -0.001   0.000  -0.001
    2        0.001   0.000   0.000   0.001
    3       -0.000  -0.002   0.000  -0.002
    4        0.000  -0.001   0.000  -0.000
    5        0.001   0.001   0.000   0.002
    6        0.001  -0.001   0.000   0.000
    7        0.003   0.003  -0.015  -0.009
    8        0.004   0.005  -0.017  -0.009
    9        0.011   0.013   1.289   1.313
   10        0.011   0.013   1.233   1.257
   11        0.006   0.010   0.010   0.025
   12        0.012   0.015   1.360   1.387
   13        0.010   0.015   1.189   1.214
   14        0.010   0.016   1.105   1.131
   15        0.002   0.001  -0.017  -0.014
   16        0.001   0.001  -0.006  -0.004
   17        0.008   0.011   1.206   1.225
   18        0.002   0.002  -0.010  -0.007
   19       -0.000  -0.046   0.000  -0.047
   20       -0.000  -0.081   0.000  -0.081
   21        0.001  -0.078   0.000  -0.077
   22        0.000  -0.101   0.000  -0.101
   23        0.000  -0.034   0.000  -0.034
   24        0.000  -0.040   0.000  -0.039
   25        0.001  -0.056   0.000  -0.055
   26        0.001  -0.069   0.000  -0.068
   27        0.001  -0.062   0.000  -0.061
   28        0.001  -0.091   0.000  -0.090
   29        0.001  -0.079   0.000  -0.078
   30        0.001  -0.043   0.000  -0.042
   31        0.002  -0.081   0.000  -0.079
   32        0.001  -0.081   0.000  -0.080
   33        0.002  -0.136   0.000  -0.134
   34        0.001  -0.035   0.000  -0.034
   35        0.000  -0.028   0.000  -0.028
   36       -0.001  -0.010   0.000  -0.010
   37        0.000  -0.018   0.000  -0.017
   38        0.000  -0.016   0.000  -0.016
   39       -0.000  -0.065   0.000  -0.065
   40        0.000  -0.046   0.000  -0.046
   41       -0.000  -0.046   0.000  -0.046
   42       -0.001  -0.013   0.000  -0.013
--------------------------------------------------
tot          0.096  -1.253   7.326   6.168
 
    FORLOC:  cpu time    0.0079: real time    0.0079
    FORNL :  cpu time    4.3471: real time    4.3562
    STRESS:  cpu time   12.9648: real time   13.0094
    FORCOR:  cpu time    0.0453: real time    0.0455
    OFIELD:  cpu time    0.0005: real time    0.0005

  DFT-D2 method for vdW energy calculation
  -------------------------------------------------------------------

  Parameters of vdW forcefield:
         C6(Jnm^6/mol)     R0(A)
   -----------------------------
   Li       1.610          0.825
   Co      10.800          1.562
   O        0.700          1.342

  IVDW =   1
  VDW_RADIUS =    50.000 A
  VDW_S6 =     0.750
  VDW_SR =     1.000
  VDW_D =    20.000
  LVDW_EWALD = F

  Number of pair interactions contributing to vdW energy: 1394086
  Edisp (eV):  -11.27951
    FORVDW:  cpu time    0.1913: real time    0.1923

  FORCE on cell =-STRESS in cart. coord.  units (eV):
  Direction    XX          YY          ZZ          XY          YZ          ZX
  --------------------------------------------------------------------------------------
  Alpha Z   864.61045   864.61045   864.61045
  Ewald   -2974.72994 -2991.16127 -9602.15876   -21.14310     9.27089    -0.66965
  Hartree  3531.30904  3525.06810 -1183.30564    -6.03957    -1.23684     1.09271
  E(xc)   -1293.92803 -1293.93820 -1293.92097    -0.07090    -0.04268    -0.04471
  Local   -5625.34986 -5605.98361  5672.93417    23.64664    -6.01973     0.05965
  n-local  -579.38749  -580.72711  -589.89446    -0.58930     0.63270     0.01442
  augment  2017.40270  2019.73000  1996.53148     1.52349    -0.78685    -0.17614
  Kinetic  4099.97543  4101.76421  4182.42291     2.71367    -1.91000    -0.96927
  Fock        0.00000     0.00000     0.00000     0.00000     0.00000     0.00000
  vdW        -7.94089    -7.81483   -14.88405    -0.06209    -0.36876    -0.32763
  -------------------------------------------------------------------------------------
  Total      31.96141    31.54774    32.33512    -0.02116    -0.46127    -1.02063
  in kB     151.02271   149.06808   152.78857    -0.09996    -2.17958    -4.82265
  external pressure =      150.96 kB  Pullay stress =        0.00 kB


 VOLUME and BASIS-vectors are now :
 -----------------------------------------------------------------------------
  energy-cutoff  :      600.00
  volume of cell :      339.07
      direct lattice vectors                 reciprocal lattice vectors
     5.510400295  0.000000000  0.000000000     0.181475019  0.104615446  0.000671674
    -2.761021614  4.789507389  0.000000000     0.000000000  0.208789739  0.000454984
    -0.031411890 -0.027996713 12.847547531     0.000000000  0.000000000  0.077835867

  length of vectors
     5.510400295  5.528347075 12.847616436     0.209470822  0.208790235  0.077835867


 FORCES acting on ions:
    Electron-Ion                     Ewald-Force                    Non-Local-Force
 -----------------------------------------------------------------------------------------------
   -.399E+01 0.127E+01 0.728E+01   0.400E+01 -.133E+01 -.778E+01   0.604E+00 0.189E+00 0.494E+00
   -.353E+00 -.133E+01 0.143E+02   -.131E-01 0.106E+01 -.147E+02   0.244E+00 0.461E+00 -.655E-01
   -.326E+01 -.197E+01 0.804E+01   0.296E+01 0.175E+01 -.820E+01   0.541E+00 0.263E+00 0.291E+00
   0.559E+01 0.219E+00 -.173E+01   -.523E+01 -.176E+00 0.130E+01   -.140E+01 -.262E+00 0.261E+00
   -.169E+01 -.322E+00 0.460E+01   0.140E+01 0.392E+00 -.388E+01   -.185E+00 0.383E-01 -.162E+01
   -.363E+00 -.658E+00 -.230E+02   0.430E+00 0.484E+00 0.236E+02   0.593E+00 0.314E+00 0.997E+00
   -.238E+02 -.417E+02 0.164E+03   0.243E+02 0.434E+02 -.163E+03   0.482E+00 0.674E+00 -.172E+01
   0.242E+02 0.210E+02 0.147E+03   -.246E+02 -.216E+02 -.147E+03   -.842E+00 -.724E-01 0.314E+00
   0.167E+02 -.231E+02 0.181E+03   -.172E+02 0.243E+02 -.181E+03   -.216E+00 0.135E+00 -.220E+00
   -.116E+02 0.199E+02 0.181E+03   0.116E+02 -.205E+02 -.180E+03   0.373E+00 0.399E+00 -.878E+00
   0.127E+02 -.573E+01 -.220E+03   -.138E+02 0.708E+01 0.220E+03   -.766E+00 -.257E+00 -.518E+00
   -.118E+02 -.154E+02 -.244E+03   0.124E+02 0.154E+02 0.245E+03   -.414E+00 0.657E+00 -.605E+00
   -.289E+01 -.201E+02 -.173E+03   0.337E+01 0.211E+02 0.173E+03   0.326E+00 0.476E+00 0.127E+01
   0.561E+01 0.427E+01 -.175E+03   -.558E+01 -.417E+01 0.174E+03   0.572E+00 0.521E+00 0.380E+00
   0.489E+02 -.592E+01 0.133E+02   -.494E+02 0.581E+01 -.146E+02   0.103E+00 0.530E+00 0.147E+01
   -.335E+02 0.188E+02 0.626E+02   0.318E+02 -.194E+02 -.632E+02   0.135E+01 0.252E+00 0.185E+00
   -.322E+02 0.120E+02 0.413E+02   0.337E+02 -.112E+02 -.412E+02   -.948E-01 -.236E+00 -.730E+00
   0.124E+02 -.380E+02 0.179E+02   -.113E+02 0.382E+02 -.182E+02   -.514E+00 0.411E+00 0.121E+01
   -.464E+01 0.135E+02 -.174E+03   0.513E+01 -.118E+02 0.197E+03   -.606E+00 -.341E+01 -.228E+02
   0.458E+00 -.481E+01 -.158E+03   0.311E+01 0.311E+01 0.180E+03   -.408E+01 0.148E+01 -.234E+02
   0.229E+00 -.335E+01 -.178E+03   -.935E+00 0.260E+01 0.205E+03   0.965E+00 0.124E+01 -.269E+02
   0.922E+01 0.880E+01 -.146E+03   -.132E+02 -.113E+02 0.168E+03   0.387E+01 0.201E+01 -.223E+02
   -.142E+01 -.263E+02 0.382E+03   0.912E-01 0.277E+02 -.398E+03   0.179E+01 -.292E+00 0.158E+02
   -.876E+01 0.267E+02 0.384E+03   0.614E+01 -.309E+02 -.402E+03   0.379E+01 0.359E+01 0.175E+02
   0.128E+01 -.681E+01 0.383E+03   -.196E+00 0.111E+02 -.405E+03   -.153E+01 -.507E+01 0.224E+02
   0.385E+01 0.152E+02 0.380E+03   0.203E-02 -.176E+02 -.400E+03   -.446E+01 0.230E+01 0.202E+02
   0.881E+01 0.246E+02 -.425E+03   -.103E+02 -.268E+02 0.450E+03   0.181E+01 0.991E+00 -.237E+02
   0.300E+02 0.460E+01 -.432E+03   -.334E+02 -.635E+01 0.455E+03   0.186E+01 0.109E+01 -.220E+02
   -.166E+02 0.715E+00 -.405E+03   0.201E+02 -.140E+01 0.425E+03   -.355E+01 0.463E+00 -.205E+02
   -.230E+02 -.171E+02 -.419E+03   0.242E+02 0.188E+02 0.441E+03   -.486E+00 -.149E+01 -.202E+02
   0.214E+02 0.224E+02 0.158E+03   -.241E+02 -.252E+02 -.186E+03   0.231E+01 0.216E+01 0.278E+02
   0.144E+02 0.149E+02 0.148E+03   -.132E+02 -.158E+02 -.172E+03   -.173E+01 -.350E-01 0.246E+02
   -.157E+02 0.974E+01 0.156E+03   0.169E+02 -.126E+02 -.180E+03   -.931E+00 0.216E+01 0.243E+02
   -.198E+02 -.250E+02 0.159E+03   0.204E+02 0.278E+02 -.183E+03   0.143E+00 -.247E+01 0.237E+02
   -.178E+02 -.209E+02 -.212E+03   0.151E+02 0.236E+02 0.230E+03   0.360E+01 -.240E+01 -.196E+02
   0.609E+01 0.150E+02 -.226E+03   -.634E+01 -.189E+02 0.243E+03   -.891E-01 0.397E+01 -.179E+02
   0.148E+02 -.253E+02 -.245E+03   -.141E+02 0.284E+02 0.264E+03   -.108E+01 -.283E+01 -.189E+02
   -.591E+01 0.324E+02 -.215E+03   0.648E+01 -.346E+02 0.230E+03   -.801E+00 0.108E+01 -.150E+02
   0.110E+01 0.393E+01 0.261E+03   0.187E+01 -.171E+01 -.281E+03   -.372E+01 -.284E+01 0.215E+02
   -.353E+02 -.165E+02 0.279E+03   0.400E+02 0.194E+02 -.300E+03   -.410E+01 -.308E+01 0.209E+02
   -.688E+01 0.453E+02 0.279E+03   0.352E+01 -.494E+02 -.298E+03   0.501E+01 0.254E+01 0.188E+02
   0.421E+02 -.231E+02 0.259E+03   -.464E+02 0.213E+02 -.278E+03   0.281E+01 0.355E+01 0.189E+02
 -----------------------------------------------------------------------------------------------
   -.155E+01 -.919E+01 -.345E+01   0.284E-13 0.604E-13 0.512E-12   0.156E+01 0.920E+01 0.345E+01
 
 
 POSITION                                       TOTAL-FORCE (eV/Angst)
 -----------------------------------------------------------------------------------
      2.58238      4.65594      0.02079         0.532401      0.122206     -0.103986
     -0.14615      4.68206      0.11607        -0.098295      0.115615     -0.461043
      1.15112      2.29123      0.03063         0.206087      0.046582      0.085586
      3.00966      3.30375      4.26482        -0.888225     -0.265957     -0.141249
      2.74610      1.53276      8.61299        -0.446392      0.130165     -0.636924
      1.24626      3.94425      8.38457         0.499150      0.094358      1.411323
      0.05928      1.56151      2.34535         0.884449      1.996161     -0.931832
     -1.27438      3.98723      2.32295        -0.973815     -0.480100     -0.054789
      2.88222      1.55408      2.30641        -0.697153      1.177700     -0.319074
      1.45771      4.00118      2.29739         0.342351     -0.262796     -0.223636
      0.13916      0.01892      6.26902        -1.685264      0.985873     -0.032136
     -1.27999      2.41251      6.30426         0.105430      0.494140     -0.286632
      2.83483      0.03030      6.17281         0.787216      1.323823      0.571695
      1.42644      2.41564      6.19935         0.653926      0.648671     -0.003661
      1.12249      0.72123     10.69932        -0.203044      0.380026      0.228001
     -0.19716      3.12548     10.70392        -0.428736     -0.197773     -0.219740
      3.86722      0.75435     10.74282         1.248368      0.495990     -0.524956
      2.53724      3.13550     10.68232         0.511184      0.493699      0.735705
      0.06777      0.05145      3.24956        -0.105987     -1.639623      0.376783
     -1.27047      2.37641      3.32272        -0.471870     -0.235337     -1.290602
      0.09907      4.77500      3.22858         0.245586      0.488969      0.343561
      1.52289      2.41859      3.24504        -0.230702     -0.536276     -0.257063
      1.42549      0.74421      1.34930         0.437384      0.996156     -0.759589
      0.05034      3.21394      1.34258         1.142748     -0.637200     -0.285124
      4.22589      0.81788      1.26042        -0.453807     -0.724551      0.711316
      2.84887      3.18106      1.31437        -0.628871     -0.183182      0.179969
      1.49948      0.90169      7.14756         0.253067     -1.188785      1.022368
      0.14558      3.28850      7.17438        -1.525629     -0.677432      0.419495
      4.17943      0.81418      7.21748         0.022678     -0.149870      0.224520
      2.77510      3.17950      7.15377         0.902790      0.165122      1.431502
      0.07791      1.65844      5.32835        -0.485499     -0.638839     -0.046846
     -1.25056      4.06052      5.27653        -0.462790     -0.906694      0.723656
      2.84477      1.68451      5.31088         0.333055     -0.740245     -0.221614
      1.43677      3.99855      5.33565         0.718337      0.405677     -0.747477
     -0.29238      1.50768     11.80292         0.833676      0.378958     -1.377909
     -1.55944      3.93560     11.72412        -0.359899     -0.000194     -0.320861
      2.51979      1.51381     11.72832        -0.317463      0.285703     -0.013090
      1.16576      4.00003     11.74202        -0.212761     -1.077969     -0.389566
      5.25730     -0.00263      9.63172        -0.688726     -0.591241      1.242088
      3.90111      2.33282      9.75402         0.674010     -0.179951      0.046173
      2.48085      0.02350      9.71602         1.616914     -1.572036     -0.276665
      1.27707      2.24840      9.66032        -1.585877      1.660456      0.172325
 -----------------------------------------------------------------------------------
    total drift:                                0.010033      0.017727      0.003753


--------------------------------------------------------------------------------------------------------



  FREE ENERGIE OF THE ION-ELECTRON SYSTEM (eV)
  ---------------------------------------------------
  free  energy   TOTEN  =      -232.89874753 eV

  energy  without entropy=     -232.89766425  energy(sigma->0) =     -232.89820589
 


--------------------------------------------------------------------------------------------------------


    POTLOK:  cpu time    0.0622: real time    0.0623


--------------------------------------------------------------------------------------------------------


     LOOP+:  cpu time 2444.7719: real time 2454.9892
    4ORBIT:  cpu time    0.0000: real time    0.0000
 


 total charge     
 
# of ion       s       p       d       tot
------------------------------------------
    1        0.121   0.271   0.000   0.393
    2        0.118   0.264   0.000   0.382
    3        0.106   0.233   0.000   0.339
    4        0.152   0.367   0.000   0.519
    5        0.124   0.279   0.000   0.402
    6        0.116   0.252   0.000   0.368
    7        0.467   0.765   7.456   8.688
    8        0.479   0.790   7.502   8.771
    9        0.479   0.780   7.273   8.531
   10        0.491   0.810   7.310   8.611
   11        0.457   0.735   7.444   8.636
   12        0.482   0.789   7.278   8.549
   13        0.512   0.874   7.336   8.722
   14        0.541   0.950   7.412   8.903
   15        0.459   0.746   7.452   8.656
   16        0.415   0.636   7.338   8.389
   17        0.485   0.804   7.280   8.570
   18        0.443   0.699   7.422   8.564
   19        1.575   3.472   0.000   5.048
   20        1.578   3.443   0.000   5.021
   21        1.587   3.418   0.000   5.005
   22        1.579   3.418   0.000   4.997
   23        1.562   3.504   0.000   5.065
   24        1.565   3.491   0.000   5.057
   25        1.574   3.448   0.000   5.021
   26        1.572   3.434   0.000   5.006
   27        1.579   3.451   0.000   5.030
   28        1.578   3.464   0.000   5.042
   29        1.573   3.443   0.000   5.016
   30        1.572   3.472   0.000   5.044
   31        1.591   3.402   0.000   4.993
   32        1.583   3.454   0.000   5.037
   33        1.587   3.427   0.000   5.014
   34        1.582   3.451   0.000   5.033
   35        1.565   3.449   0.000   5.014
   36        1.560   3.479   0.000   5.039
   37        1.565   3.468   0.000   5.033
   38        1.557   3.520   0.000   5.076
   39        1.571   3.402   0.000   4.973
   40        1.570   3.460   0.000   5.030
   41        1.566   3.463   0.000   5.029
   42        1.561   3.467   0.000   5.029
--------------------------------------------------
tot         44.197  93.945  88.503 226.645
 


 magnetization (x)
 
# of ion       s       p       d       tot
------------------------------------------
    1        0.000  -0.001   0.000  -0.001
    2        0.001   0.000   0.000   0.001
    3       -0.000  -0.002   0.000  -0.002
    4        0.000  -0.001   0.000  -0.000
    5        0.001   0.001   0.000   0.002
    6        0.001  -0.001   0.000   0.000
    7        0.003   0.003  -0.015  -0.009
    8        0.004   0.005  -0.017  -0.009
    9        0.011   0.013   1.289   1.313
   10        0.011   0.013   1.233   1.257
   11        0.006   0.010   0.010   0.025
   12        0.012   0.015   1.360   1.387
   13        0.010   0.015   1.189   1.214
   14        0.010   0.016   1.105   1.131
   15        0.002   0.001  -0.017  -0.014
   16        0.001   0.001  -0.006  -0.004
   17        0.008   0.011   1.206   1.225
   18        0.002   0.002  -0.010  -0.007
   19       -0.000  -0.046   0.000  -0.047
   20       -0.000  -0.081   0.000  -0.081
   21        0.001  -0.078   0.000  -0.077
   22        0.000  -0.101   0.000  -0.101
   23        0.000  -0.034   0.000  -0.034
   24        0.000  -0.040   0.000  -0.039
   25        0.001  -0.056   0.000  -0.055
   26        0.001  -0.069   0.000  -0.068
   27        0.001  -0.062   0.000  -0.061
   28        0.001  -0.091   0.000  -0.090
   29        0.001  -0.079   0.000  -0.078
   30        0.001  -0.043   0.000  -0.042
   31        0.002  -0.081   0.000  -0.079
   32        0.001  -0.081   0.000  -0.080
   33        0.002  -0.136   0.000  -0.134
   34        0.001  -0.035   0.000  -0.034
   35        0.000  -0.028   0.000  -0.028
   36       -0.001  -0.010   0.000  -0.010
   37        0.000  -0.018   0.000  -0.017
   38        0.000  -0.016   0.000  -0.016
   39       -0.000  -0.065   0.000  -0.065
   40        0.000  -0.046   0.000  -0.046
   41       -0.000  -0.046   0.000  -0.046
   42       -0.001  -0.013   0.000  -0.013
--------------------------------------------------
tot          0.096  -1.253   7.326   6.168
 

 total amount of memory used by VASP MPI-rank0   143268. kBytes
=======================================================================

   base      :      30000. kBytes
   nonlr-proj:       4443. kBytes
   fftplans  :       1502. kBytes
   grid      :       4132. kBytes
   one-center:        342. kBytes
   wavefun   :     102849. kBytes
 
  
  
 General timing and accounting informations for this job:
 ========================================================
  
                  Total CPU time used (sec):     2469.391
                            User time (sec):     2290.341
                          System time (sec):      179.050
                         Elapsed time (sec):     2480.084
  
                   Maximum memory used (kb):      687344.
                   Average memory used (kb):           0.
  
                          Minor page faults:        66522
                          Major page faults:           60
                 Voluntary context switches:          550
