 running on   64 total cores
 distrk:  each k-point on   64 cores,    1 groups
 distr:  one band on    4 cores,   16 groups
 using from now: INCAR     
 vasp.5.4.4.18Apr17-6-g9f103f2a35 (build Nov 22 2021 14:44:17) complex          
  
 POSCAR found type information on POSCAR  Li Co O 
 POSCAR found :  3 types and      42 ions
 scaLAPACK will be used
 LDA part: xc-table for Pade appr. of Perdew
 generate k-points for:    6    6    2
 POSCAR, INCAR and KPOINTS ok, starting setup
 FFT: planning ...
 WAVECAR not read
 entering main loop
       N       E                     dE             d eps       ncg     rms          ort
DAV:   1     0.350145120717E+04    0.35015E+04   -0.14011E+05  5760   0.220E+03
DAV:   2     0.405173301396E+03   -0.30963E+04   -0.28527E+04  5760   0.538E+02
DAV:   3    -0.220891047737E+03   -0.62606E+03   -0.56932E+03  5760   0.255E+02
DAV:   4    -0.271378315177E+03   -0.50487E+02   -0.49483E+02  5760   0.745E+01
DAV:   5    -0.273141500747E+03   -0.17632E+01   -0.17599E+01  5760   0.137E+01
 gam= 0.000 g(H,U,f)=  0.182E+04 0.101E+04 0.803E+03 ort(H,U,f) = 0.000E+00 0.000E+00 0.000E+00
SDA:   6     0.139394646659E+03    0.41254E+03   -0.17599E+01  5760   0.363E+04 0.000E+00
 gam= 0.000 trial= 0.400  step= 0.062 mean= 0.400
 gam= 2.490 g(H,U,f)=  0.124E+04 0.244E+04 0.536E+04 ort(H,U,f) = 0.101E+04 0.161E+03-0.558E+03
CGA:   7     0.846321550165E+02   -0.54762E+02   -0.11338E+03  5760   0.904E+04 0.615E+03
 gam= 2.490 trial= 0.383  step= 0.073 mean= 0.383
 gam= 0.000 g(H,U,f)=  0.455E+04 0.394E+05 0.298E+05 ort(H,U,f) = 0.311E+04-0.797E+04-0.698E+04
CGA:   8     0.852832043609E+03    0.76820E+03   -0.38795E+03  5760   0.738E+05-0.118E+05
 gam= 0.000 trial= 0.368  step= 0.136 mean= 0.368
 gam= 0.595 g(H,U,f)=  0.134E+05 0.191E+05 0.115E+05 ort(H,U,f) =-0.489E+04-0.651E+04-0.489E+04
CGA:   9     0.314439483615E+04    0.22916E+04   -0.50273E+04  5760   0.439E+05-0.163E+05
 gam= 0.595 trial= 0.356  step= 0.116 mean= 0.356
 gam= 0.000 g(H,U,f)=  0.222E+05 0.407E+05 0.138E+05 ort(H,U,f) =-0.250E+04-0.295E+05-0.123E+05
CGA:  10     0.268336643492E+04   -0.46103E+03   -0.19823E+04  5760   0.767E+05-0.443E+05
 gam= 0.000 trial= 0.344  step= 0.131 mean= 0.344
 gam= 0.000 g(H,U,f)=  0.292E+05 0.733E+05 0.307E+05 ort(H,U,f) =-0.670E+04-0.432E+05-0.180E+05
CGA:  11     0.352608500014E+04    0.84272E+03   -0.50204E+04  5760   0.133E+06-0.680E+05
 gam= 0.000 trial= 0.333  step= 0.159 mean= 0.333
 gam= 0.521 g(H,U,f)=  0.348E+05 0.328E+05 0.183E+04 ort(H,U,f) =-0.825E+04 0.186E+04 0.652E+03
CGA:  12     0.487894642314E+04    0.13529E+04   -0.10553E+05  5760   0.694E+05-0.573E+04
 gam= 0.521 trial= 0.325  step= 0.157 mean= 0.325
 gam= 2.382 g(H,U,f)=  0.603E+05 0.999E+05 0.503E+04 ort(H,U,f) =-0.422E+04 0.985E+04 0.521E+03
CGA:  13     0.622894756677E+04    0.13500E+04   -0.51956E+04  5760   0.165E+06 0.615E+04
 gam= 2.382 trial= 0.316  step= 0.151 mean= 0.316
 gam= 0.712 g(H,U,f)=  0.934E+05 0.237E+05 0.535E+03 ort(H,U,f) =-0.392E+04-0.522E+04-0.236E+03
CGA:  14     0.641316476022E+04    0.18422E+03   -0.13543E+05  5760   0.118E+06-0.937E+04
 gam= 0.712 trial= 0.308  step= 0.173 mean= 0.308
 gam= 0.286 g(H,U,f)=  0.269E+05 0.654E+04 0.120E+03 ort(H,U,f) = 0.168E+05 0.443E+04 0.905E+02
CGA:  15     0.273418037366E+04   -0.36790E+04   -0.96139E+04  5760   0.336E+05 0.213E+05
 gam= 0.286 trial= 0.301  step= 0.108 mean= 0.301
 gam= 0.153 g(H,U,f)=  0.398E+04 0.115E+04 0.209E+02 ort(H,U,f) = 0.711E+04 0.297E+04 0.559E+02
CGA:  16     0.159611249045E+04   -0.11381E+04   -0.21409E+04  5760   0.516E+04 0.101E+05
 gam= 0.153 trial= 0.292  step= 0.070 mean= 0.292
 gam= 0.417 g(H,U,f)=  0.190E+04 0.243E+03 0.358E+01 ort(H,U,f) = 0.156E+04 0.449E+03 0.113E+02
CGA:  17     0.136973910541E+04   -0.22637E+03   -0.23526E+03  5760   0.215E+04 0.202E+04
 gam= 0.417 trial= 0.280  step= 0.135 mean= 0.280
 gam= 2.068 g(H,U,f)=  0.364E+04 0.794E+03 0.121E+02 ort(H,U,f) = 0.602E+03-0.388E+03-0.164E+02
CGA:  18     0.116637012267E+04   -0.20337E+03   -0.20203E+03  5760   0.444E+04 0.197E+03
 gam= 2.068 trial= 0.273  step= 0.147 mean= 0.273
 gam= 1.206 g(H,U,f)=  0.374E+04 0.158E+04 0.406E+02 ort(H,U,f) = 0.939E+03-0.678E+03-0.488E+02
CGA:  19     0.913420283714E+03   -0.25295E+03   -0.35728E+03  5760   0.536E+04 0.212E+03
 gam= 1.206 trial= 0.267  step= 0.104 mean= 0.267
 gam= 0.470 g(H,U,f)=  0.191E+04 0.605E+03 0.623E+01 ort(H,U,f) = 0.135E+04 0.337E+03-0.127E+02
CGA:  20     0.686008005533E+03   -0.22741E+03   -0.29274E+03  5760   0.252E+04 0.168E+04
 gam= 0.470 trial= 0.259  step= 0.160 mean= 0.259
 gam= 0.876 g(H,U,f)=  0.123E+04 0.971E+03 0.922E+01 ort(H,U,f) = 0.283E+02 0.148E+03 0.775E+00
CGA:  21     0.471183218617E+03   -0.21482E+03   -0.26429E+03  5760   0.221E+04 0.177E+03
 gam= 0.876 trial= 0.254  step= 0.185 mean= 0.254
 gam= 0.511 g(H,U,f)=  0.641E+03 0.480E+03 0.641E+01 ort(H,U,f) = 0.661E+02-0.459E+02-0.247E+01
CGA:  22     0.258244391199E+03   -0.21294E+03   -0.21817E+03  5760   0.113E+04 0.178E+02
 gam= 0.511 trial= 0.250  step= 0.128 mean= 0.250
 gam= 0.386 g(H,U,f)=  0.383E+03 0.506E+02 0.101E+01 ort(H,U,f) =-0.386E+02 0.303E+02-0.294E+00
CGA:  23     0.190671396811E+03   -0.67573E+02   -0.72653E+02  5760   0.435E+03-0.859E+01
 gam= 0.386 trial= 0.244  step= 0.435 mean= 0.244
 gam= 1.637 g(H,U,f)=  0.468E+03 0.241E+03 0.257E+01 ort(H,U,f) = 0.917E+02-0.263E+02 0.721E+00
CGA:  24     0.914885064114E+02   -0.99183E+02   -0.93845E+02  5760   0.712E+03 0.661E+02
 gam= 1.637 trial= 0.254  step= 0.177 mean= 0.254
 gam= 0.474 g(H,U,f)=  0.201E+03 0.133E+03 0.308E+01 ort(H,U,f) = 0.138E+03-0.121E+03-0.102E+01
CGA:  25     0.254326830091E+02   -0.66056E+02   -0.72398E+02  5760   0.338E+03 0.154E+02
 gam= 0.474 trial= 0.250  step= 0.272 mean= 0.250
 gam= 1.004 g(H,U,f)=  0.167E+03 0.167E+03 0.535E+01 ort(H,U,f) = 0.551E+02-0.647E+02-0.144E+01
CGA:  26    -0.212830073757E+02   -0.46716E+02   -0.46889E+02  5760   0.339E+03-0.110E+02
 gam= 1.004 trial= 0.251  step= 0.168 mean= 0.251
 gam= 0.593 g(H,U,f)=  0.126E+03 0.741E+02 0.905E+00 ort(H,U,f) = 0.479E+02-0.316E+02-0.609E+00
CGA:  27    -0.512131646413E+02   -0.29930E+02   -0.27499E+02  5760   0.201E+03 0.156E+02
 gam= 0.593 trial= 0.247  step= 0.330 mean= 0.247
 gam= 1.481 g(H,U,f)=  0.105E+03 0.188E+03 0.456E+01 ort(H,U,f) =-0.190E+00 0.673E+01-0.100E+01
CGA:  28    -0.862866428938E+02   -0.35073E+02   -0.34689E+02  5760   0.298E+03 0.554E+01
 gam= 1.481 trial= 0.251  step= 0.090 mean= 0.251
 gam= 0.537 g(H,U,f)=  0.923E+02 0.661E+02 0.142E+01 ort(H,U,f) =-0.507E+01 0.367E+02 0.310E+00
CGA:  29    -0.101673518702E+03   -0.15387E+02   -0.13694E+02  5760   0.160E+03 0.319E+02
 gam= 0.537 trial= 0.243  step= 0.245 mean= 0.243
 gam= 2.438 g(H,U,f)=  0.102E+03 0.280E+03 0.722E+01 ort(H,U,f) =-0.255E+01-0.337E+02-0.582E+00
CGA:  30    -0.123299856096E+03   -0.21626E+02   -0.21706E+02  5760   0.390E+03-0.369E+02
 gam= 2.438 trial= 0.243  step= 0.056 mean= 0.243
 gam= 1.150 g(H,U,f)=  0.111E+03 0.331E+03 0.609E+01 ort(H,U,f) = 0.170E+02 0.203E+02-0.172E+01
CGA:  31    -0.130907911803E+03   -0.76081E+01   -0.84596E+01  5760   0.448E+03 0.356E+02
 gam= 1.150 trial= 0.234  step= 0.047 mean= 0.234
 gam= 0.471 g(H,U,f)=  0.913E+02 0.118E+03 0.192E+01 ort(H,U,f) = 0.266E+02 0.858E+02 0.220E+01
CGA:  32    -0.142419458304E+03   -0.11512E+02   -0.11533E+02  5760   0.211E+03 0.115E+03
 gam= 0.471 trial= 0.224  step= 0.046 mean= 0.224
 gam= 0.776 g(H,U,f)=  0.810E+02 0.811E+02 0.164E+01 ort(H,U,f) = 0.552E+02-0.157E+02-0.321E+01
CGA:  33    -0.148399838409E+03   -0.59804E+01   -0.60634E+01  5760   0.164E+03 0.363E+02
 gam= 0.776 trial= 0.215  step= 0.067 mean= 0.215
 gam= 1.442 g(H,U,f)=  0.733E+02 0.156E+03 0.667E+01 ort(H,U,f) = 0.629E+02-0.559E+02-0.735E+01
CGA:  34    -0.154188321619E+03   -0.57885E+01   -0.63825E+01  5760   0.236E+03-0.321E+00
 gam= 1.442 trial= 0.208  step= 0.039 mean= 0.208
 gam= 0.850 g(H,U,f)=  0.678E+02 0.127E+03 0.541E+01 ort(H,U,f) = 0.909E+02-0.420E+02-0.391E+01
CGA:  35    -0.158226658076E+03   -0.40383E+01   -0.46291E+01  5760   0.201E+03 0.450E+02
 gam= 0.850 trial= 0.200  step= 0.027 mean= 0.200
 gam= 0.711 g(H,U,f)=  0.621E+02 0.793E+02 0.133E+01 ort(H,U,f) = 0.106E+03-0.303E+02-0.525E+00
CGA:  36    -0.161306727805E+03   -0.30801E+01   -0.32165E+01  5760   0.143E+03 0.750E+02
 gam= 0.711 trial= 0.191  step= 0.035 mean= 0.191
 gam= 1.299 g(H,U,f)=  0.564E+02 0.124E+03 0.529E+01 ort(H,U,f) = 0.101E+03-0.643E+02-0.512E+01
CGA:  37    -0.164747770053E+03   -0.34410E+01   -0.34428E+01  5760   0.185E+03 0.320E+02
 gam= 1.299 trial= 0.183  step= 0.034 mean= 0.183
 gam= 1.549 g(H,U,f)=  0.513E+02 0.224E+03 0.117E+02 ort(H,U,f) = 0.129E+03-0.826E+02-0.392E+01
CGA:  38    -0.168254354331E+03   -0.35066E+01   -0.38082E+01  5760   0.287E+03 0.425E+02
 gam= 1.549 trial= 0.176  step= 0.027 mean= 0.176
 gam= 0.985 g(H,U,f)=  0.465E+02 0.225E+03 0.108E+02 ort(H,U,f) = 0.154E+03-0.947E+02-0.252E+01
CGA:  39    -0.171287623058E+03   -0.30333E+01   -0.47295E+01  5760   0.283E+03 0.563E+02
 gam= 0.985 trial= 0.168  step= 0.022 mean= 0.168
 gam= 0.677 g(H,U,f)=  0.459E+02 0.141E+03 0.438E+01 ort(H,U,f) = 0.115E+03-0.822E+02 0.948E+00
CGA:  40    -0.172697580724E+03   -0.14100E+01   -0.37183E+01  5760   0.191E+03 0.338E+02
 gam= 0.677 trial= 0.161  step= 0.022 mean= 0.161
 gam= 0.720 g(H,U,f)=  0.467E+02 0.882E+02 0.271E+01 ort(H,U,f) = 0.679E+02-0.523E+02-0.338E+01
CGA:  41    -0.173977221106E+03   -0.12796E+01   -0.23184E+01  5760   0.138E+03 0.123E+02
 gam= 0.720 trial= 0.154  step= 0.019 mean= 0.154
 gam= 0.000 g(H,U,f)=  0.470E+02 0.740E+02 0.321E+01 ort(H,U,f) = 0.640E+02-0.291E+02-0.434E+01
SDA:  42    -0.175124294755E+03   -0.11471E+01   -0.13981E+01  5760   0.124E+03 0.306E+02
 gam= 0.000 trial= 0.147  step= 0.117 mean= 0.147
 gam= 0.912 g(H,U,f)=  0.228E+02 0.853E+02 0.508E+01 ort(H,U,f) = 0.206E+02-0.168E+02-0.265E+01
CGA:  43    -0.182240199952E+03   -0.71159E+01   -0.72477E+01  5760   0.113E+03 0.114E+01
 gam= 0.912 trial= 0.146  step= 0.132 mean= 0.146
 gam= 0.705 g(H,U,f)=  0.214E+02 0.560E+02 0.242E+01 ort(H,U,f) = 0.103E+02-0.544E+01-0.215E+01
CGA:  44    -0.189744997045E+03   -0.75048E+01   -0.75669E+01  5760   0.798E+02 0.275E+01
 gam= 0.705 trial= 0.145  step= 0.305 mean= 0.145
 gam= 1.363 g(H,U,f)=  0.226E+02 0.769E+02 0.924E+01 ort(H,U,f) =-0.130E+02 0.132E+02-0.263E+00
CGA:  45    -0.202295386158E+03   -0.12550E+02   -0.12448E+02  5760   0.109E+03-0.100E-01
 gam= 1.363 trial= 0.153  step= 0.123 mean= 0.153
 gam= 0.389 g(H,U,f)=  0.158E+02 0.253E+02 0.127E+01 ort(H,U,f) =-0.203E+02 0.253E+02-0.210E+01
CGA:  46    -0.208849983885E+03   -0.65546E+01   -0.66921E+01  5760   0.423E+02 0.285E+01
 gam= 0.389 trial= 0.152  step= 0.214 mean= 0.152
 gam= 0.700 g(H,U,f)=  0.104E+02 0.169E+02 0.234E+01 ort(H,U,f) =-0.390E+01 0.480E+01-0.422E-01
CGA:  47    -0.213524491707E+03   -0.46745E+01   -0.46423E+01  5760   0.296E+02 0.867E+00
 gam= 0.700 trial= 0.155  step= 0.144 mean= 0.155
 gam= 0.759 g(H,U,f)=  0.925E+01 0.118E+02 0.144E+01 ort(H,U,f) = 0.167E+01-0.715E+00-0.155E+01
CGA:  48    -0.215696500738E+03   -0.21720E+01   -0.21749E+01  5760   0.225E+02-0.590E+00
 gam= 0.759 trial= 0.154  step= 0.275 mean= 0.154
 gam= 1.156 g(H,U,f)=  0.447E+01 0.189E+02 0.267E+01 ort(H,U,f) = 0.116E+01-0.385E+01-0.720E+00
CGA:  49    -0.218505679937E+03   -0.28092E+01   -0.30322E+01  5760   0.260E+02-0.341E+01
 gam= 1.156 trial= 0.160  step= 0.096 mean= 0.160
 gam= 0.195 g(H,U,f)=  0.265E+01 0.231E+01 0.116E+00 ort(H,U,f) =-0.103E+01 0.101E+01-0.492E-01
CGA:  50    -0.219542279226E+03   -0.10366E+01   -0.10640E+01  5760   0.507E+01-0.710E-01
 gam= 0.195 trial= 0.157  step= 0.174 mean= 0.157
 gam= 0.595 g(H,U,f)=  0.145E+01 0.143E+01 0.135E+00 ort(H,U,f) = 0.644E+00-0.457E+00 0.746E-01
CGA:  51    -0.219984961035E+03   -0.44268E+00   -0.43949E+00  5760   0.302E+01 0.262E+00
 gam= 0.595 trial= 0.158  step= 0.230 mean= 0.158
 gam= 1.541 g(H,U,f)=  0.102E+01 0.312E+01 0.513E+00 ort(H,U,f) = 0.381E+00-0.715E-01-0.154E+00
CGA:  52    -0.220362219905E+03   -0.37726E+00   -0.36565E+00  5760   0.465E+01 0.156E+00
 gam= 1.541 trial= 0.161  step= 0.147 mean= 0.161
 gam= 0.501 g(H,U,f)=  0.836E+00 0.138E+01 0.118E+00 ort(H,U,f) =-0.419E+00 0.561E+00-0.111E+00
CGA:  53    -0.220720698415E+03   -0.35848E+00   -0.36000E+00  5760   0.233E+01 0.314E-01
 gam= 0.501 trial= 0.161  step= 0.221 mean= 0.161
 gam= 1.004 g(H,U,f)=  0.563E+00 0.132E+01 0.460E+00 ort(H,U,f) =-0.396E+00 0.343E+00 0.161E-01
CGA:  54    -0.220975634254E+03   -0.25494E+00   -0.25969E+00  5760   0.234E+01-0.362E-01
 gam= 1.004 trial= 0.164  step= 0.151 mean= 0.164
 gam= 0.467 g(H,U,f)=  0.523E+00 0.528E+00 0.426E-01 ort(H,U,f) =-0.504E+00 0.721E+00 0.921E-01
CGA:  55    -0.221145115213E+03   -0.16948E+00   -0.17355E+00  5760   0.109E+01 0.309E+00
 gam= 0.467 trial= 0.163  step= 0.282 mean= 0.163
 gam= 1.708 g(H,U,f)=  0.518E+00 0.117E+01 0.176E+00 ort(H,U,f) =-0.635E-01 0.198E+00-0.437E-01
CGA:  56    -0.221326622624E+03   -0.18151E+00   -0.17458E+00  5760   0.187E+01 0.910E-01
 gam= 1.708 trial= 0.169  step= 0.178 mean= 0.169
 gam= 0.987 g(H,U,f)=  0.623E+00 0.107E+01 0.151E+00 ort(H,U,f) =-0.237E+00 0.315E+00-0.142E+00
CGA:  57    -0.221506197675E+03   -0.17958E+00   -0.18023E+00  5760   0.184E+01-0.647E-01
 gam= 0.987 trial= 0.170  step= 0.125 mean= 0.170
 gam= 0.711 g(H,U,f)=  0.580E+00 0.698E+00 0.315E-01 ort(H,U,f) =-0.175E+00 0.193E+00 0.178E-01
CGA:  58    -0.221615889498E+03   -0.10969E+00   -0.11123E+00  5760   0.131E+01 0.358E-01
 gam= 0.711 trial= 0.167  step= 0.176 mean= 0.167
 gam= 0.978 g(H,U,f)=  0.412E+00 0.789E+00 0.796E-01 ort(H,U,f) =-0.117E+00 0.185E+00-0.104E-01
CGA:  59    -0.221733512468E+03   -0.11762E+00   -0.11734E+00  5760   0.128E+01 0.577E-01
 gam= 0.978 trial= 0.168  step= 0.119 mean= 0.168
 gam= 0.669 g(H,U,f)=  0.333E+00 0.518E+00 0.576E-02 ort(H,U,f) =-0.804E-01 0.127E+00-0.905E-02
CGA:  60    -0.221813345767E+03   -0.79833E-01   -0.79420E-01  5760   0.856E+00 0.376E-01
 gam= 0.669 trial= 0.165  step= 0.218 mean= 0.165
 gam= 1.513 g(H,U,f)=  0.293E+00 0.920E+00 0.821E-01 ort(H,U,f) =-0.495E-01 0.194E+00-0.460E-01
CGA:  61    -0.221912007766E+03   -0.98662E-01   -0.95865E-01  5760   0.130E+01 0.988E-01
 gam= 1.513 trial= 0.168  step= 0.138 mean= 0.168
 gam= 0.719 g(H,U,f)=  0.354E+00 0.539E+00 0.391E-01 ort(H,U,f) =-0.251E+00 0.304E+00 0.275E-01
CGA:  62    -0.222010654662E+03   -0.98647E-01   -0.99768E-01  5760   0.932E+00 0.799E-01
 gam= 0.719 trial= 0.166  step= 0.230 mean= 0.166
 gam= 1.133 g(H,U,f)=  0.328E+00 0.665E+00 0.629E-01 ort(H,U,f) =-0.175E+00 0.185E+00 0.617E-01
CGA:  63    -0.222126162849E+03   -0.11551E+00   -0.11385E+00  5760   0.106E+01 0.712E-01
 gam= 1.133 trial= 0.170  step= 0.150 mean= 0.170
 gam= 0.792 g(H,U,f)=  0.318E+00 0.509E+00 0.825E-02 ort(H,U,f) =-0.238E+00 0.342E+00 0.215E-01
CGA:  64    -0.222209919552E+03   -0.83757E-01   -0.85359E-01  5760   0.836E+00 0.126E+00
 gam= 0.792 trial= 0.169  step= 0.182 mean= 0.169
 gam= 1.133 g(H,U,f)=  0.328E+00 0.583E+00 0.354E-01 ort(H,U,f) =-0.186E+00 0.291E+00-0.357E-01
CGA:  65    -0.222295515775E+03   -0.85596E-01   -0.85311E-01  5760   0.947E+00 0.696E-01
 gam= 1.133 trial= 0.169  step= 0.180 mean= 0.169
 gam= 1.248 g(H,U,f)=  0.403E+00 0.751E+00 0.276E-01 ort(H,U,f) =-0.238E+00 0.349E+00-0.944E-02
CGA:  66    -0.222388484802E+03   -0.92969E-01   -0.92468E-01  5760   0.118E+01 0.101E+00
 gam= 1.248 trial= 0.170  step= 0.152 mean= 0.170
 gam= 1.120 g(H,U,f)=  0.483E+00 0.816E+00 0.233E-01 ort(H,U,f) =-0.257E+00 0.374E+00-0.734E-02
CGA:  67    -0.222486978858E+03   -0.98494E-01   -0.99536E-01  5760   0.132E+01 0.110E+00
 gam= 1.120 trial= 0.169  step= 0.142 mean= 0.169
 gam= 0.836 g(H,U,f)=  0.436E+00 0.653E+00 0.174E-01 ort(H,U,f) =-0.194E+00 0.291E+00 0.471E-02
CGA:  68    -0.222587888384E+03   -0.10091E+00   -0.10274E+00  5760   0.111E+01 0.103E+00
 gam= 0.836 trial= 0.168  step= 0.122 mean= 0.168
 gam= 0.700 g(H,U,f)=  0.324E+00 0.427E+00 0.229E-01 ort(H,U,f) =-0.557E-01 0.139E+00-0.267E-01
CGA:  69    -0.222658690699E+03   -0.70802E-01   -0.72799E-01  5760   0.774E+00 0.569E-01
 gam= 0.700 trial= 0.165  step= 0.138 mean= 0.165
 gam= 0.724 g(H,U,f)=  0.249E+00 0.299E+00 0.120E-01 ort(H,U,f) = 0.103E-01 0.390E-01 0.558E-02
CGA:  70    -0.222713784012E+03   -0.55093E-01   -0.56231E-01  5760   0.560E+00 0.549E-01
 gam= 0.724 trial= 0.164  step= 0.164 mean= 0.164
 gam= 1.050 g(H,U,f)=  0.230E+00 0.319E+00 0.403E-01 ort(H,U,f) = 0.405E-01 0.311E-01-0.639E-01
CGA:  71    -0.222762991201E+03   -0.49207E-01   -0.49208E-01  5760   0.589E+00 0.770E-02
 gam= 1.050 trial= 0.164  step= 0.220 mean= 0.164
 gam= 1.019 g(H,U,f)=  0.239E+00 0.317E+00 0.436E-01 ort(H,U,f) =-0.599E-01 0.789E-01-0.124E+00
CGA:  72    -0.222828530765E+03   -0.65540E-01   -0.65796E-01  5760   0.600E+00-0.105E+00
 gam= 1.019 trial= 0.167  step= 0.229 mean= 0.167
 gam= 0.000 g(H,U,f)=  0.242E+00 0.310E+00 0.424E-01 ort(H,U,f) =-0.167E+00 0.101E+00-0.769E-01
SDA:  73    -0.222879706726E+03   -0.51176E-01   -0.56455E-01  5760   0.595E+00-0.143E+00
 gam= 0.000 trial= 0.170  step= 0.262 mean= 0.170
 gam= 1.603 g(H,U,f)=  0.106E+00 0.458E+00 0.390E+00 ort(H,U,f) = 0.714E-01 0.201E-01-0.655E-01
CGA:  74    -0.222958549855E+03   -0.78843E-01   -0.77853E-01  5760   0.954E+00 0.260E-01
 gam= 1.603 trial= 0.175  step= 0.158 mean= 0.175
 gam= 0.366 g(H,U,f)=  0.110E+00 0.232E+00 0.633E-02 ort(H,U,f) =-0.699E-01 0.201E+00 0.117E-01
CGA:  75    -0.223034796966E+03   -0.76247E-01   -0.78833E-01  5760   0.349E+00 0.143E+00
 gam= 0.366 trial= 0.174  step= 0.319 mean= 0.174
 gam= 2.320 g(H,U,f)=  0.976E-01 0.400E+00 0.313E+00 ort(H,U,f) =-0.177E-01 0.984E-01-0.103E+00
CGA:  76    -0.223099227668E+03   -0.64431E-01   -0.64119E-01  5760   0.810E+00-0.220E-01
 gam= 2.320 trial= 0.181  step= 0.153 mean= 0.181
 gam= 0.529 g(H,U,f)=  0.172E+00 0.244E+00 0.121E-01 ort(H,U,f) =-0.221E+00 0.199E+00 0.162E-01
CGA:  77    -0.223157879567E+03   -0.58652E-01   -0.58191E-01  5760   0.428E+00-0.636E-02
 gam= 0.529 trial= 0.180  step= 0.194 mean= 0.180
 gam= 1.631 g(H,U,f)=  0.152E+00 0.322E+00 0.225E+00 ort(H,U,f) =-0.226E-01 0.911E-01-0.491E-01
CGA:  78    -0.223199150347E+03   -0.41271E-01   -0.41196E-01  5760   0.699E+00 0.194E-01
 gam= 1.631 trial= 0.180  step= 0.123 mean= 0.180
 gam= 0.367 g(H,U,f)=  0.939E-01 0.138E+00 0.246E-01 ort(H,U,f) =-0.800E-01 0.771E-01 0.178E-01
CGA:  79    -0.223242272792E+03   -0.43122E-01   -0.45021E-01  5760   0.257E+00 0.148E-01
 gam= 0.367 trial= 0.177  step= 0.142 mean= 0.177
 gam= 1.387 g(H,U,f)=  0.829E-01 0.174E+00 0.995E-01 ort(H,U,f) = 0.162E-01 0.429E-01-0.690E-01
CGA:  80    -0.223260872364E+03   -0.18600E-01   -0.18663E-01  5760   0.356E+00-0.992E-02
 gam= 1.387 trial= 0.176  step= 0.155 mean= 0.176
 gam= 0.691 g(H,U,f)=  0.670E-01 0.128E+00 0.515E-01 ort(H,U,f) =-0.754E-02 0.299E-01-0.655E-02
CGA:  81    -0.223287067599E+03   -0.26195E-01   -0.26450E-01  5760   0.246E+00 0.158E-01
 gam= 0.691 trial= 0.175  step= 0.101 mean= 0.175
 gam= 0.845 g(H,U,f)=  0.531E-01 0.130E+00 0.243E-01 ort(H,U,f) = 0.131E-01 0.865E-02-0.326E-01
CGA:  82    -0.223299911900E+03   -0.12844E-01   -0.13027E-01  5760   0.208E+00-0.108E-01
 gam= 0.845 trial= 0.171  step= 0.202 mean= 0.171
 gam= 1.435 g(H,U,f)=  0.480E-01 0.157E+00 0.934E-01 ort(H,U,f) =-0.251E-01 0.336E-01-0.163E-01
CGA:  83    -0.223319931022E+03   -0.20019E-01   -0.20054E-01  5760   0.298E+00-0.784E-02
 gam= 1.435 trial= 0.173  step= 0.083 mean= 0.173
 gam= 0.467 g(H,U,f)=  0.508E-01 0.760E-01 0.126E-01 ort(H,U,f) =-0.596E-01 0.522E-01 0.478E-02
CGA:  84    -0.223331866197E+03   -0.11935E-01   -0.11902E-01  5760   0.139E+00-0.261E-02
 gam= 0.467 trial= 0.168  step= 0.168 mean= 0.168
 gam= 2.129 g(H,U,f)=  0.502E-01 0.144E+00 0.103E+00 ort(H,U,f) =-0.463E-02 0.487E-01-0.162E-01
CGA:  85    -0.223343465157E+03   -0.11599E-01   -0.11600E-01  5760   0.297E+00 0.279E-01
 gam= 2.129 trial= 0.168  step= 0.120 mean= 0.168
 gam= 0.576 g(H,U,f)=  0.530E-01 0.836E-01 0.342E-01 ort(H,U,f) =-0.482E-01 0.919E-01 0.301E-01
CGA:  86    -0.223362114031E+03   -0.18649E-01   -0.21372E-01  5760   0.171E+00 0.738E-01
 gam= 0.576 trial= 0.166  step= 0.102 mean= 0.166
 gam= 1.004 g(H,U,f)=  0.455E-01 0.101E+00 0.248E-01 ort(H,U,f) =-0.590E-02 0.272E-01-0.474E-01
CGA:  87    -0.223371661885E+03   -0.95479E-02   -0.10830E-01  5760   0.171E+00-0.262E-01
 gam= 1.004 trial= 0.162  step= 0.301 mean= 0.162
 gam= 0.000 g(H,U,f)=  0.732E-01 0.236E+00 0.167E+00 ort(H,U,f) =-0.594E-01 0.694E-02-0.828E-01
CGA:  88    -0.223388173514E+03   -0.16512E-01   -0.21835E-01  5760   0.476E+00-0.135E+00
 gam= 0.000 trial= 0.169  step= 0.079 mean= 0.169
 gam= 0.144 g(H,U,f)=  0.277E-01 0.285E-01 0.124E-01 ort(H,U,f) = 0.257E-01-0.155E-01-0.446E-01
CGA:  89    -0.223403445496E+03   -0.15272E-01   -0.18774E-01  5760   0.686E-01-0.345E-01
 gam= 0.144 trial= 0.165  step= 0.277 mean= 0.165
 gam= 0.463 g(H,U,f)=  0.105E-01 0.190E-01 0.227E-02 ort(H,U,f) = 0.399E-02 0.551E-02-0.230E-02
CGA:  90    -0.223412932847E+03   -0.94874E-02   -0.88179E-02  5760   0.318E-01 0.720E-02
 gam= 0.463 trial= 0.170  step= 0.411 mean= 0.170
 gam= 3.062 g(H,U,f)=  0.114E-01 0.466E-01 0.392E-01 ort(H,U,f) = 0.185E-03 0.458E-02-0.459E-02
CGA:  91    -0.223420284029E+03   -0.73512E-02   -0.72154E-02  5760   0.972E-01 0.177E-03
 gam= 3.062 trial= 0.183  step= 0.143 mean= 0.183
 gam= 0.340 g(H,U,f)=  0.144E-01 0.159E-01 0.274E-02 ort(H,U,f) =-0.279E-01 0.357E-01 0.476E-02
CGA:  92    -0.223426809708E+03   -0.65257E-02   -0.69991E-02  5760   0.330E-01 0.125E-01
 gam= 0.340 trial= 0.181  step= 0.202 mean= 0.181
 gam= 1.662 g(H,U,f)=  0.119E-01 0.256E-01 0.175E-01 ort(H,U,f) =-0.324E-02 0.116E-01-0.940E-02
CGA:  93    -0.223430670495E+03   -0.38608E-02   -0.37741E-02  5760   0.549E-01-0.108E-02
 gam= 1.662 trial= 0.182  step= 0.187 mean= 0.182
 gam= 0.648 g(H,U,f)=  0.142E-01 0.189E-01 0.249E-02 ort(H,U,f) =-0.139E-01 0.121E-01-0.379E-02
CGA:  94    -0.223435622320E+03   -0.49518E-02   -0.49685E-02  5760   0.356E-01-0.557E-02
 gam= 0.648 trial= 0.182  step= 0.409 mean= 0.182
 gam= 2.021 g(H,U,f)=  0.187E-01 0.303E-01 0.231E-01 ort(H,U,f) =-0.693E-02 0.771E-02 0.122E-02
CGA:  95    -0.223442067853E+03   -0.64455E-02   -0.65371E-02  5760   0.720E-01 0.200E-02
 gam= 2.021 trial= 0.193  step= 0.112 mean= 0.193
 gam= 0.428 g(H,U,f)=  0.174E-01 0.116E-01 0.177E-02 ort(H,U,f) =-0.133E-01 0.184E-01-0.588E-02
CGA:  96    -0.223445601937E+03   -0.35341E-02   -0.42575E-02  5760   0.308E-01-0.740E-03
 gam= 0.428 trial= 0.189  step= 0.567 mean= 0.189
 gam= 2.458 g(H,U,f)=  0.199E-01 0.407E-01 0.151E-01 ort(H,U,f) =-0.673E-02 0.343E-02-0.248E-02
CGA:  97    -0.223453622171E+03   -0.80202E-02   -0.86455E-02  5760   0.757E-01-0.578E-02
 gam= 2.458 trial= 0.208  step= 0.107 mean= 0.208
 gam= 0.733 g(H,U,f)=  0.182E-01 0.285E-01 0.883E-02 ort(H,U,f) =-0.534E-02 0.171E-01-0.987E-02
CGA:  98    -0.223457233859E+03   -0.36117E-02   -0.33012E-02  5760   0.555E-01 0.185E-02
 gam= 0.733 trial= 0.203  step= 0.214 mean= 0.203
 gam= 1.726 g(H,U,f)=  0.173E-01 0.421E-01 0.364E-01 ort(H,U,f) =-0.134E-02 0.103E-01-0.441E-02
CGA:  99    -0.223463330276E+03   -0.60964E-02   -0.60816E-02  5760   0.958E-01 0.455E-02
 gam= 1.726 trial= 0.204  step= 0.119 mean= 0.204
 gam= 0.566 g(H,U,f)=  0.225E-01 0.303E-01 0.147E-02 ort(H,U,f) =-0.207E-01 0.224E-01-0.360E-03
CGA: 100    -0.223468160735E+03   -0.48305E-02   -0.61683E-02  5760   0.542E-01 0.140E-02
 gam= 0.566 trial= 0.199  step= 0.325 mean= 0.199
 gam= 2.729 g(H,U,f)=  0.241E-01 0.569E-01 0.670E-01 ort(H,U,f) =-0.199E-01 0.198E-01-0.613E-03
CGA: 101    -0.223477670864E+03   -0.95101E-02   -0.89283E-02  5760   0.148E+00-0.689E-03
 gam= 2.729 trial= 0.206  step= 0.129 mean= 0.206
 gam= 0.637 g(H,U,f)=  0.375E-01 0.469E-01 0.977E-02 ort(H,U,f) =-0.565E-01 0.809E-01-0.289E-01
CGA: 102    -0.223487408954E+03   -0.97381E-02   -0.94419E-02  5760   0.942E-01-0.447E-02
 gam= 0.637 trial= 0.202  step= 0.462 mean= 0.202
 gam= 3.502 g(H,U,f)=  0.837E-01 0.125E+00 0.121E+00 ort(H,U,f) =-0.459E-02 0.136E+00-0.107E+00
CGA: 103    -0.223514031975E+03   -0.26623E-01   -0.21118E-01  5760   0.330E+00 0.238E-01
 gam= 3.502 trial= 0.215  step= 0.006 mean= 0.215
 gam= 0.000 g(H,U,f)=  0.832E-01 0.118E+00 0.100E+00 ort(H,U,f) = 0.575E-01 0.588E+00-0.233E+00
CGA: 104    -0.223516928390E+03   -0.28964E-02   -0.11791E-02  5760   0.301E+00 0.412E+00
 gam= 0.000 trial= 0.204  step= 0.123 mean= 0.204
 gam= 0.448 g(H,U,f)=  0.344E-01 0.554E-01 0.452E-01 ort(H,U,f) = 0.365E-01 0.249E-01-0.689E-01
CGA: 105    -0.223535210645E+03   -0.18282E-01   -0.18597E-01  5760   0.135E+00-0.750E-02
 gam= 0.448 trial= 0.200  step= 0.296 mean= 0.200
 gam= 0.624 g(H,U,f)=  0.265E-01 0.455E-01 0.123E-01 ort(H,U,f) =-0.257E-02 0.123E-01 0.500E-02
CGA: 106    -0.223555752801E+03   -0.20542E-01   -0.19500E-01  5760   0.842E-01 0.147E-01
 gam= 0.624 trial= 0.205  step= 0.549 mean= 0.205
 gam= 1.868 g(H,U,f)=  0.412E-01 0.898E-01 0.263E-01 ort(H,U,f) =-0.108E-01 0.491E-01-0.201E-01
CGA: 107    -0.223587780378E+03   -0.32028E-01   -0.25659E-01  5760   0.157E+00 0.183E-01
 gam= 1.868 trial= 0.222  step= 0.227 mean= 0.222
 gam= 2.748 g(H,U,f)=  0.649E-01 0.144E+00 0.223E+00 ort(H,U,f) =-0.538E-01-0.356E-03 0.359E-01
CGA: 108    -0.223609056424E+03   -0.21276E-01   -0.21718E-01  5760   0.432E+00-0.182E-01
 gam= 2.748 trial= 0.223  step= 0.017 mean= 0.223
 gam= 0.000 g(H,U,f)=  0.794E-01 0.198E+00 0.276E+00 ort(H,U,f) =-0.105E+00 0.669E-01 0.331E+00
CGA: 109    -0.223609935053E+03   -0.87863E-03   -0.31692E-02  5760   0.554E+00 0.293E+00
 gam= 0.000 trial= 0.212  step= 0.122 mean= 0.212
 gam= 0.145 g(H,U,f)=  0.278E-01 0.510E-01 0.171E-02 ort(H,U,f) = 0.160E-01-0.122E-01 0.453E-02
CGA: 110    -0.223636263209E+03   -0.26328E-01   -0.33772E-01  5760   0.805E-01 0.834E-02
 gam= 0.145 trial= 0.208  step= 0.684 mean= 0.208
 gam= 0.000 g(H,U,f)=  0.623E-01 0.198E+00 0.560E-01 ort(H,U,f) =-0.239E-01-0.200E-01-0.295E-02
CGA: 111    -0.223650134683E+03   -0.13871E-01   -0.27941E-01  5760   0.316E+00-0.469E-01
 gam= 0.000 trial= 0.232  step= 0.139 mean= 0.232
 gam= 0.164 g(H,U,f)=  0.915E-02 0.369E-01 0.559E-02 ort(H,U,f) = 0.485E-02 0.591E-02-0.137E-01
CGA: 112    -0.223671534600E+03   -0.21400E-01   -0.22031E-01  5760   0.517E-01-0.296E-02
 gam= 0.164 trial= 0.227  step= 0.450 mean= 0.227
 gam= 1.375 g(H,U,f)=  0.192E-01 0.489E-01 0.305E-02 ort(H,U,f) =-0.105E-01 0.867E-02-0.259E-02
CGA: 113    -0.223682467937E+03   -0.10933E-01   -0.11523E-01  5760   0.711E-01-0.444E-02
 gam= 1.375 trial= 0.238  step= 0.973 mean= 0.238
 gam= 1.286 g(H,U,f)=  0.505E-01 0.408E-01 0.107E-03 ort(H,U,f) =-0.143E-01 0.165E-01-0.191E-04
CGA: 114    -0.223715247877E+03   -0.32780E-01   -0.31606E-01  5760   0.914E-01 0.216E-02
 gam= 1.286 trial= 0.275  step= 0.499 mean= 0.275
 gam= 0.692 g(H,U,f)=  0.205E-01 0.424E-01 0.278E-03 ort(H,U,f) =-0.369E-02 0.877E-02-0.168E-03
CGA: 115    -0.223738939487E+03   -0.23692E-01   -0.23491E-01  5760   0.632E-01 0.491E-02
 gam= 0.692 trial= 0.286  step= 0.248 mean= 0.286
 gam= 0.511 g(H,U,f)=  0.129E-01 0.192E-01 0.160E-03 ort(H,U,f) =-0.336E-02 0.476E-02-0.596E-04
CGA: 116    -0.223747451229E+03   -0.85117E-02   -0.82596E-02  5760   0.323E-01 0.134E-02
 gam= 0.511 trial= 0.284  step= 0.297 mean= 0.284
 gam= 0.633 g(H,U,f)=  0.865E-02 0.117E-01 0.920E-04 ort(H,U,f) =-0.486E-02 0.257E-02-0.996E-04
CGA: 117    -0.223752301474E+03   -0.48502E-02   -0.48925E-02  5760   0.204E-01-0.238E-02
 gam= 0.633 trial= 0.285  step= 0.711 mean= 0.285
 gam= 0.899 g(H,U,f)=  0.747E-02 0.105E-01 0.350E-03 ort(H,U,f) =-0.379E-02 0.354E-02-0.148E-03
CGA: 118    -0.223758857139E+03   -0.65557E-02   -0.67265E-02  5760   0.184E-01-0.397E-03
 gam= 0.899 trial= 0.306  step= 0.371 mean= 0.306
 gam= 0.731 g(H,U,f)=  0.587E-02 0.669E-02 0.841E-03 ort(H,U,f) =-0.239E-02 0.285E-02-0.356E-03
CGA: 119    -0.223762174171E+03   -0.33170E-02   -0.33370E-02  5760   0.134E-01 0.956E-04
 gam= 0.731 trial= 0.309  step= 0.361 mean= 0.309
 gam= 1.110 g(H,U,f)=  0.347E-02 0.103E-01 0.115E-02 ort(H,U,f) =-0.567E-03 0.131E-02-0.576E-03
CGA: 120    -0.223764560984E+03   -0.23868E-02   -0.24348E-02  5760   0.149E-01 0.171E-03
 gam= 1.110 trial= 0.312  step= 0.415 mean= 0.312
 gam= 0.531 g(H,U,f)=  0.413E-02 0.376E-02 0.134E-04 ort(H,U,f) =-0.373E-02 0.306E-02-0.546E-05
CGA: 121    -0.223767603898E+03   -0.30429E-02   -0.31268E-02  5760   0.790E-02-0.671E-03
 gam= 0.531 trial= 0.317  step= 0.540 mean= 0.317
 gam= 1.072 g(H,U,f)=  0.371E-02 0.472E-02 0.317E-04 ort(H,U,f) =-0.769E-03 0.732E-03-0.176E-05
CGA: 122    -0.223769576341E+03   -0.19724E-02   -0.20363E-02  5760   0.846E-02-0.379E-04
 gam= 1.072 trial= 0.328  step= 0.296 mean= 0.328
 gam= 0.685 g(H,U,f)=  0.180E-02 0.395E-02 0.368E-04 ort(H,U,f) = 0.430E-04 0.898E-04-0.381E-04
CGA: 123    -0.223770857728E+03   -0.12814E-02   -0.12456E-02  5760   0.580E-02 0.947E-04
 gam= 0.685 trial= 0.327  step= 0.358 mean= 0.327
 gam= 0.505 g(H,U,f)=  0.126E-02 0.164E-02 0.182E-04 ort(H,U,f) =-0.890E-03 0.521E-03 0.562E-05
CGA: 124    -0.223771886994E+03   -0.10293E-02   -0.10490E-02  5760   0.292E-02-0.364E-03
 gam= 0.505 trial= 0.328  step= 0.394 mean= 0.328
 gam= 0.849 g(H,U,f)=  0.840E-03 0.163E-02 0.856E-05 ort(H,U,f) =-0.202E-03 0.183E-03-0.469E-05
CGA: 125    -0.223772413527E+03   -0.52653E-03   -0.53949E-03  5760   0.248E-02-0.240E-04
 gam= 0.849 trial= 0.331  step= 0.374 mean= 0.331
 gam= 0.954 g(H,U,f)=  0.776E-03 0.157E-02 0.194E-04 ort(H,U,f) =-0.293E-03 0.252E-03-0.545E-05
CGA: 126    -0.223772859902E+03   -0.44638E-03   -0.46072E-03  5760   0.237E-02-0.456E-04
 gam= 0.954 trial= 0.334  step= 0.457 mean= 0.334
 gam= 1.150 g(H,U,f)=  0.102E-02 0.168E-02 0.209E-04 ort(H,U,f) =-0.705E-03 0.476E-03-0.184E-04
CGA: 127    -0.223773347856E+03   -0.48795E-03   -0.53093E-03  5760   0.272E-02-0.247E-03
 gam= 1.150 trial= 0.340  step= 0.456 mean= 0.340
 gam= 1.050 g(H,U,f)=  0.111E-02 0.173E-02 0.139E-04 ort(H,U,f) =-0.571E-03 0.507E-03 0.349E-05
CGA: 128    -0.223773883403E+03   -0.53555E-03   -0.55652E-03  5760   0.286E-02-0.607E-04
 gam= 1.050 trial= 0.346  step= 0.460 mean= 0.346
 gam= 1.131 g(H,U,f)=  0.122E-02 0.201E-02 0.950E-05 ort(H,U,f) =-0.534E-03 0.430E-03-0.928E-05
CGA: 129    -0.223774479401E+03   -0.59600E-03   -0.64336E-03  5760   0.324E-02-0.113E-03
 gam= 1.131 trial= 0.351  step= 0.384 mean= 0.351
 gam= 1.064 g(H,U,f)=  0.130E-02 0.210E-02 0.428E-04 ort(H,U,f) =-0.558E-03 0.454E-03-0.164E-05
CGA: 130    -0.223775062786E+03   -0.58339E-03   -0.59662E-03  5760   0.344E-02-0.106E-03
 gam= 1.064 trial= 0.353  step= 0.482 mean= 0.353
 gam= 0.965 g(H,U,f)=  0.129E-02 0.201E-02 0.249E-04 ort(H,U,f) =-0.743E-03 0.489E-03-0.275E-04
CGA: 131    -0.223775809853E+03   -0.74707E-03   -0.80297E-03  5760   0.333E-02-0.281E-03
 gam= 0.965 trial= 0.359  step= 0.385 mean= 0.359
 gam= 0.972 g(H,U,f)=  0.122E-02 0.201E-02 0.997E-05 ort(H,U,f) =-0.502E-03 0.516E-03 0.178E-05
CGA: 132    -0.223776390303E+03   -0.58045E-03   -0.58728E-03  5760   0.323E-02 0.153E-04
 gam= 0.972 trial= 0.361  step= 0.424 mean= 0.361
 gam= 1.088 g(H,U,f)=  0.121E-02 0.228E-02 0.252E-04 ort(H,U,f) =-0.580E-03 0.499E-03-0.290E-04
CGA: 133    -0.223777052079E+03   -0.66178E-03   -0.68899E-03  5760   0.352E-02-0.110E-03
 gam= 1.088 trial= 0.364  step= 0.427 mean= 0.364
 gam= 1.029 g(H,U,f)=  0.143E-02 0.216E-02 0.336E-04 ort(H,U,f) =-0.763E-03 0.697E-03-0.808E-05
CGA: 134    -0.223777752373E+03   -0.70029E-03   -0.72590E-03  5760   0.362E-02-0.744E-04
 gam= 1.029 trial= 0.367  step= 0.445 mean= 0.367
 gam= 1.311 g(H,U,f)=  0.159E-02 0.309E-02 0.640E-04 ort(H,U,f) =-0.812E-03 0.603E-03-0.450E-04
CGA: 135    -0.223778485080E+03   -0.73271E-03   -0.78860E-03  5760   0.474E-02-0.254E-03
 gam= 1.311 trial= 0.371  step= 0.362 mean= 0.371
 gam= 0.805 g(H,U,f)=  0.178E-02 0.201E-02 0.281E-04 ort(H,U,f) =-0.860E-03 0.741E-03-0.720E-05
CGA: 136    -0.223779285530E+03   -0.80045E-03   -0.79755E-03  5760   0.382E-02-0.125E-03
 gam= 0.805 trial= 0.370  step= 0.509 mean= 0.370
 gam= 0.851 g(H,U,f)=  0.150E-02 0.167E-02 0.838E-04 ort(H,U,f) =-0.676E-03 0.607E-03-0.508E-04
CGA: 137    -0.223780193765E+03   -0.90824E-03   -0.94650E-03  5760   0.325E-02-0.120E-03
 gam= 0.851 trial= 0.377  step= 0.342 mean= 0.377
 gam= 0.907 g(H,U,f)=  0.102E-02 0.177E-02 0.162E-03 ort(H,U,f) =-0.634E-04 0.270E-03-0.677E-04
CGA: 138    -0.223780740860E+03   -0.54709E-03   -0.53802E-03  5760   0.295E-02 0.139E-03
 gam= 0.907 trial= 0.376  step= 0.324 mean= 0.376
 gam= 0.703 g(H,U,f)=  0.813E-03 0.126E-02 0.520E-05 ort(H,U,f) =-0.355E-03 0.270E-03 0.160E-05
CGA: 139    -0.223781261842E+03   -0.52098E-03   -0.49888E-03  5760   0.207E-02-0.833E-04
 gam= 0.703 trial= 0.373  step= 0.400 mean= 0.373
 gam= 0.739 g(H,U,f)=  0.618E-03 0.910E-03 0.353E-05 ort(H,U,f) =-0.265E-03 0.269E-03 0.186E-06
CGA: 140    -0.223781664478E+03   -0.40264E-03   -0.40344E-03  5760   0.153E-02 0.378E-05
 gam= 0.739 trial= 0.374  step= 0.391 mean= 0.374
 gam= 0.917 g(H,U,f)=  0.491E-03 0.908E-03 0.573E-05 ort(H,U,f) =-0.150E-03 0.215E-03-0.408E-05
CGA: 141    -0.223781960621E+03   -0.29614E-03   -0.30027E-03  5760   0.140E-02 0.613E-04
 gam= 0.917 trial= 0.375  step= 0.274 mean= 0.375
 gam= 0.000 g(H,U,f)=  0.422E-03 0.579E-03 0.323E-05 ort(H,U,f) =-0.143E-03 0.166E-03 0.329E-05
SDA: 142    -0.223782174677E+03   -0.21406E-03   -0.20043E-03  5760   0.101E-02 0.255E-04
 gam= 0.000 trial= 0.370  step= 0.176 mean= 0.370
 gam= 0.434 g(H,U,f)=  0.151E-03 0.284E-03 0.188E-05 ort(H,U,f) = 0.151E-03-0.205E-04-0.399E-06
CGA: 143    -0.223782277215E+03   -0.10254E-03   -0.88203E-04  5760   0.436E-03 0.130E-03
 gam= 0.434 trial= 0.360  step= 0.374 mean= 0.360
 gam= 0.957 g(H,U,f)=  0.144E-03 0.273E-03 0.716E-06 ort(H,U,f) =-0.393E-04 0.157E-04-0.301E-06
CGA: 144    -0.223782368739E+03   -0.91524E-04   -0.92222E-04  5760   0.418E-03-0.238E-04
 gam= 0.957 trial= 0.361  step= 0.636 mean= 0.361
 gam= 1.138 g(H,U,f)=  0.252E-03 0.223E-03 0.504E-06 ort(H,U,f) =-0.184E-03 0.164E-03 0.654E-07
CGA: 145    -0.223782488630E+03   -0.11989E-03   -0.12547E-03  5760   0.475E-03-0.204E-04
 gam= 1.138 trial= 0.375  step= 0.370 mean= 0.375
 gam= 1.040 g(H,U,f)=  0.258E-03 0.235E-03 0.108E-05 ort(H,U,f) =-0.129E-03 0.150E-03-0.148E-06
CGA: 146    -0.223782572262E+03   -0.83632E-04   -0.83591E-04  5760   0.494E-03 0.199E-04
 gam= 1.040 trial= 0.375  step= 0.456 mean= 0.375
 gam= 1.331 g(H,U,f)=  0.270E-03 0.385E-03 0.269E-05 ort(H,U,f) =-0.865E-04 0.861E-04-0.752E-06
CGA: 147    -0.223782681711E+03   -0.10945E-03   -0.11739E-03  5760   0.658E-03-0.114E-05
 gam= 1.331 trial= 0.379  step= 0.303 mean= 0.379
 gam= 0.731 g(H,U,f)=  0.255E-03 0.225E-03 0.484E-06 ort(H,U,f) =-0.139E-03 0.120E-03-0.103E-05
CGA: 148    -0.223782785304E+03   -0.10359E-03   -0.99560E-04  5760   0.481E-03-0.203E-04
 gam= 0.731 trial= 0.375  step= 0.445 mean= 0.375
 gam= 0.664 g(H,U,f)=  0.183E-03 0.136E-03 0.232E-06 ort(H,U,f) =-0.788E-04 0.655E-04-0.203E-06
CGA: 149    -0.223782888299E+03   -0.10300E-03   -0.10383E-03  5760   0.319E-03-0.135E-04
 gam= 0.664 trial= 0.378  step= 0.508 mean= 0.378
 gam= 0.744 g(H,U,f)=  0.123E-03 0.115E-03 0.155E-06 ort(H,U,f) =-0.503E-04 0.558E-04-0.177E-06
CGA: 150    -0.223782967239E+03   -0.78940E-04   -0.78766E-04  5760   0.237E-03 0.532E-05
 gam= 0.744 trial= 0.385  step= 0.642 mean= 0.385
 gam= 1.011 g(H,U,f)=  0.110E-03 0.129E-03 0.705E-06 ort(H,U,f) =-0.624E-04 0.652E-04-0.164E-06
CGA: 151    -0.223783043732E+03   -0.76493E-04   -0.77453E-04  5760   0.240E-03 0.266E-05
 gam= 1.011 trial= 0.398  step= 0.394 mean= 0.398
 gam= 1.310 g(H,U,f)=  0.116E-03 0.198E-03 0.885E-06 ort(H,U,f) =-0.440E-04 0.530E-04-0.402E-06
CGA: 152    -0.223783091647E+03   -0.47915E-04   -0.47868E-04  5760   0.315E-03 0.858E-05
 gam= 1.310 trial= 0.398  step= 0.309 mean= 0.398
 gam= 0.691 g(H,U,f)=  0.112E-03 0.105E-03 0.610E-06 ort(H,U,f) =-0.677E-04 0.669E-04-0.481E-06
CGA: 153    -0.223783144837E+03   -0.53190E-04   -0.50377E-04  5760   0.217E-03-0.127E-05
 gam= 0.691 trial= 0.393  step= 0.580 mean= 0.393
 gam= 1.110 g(H,U,f)=  0.102E-03 0.137E-03 0.203E-05 ort(H,U,f) =-0.398E-04 0.302E-04-0.671E-06
CGA: 154    -0.223783204668E+03   -0.59831E-04   -0.62821E-04  5760   0.241E-03-0.102E-04
 gam= 1.110 trial= 0.402  step= 0.350 mean= 0.402
 gam= 0.735 g(H,U,f)=  0.850E-04 0.922E-04 0.314E-06 ort(H,U,f) =-0.343E-04 0.393E-04-0.858E-10
CGA: 155    -0.223783245304E+03   -0.40636E-04   -0.40260E-04  5760   0.177E-03 0.504E-05
 gam= 0.735 trial= 0.400  step= 0.304 mean= 0.400
 gam= 0.737 g(H,U,f)=  0.613E-04 0.692E-04 0.361E-06 ort(H,U,f) =-0.676E-05 0.143E-04-0.229E-07
CGA: 156    -0.223783274380E+03   -0.29076E-04   -0.27545E-04  5760   0.131E-03 0.749E-05
 gam= 0.737 trial= 0.395  step= 0.487 mean= 0.395
 gam= 1.178 g(H,U,f)=  0.590E-04 0.942E-04 0.969E-06 ort(H,U,f) =-0.163E-04 0.105E-04-0.791E-06
CGA: 157    -0.223783306458E+03   -0.32079E-04   -0.33193E-04  5760   0.154E-03-0.659E-05
 gam= 1.178 trial= 0.400  step= 0.345 mean= 0.400
 gam= 0.818 g(H,U,f)=  0.551E-04 0.708E-04 0.230E-06 ort(H,U,f) =-0.348E-04 0.360E-04-0.116E-06
CGA: 158    -0.223783332348E+03   -0.25890E-04   -0.25290E-04  5760   0.126E-03 0.113E-05
 gam= 0.818 trial= 0.397  step= 0.389 mean= 0.397
 gam= 0.881 g(H,U,f)=  0.535E-04 0.573E-04 0.265E-06 ort(H,U,f) =-0.345E-04 0.346E-04-0.850E-07
CGA: 159    -0.223783357141E+03   -0.24793E-04   -0.24741E-04  5760   0.111E-03-0.644E-08
 gam= 0.881 trial= 0.397  step= 0.501 mean= 0.397
 gam= 1.266 g(H,U,f)=  0.639E-04 0.757E-04 0.109E-05 ort(H,U,f) =-0.291E-04 0.309E-04 0.422E-07
CGA: 160    -0.223783384424E+03   -0.27284E-04   -0.27833E-04  5760   0.141E-03 0.176E-05
 gam= 1.266 trial= 0.402  step= 0.397 mean= 0.402
 gam= 1.128 g(H,U,f)=  0.693E-04 0.887E-04 0.692E-06 ort(H,U,f) =-0.316E-04 0.334E-04-0.479E-06
CGA: 161    -0.223783412840E+03   -0.28415E-04   -0.28339E-04  5760   0.159E-03 0.137E-05
 gam= 1.128 trial= 0.402  step= 0.389 mean= 0.402
 gam= 0.933 g(H,U,f)=  0.715E-04 0.759E-04 0.718E-06 ort(H,U,f) =-0.350E-04 0.298E-04-0.207E-06
CGA: 162    -0.223783444203E+03   -0.31364E-04   -0.31199E-04  5760   0.148E-03-0.542E-05
 gam= 0.933 trial= 0.401  step= 0.372 mean= 0.401
 gam= 0.671 g(H,U,f)=  0.580E-04 0.406E-04 0.929E-06 ort(H,U,f) =-0.281E-04 0.279E-04-0.117E-05
CGA: 163    -0.223783470991E+03   -0.26787E-04   -0.26603E-04  5760   0.995E-04-0.139E-05
 gam= 0.671 trial= 0.399  step= 0.483 mean= 0.399
 gam= 1.180 g(H,U,f)=  0.462E-04 0.699E-04 0.120E-05 ort(H,U,f) =-0.467E-05 0.857E-05-0.485E-06
CGA: 164    -0.223783494379E+03   -0.23389E-04   -0.23787E-04  5760   0.117E-03 0.342E-05
 gam= 1.180 trial= 0.404  step= 0.327 mean= 0.404
 gam= 0.792 g(H,U,f)=  0.350E-04 0.564E-04 0.155E-05 ort(H,U,f) =-0.186E-04 0.221E-04-0.888E-06
CGA: 165    -0.223783514938E+03   -0.20559E-04   -0.19822E-04  5760   0.929E-04 0.268E-05
 gam= 0.792 trial= 0.400  step= 0.331 mean= 0.400
 gam= 0.727 g(H,U,f)=  0.316E-04 0.351E-04 0.965E-06 ort(H,U,f) =-0.195E-04 0.186E-04-0.759E-06
CGA: 166    -0.223783531040E+03   -0.16102E-04   -0.15713E-04  5760   0.676E-04-0.162E-05
 gam= 0.727 trial= 0.396  step= 0.591 mean= 0.396
 gam= 1.451 g(H,U,f)=  0.430E-04 0.526E-04 0.246E-05 ort(H,U,f) =-0.126E-04 0.106E-04-0.783E-06
CGA: 167    -0.223783549983E+03   -0.18943E-04   -0.19604E-04  5760   0.981E-04-0.288E-05
 gam= 1.451 trial= 0.406  step= 0.404 mean= 0.406
 gam= 0.934 g(H,U,f)=  0.369E-04 0.544E-04 0.218E-06 ort(H,U,f) =-0.236E-04 0.283E-04-0.351E-06
CGA: 168    -0.223783568947E+03   -0.18964E-04   -0.18951E-04  5760   0.916E-04 0.436E-05
 gam= 0.934 trial= 0.406  step= 0.293 mean= 0.406
 gam= 0.711 g(H,U,f)=  0.338E-04 0.311E-04 0.169E-06 ort(H,U,f) =-0.185E-04 0.219E-04-0.942E-07
CGA: 169    -0.223783583575E+03   -0.14628E-04   -0.13996E-04  5760   0.651E-04 0.335E-05
 gam= 0.711 trial= 0.400  step= 0.541 mean= 0.400
 gam= 1.307 g(H,U,f)=  0.396E-04 0.454E-04 0.189E-06 ort(H,U,f) =-0.137E-04 0.136E-04-0.143E-06
CGA: 170    -0.223783601376E+03   -0.17801E-04   -0.18252E-04  5760   0.852E-04-0.235E-06
 gam= 1.307 trial= 0.407  step= 0.437 mean= 0.407
 gam= 1.014 g(H,U,f)=  0.357E-04 0.504E-04 0.252E-06 ort(H,U,f) =-0.186E-04 0.168E-04-0.251E-07
CGA: 171    -0.223783619676E+03   -0.18300E-04   -0.18523E-04  5760   0.863E-04-0.189E-05
 gam= 1.014 trial= 0.409  step= 0.293 mean= 0.409
 gam= 0.728 g(H,U,f)=  0.325E-04 0.302E-04 0.125E-06 ort(H,U,f) =-0.149E-04 0.156E-04-0.123E-06
CGA: 172    -0.223783632767E+03   -0.13092E-04   -0.12372E-04  5760   0.629E-04 0.577E-06
 gam= 0.728 trial= 0.403  step= 0.440 mean= 0.403
 gam= 0.000 g(H,U,f)=  0.280E-04 0.267E-04 0.629E-07 ort(H,U,f) =-0.738E-05 0.621E-05 0.181E-07
SDA: 173    -0.223783646566E+03   -0.13799E-04   -0.13917E-04  5760   0.548E-04-0.115E-05
 gam= 0.000 trial= 0.405  step= 0.301 mean= 0.405
 gam= 0.709 g(H,U,f)=  0.123E-04 0.263E-04 0.225E-06 ort(H,U,f) = 0.103E-04-0.413E-05-0.105E-06
CGA: 174    -0.223783655078E+03   -0.85122E-05   -0.82366E-05  5760   0.389E-04 0.607E-05
 gam= 0.709 trial= 0.400  step= 0.234 mean= 0.400
 gam= 0.571 g(H,U,f)=  0.682E-05 0.153E-04 0.547E-07 ort(H,U,f) = 0.464E-05-0.231E-05-0.645E-07
CGA: 175    -0.223783660941E+03   -0.58625E-05   -0.50416E-05  5760   0.222E-04 0.226E-05
 gam= 0.571 trial= 0.391  step= 0.646 mean= 0.391
 gam= 0.744 g(H,U,f)=  0.744E-05 0.904E-05 0.213E-07 ort(H,U,f) =-0.535E-05 0.527E-05-0.365E-08
CGA: 176    -0.223783668460E+03   -0.75188E-05   -0.75775E-05  5760   0.165E-04-0.813E-07
 gam= 0.744 trial= 0.404  step= 0.557 mean= 0.404
 gam= 1.197 g(H,U,f)=  0.814E-05 0.115E-04 0.107E-06 ort(H,U,f) =-0.350E-05 0.305E-05-0.423E-07
CGA: 177    -0.223783672884E+03   -0.44239E-05   -0.45753E-05  5760   0.197E-04-0.485E-06
 gam= 1.197 trial= 0.412  step= 0.293 mean= 0.412
 gam= 0.887 g(H,U,f)=  0.672E-05 0.108E-04 0.423E-07 ort(H,U,f) =-0.160E-05 0.306E-05-0.270E-07
CGA: 178    -0.223783675843E+03   -0.29598E-05   -0.28053E-05  5760   0.175E-04 0.143E-05
 gam= 0.887 trial= 0.406  step= 0.415 mean= 0.406
 gam= 0.685 g(H,U,f)=  0.509E-05 0.691E-05 0.142E-07 ort(H,U,f) =-0.279E-05 0.238E-05-0.891E-08
CGA: 179    -0.223783679725E+03   -0.38817E-05   -0.39010E-05  5760   0.120E-04-0.419E-06
 gam= 0.685 trial= 0.406  step= 0.425 mean= 0.406
 gam= 0.861 g(H,U,f)=  0.416E-05 0.613E-05 0.554E-07 ort(H,U,f) =-0.169E-05 0.183E-05-0.919E-08
CGA: 180    -0.223783682203E+03   -0.24777E-05   -0.24891E-05  5760   0.103E-04 0.132E-06
 gam= 0.861 trial= 0.407  step= 0.322 mean= 0.407
 gam= 1.080 g(H,U,f)=  0.380E-05 0.732E-05 0.539E-07 ort(H,U,f) =-0.578E-06 0.999E-06-0.367E-07
CGA: 181    -0.223783684008E+03   -0.18052E-05   -0.16818E-05  5760   0.112E-04 0.385E-06
 gam= 1.080 trial= 0.403  step= 0.488 mean= 0.403
 gam= 0.747 g(H,U,f)=  0.420E-05 0.413E-05 0.159E-07 ort(H,U,f) =-0.309E-05 0.239E-05-0.168E-07
CGA: 182    -0.223783686766E+03   -0.27585E-05   -0.28266E-05  5760   0.835E-05-0.719E-06
 gam= 0.747 trial= 0.407  step= 0.475 mean= 0.407
 gam= 1.344 g(H,U,f)=  0.416E-05 0.700E-05 0.487E-07 ort(H,U,f) =-0.943E-06 0.161E-05-0.126E-07
CGA: 183    -0.223783688584E+03   -0.18180E-05   -0.18554E-05  5760   0.112E-04 0.652E-06
 gam= 1.344 trial= 0.410  step= 0.324 mean= 0.410
 gam= 0.714 g(H,U,f)=  0.323E-05 0.473E-05 0.431E-07 ort(H,U,f) =-0.152E-05 0.207E-05-0.312E-07
CGA: 184    -0.223783690659E+03   -0.20750E-05   -0.19603E-05  5760   0.801E-05 0.519E-06
 gam= 0.714 trial= 0.406  step= 0.386 mean= 0.406
 gam= 0.949 g(H,U,f)=  0.284E-05 0.473E-05 0.310E-07 ort(H,U,f) =-0.119E-05 0.784E-06-0.149E-07
CGA: 185    -0.223783692296E+03   -0.16366E-05   -0.16171E-05  5760   0.760E-05-0.417E-06
 gam= 0.949 trial= 0.405  step= 0.436 mean= 0.405
 gam= 0.959 g(H,U,f)=  0.322E-05 0.403E-05 0.292E-07 ort(H,U,f) =-0.166E-05 0.140E-05-0.684E-08
CGA: 186    -0.223783693844E+03   -0.15481E-05   -0.15714E-05  5760   0.728E-05-0.264E-06
 gam= 0.959 trial= 0.407  step= 0.331 mean= 0.407
 gam= 0.802 g(H,U,f)=  0.261E-05 0.321E-05 0.204E-07 ort(H,U,f) =-0.802E-06 0.109E-05-0.170E-07
CGA: 187    -0.223783695076E+03   -0.12324E-05   -0.11647E-05  5760   0.584E-05 0.272E-06
 gam= 0.802 trial= 0.403  step= 0.406 mean= 0.403
 gam= 0.894 g(H,U,f)=  0.206E-05 0.314E-05 0.193E-07 ort(H,U,f) =-0.587E-06 0.790E-06-0.113E-07
CGA: 188    -0.223783696304E+03   -0.12279E-05   -0.12290E-05  5760   0.522E-05 0.191E-06
 gam= 0.894 trial= 0.403  step= 0.393 mean= 0.403
 gam= 1.053 g(H,U,f)=  0.192E-05 0.355E-05 0.284E-07 ort(H,U,f) =-0.823E-06 0.878E-06-0.138E-07
CGA: 189    -0.223783697369E+03   -0.10650E-05   -0.10603E-05  5760   0.550E-05 0.413E-07
 gam= 1.053 trial= 0.403  step= 0.373 mean= 0.403
 gam= 0.742 g(H,U,f)=  0.197E-05 0.209E-05 0.145E-07 ort(H,U,f) =-0.135E-05 0.131E-05-0.933E-08
CGA: 190    -0.223783698417E+03   -0.10475E-05   -0.10324E-05  5760   0.408E-05-0.479E-07
 gam= 0.742 trial= 0.401  step= 0.492 mean= 0.401
 gam= 1.706 g(H,U,f)=  0.216E-05 0.477E-05 0.320E-07 ort(H,U,f) =-0.656E-06 0.439E-06-0.101E-07
CGA: 191    -0.223783699329E+03   -0.91254E-06   -0.99532E-06  5760   0.696E-05-0.227E-06
 gam= 1.706 trial= 0.406  step= 0.318 mean= 0.406
 gam= 0.620 g(H,U,f)=  0.202E-05 0.229E-05 0.819E-08 ort(H,U,f) =-0.175E-05 0.154E-05-0.527E-08
CGA: 192    -0.223783700420E+03   -0.10903E-05   -0.10463E-05  5760   0.432E-05-0.209E-06
 gam= 0.620 trial= 0.401  step= 0.470 mean= 0.401
 gam= 0.815 g(H,U,f)=  0.176E-05 0.176E-05 0.275E-08 ort(H,U,f) =-0.729E-06 0.860E-06-0.234E-08
CGA: 193    -0.223783701404E+03   -0.98373E-06   -0.98292E-06  5760   0.352E-05 0.129E-06
 gam= 0.815 trial= 0.405  step= 0.596 mean= 0.405
 gam= 0.826 g(H,U,f)=  0.150E-05 0.140E-05 0.330E-08 ort(H,U,f) =-0.617E-06 0.963E-06-0.125E-08
CGA: 194    -0.223783702514E+03   -0.11100E-05   -0.10793E-05  5760   0.290E-05 0.345E-06
 gam= 0.826 trial= 0.414  step= 0.910 mean= 0.414
 gam= 1.852 g(H,U,f)=  0.191E-05 0.344E-05 0.249E-07 ort(H,U,f) =-0.984E-06 0.704E-06-0.647E-08
CGA: 195    -0.223783703824E+03   -0.13100E-05   -0.14508E-05  5760   0.538E-05-0.287E-06
 gam= 1.852 trial= 0.439  step= 0.201 mean= 0.439
 gam= 0.702 g(H,U,f)=  0.197E-05 0.180E-05 0.336E-08 ort(H,U,f) =-0.120E-05 0.175E-05-0.523E-08
CGA: 196    -0.223783704416E+03   -0.59271E-06   -0.48834E-06  5760   0.378E-05 0.538E-06
 gam= 0.702 trial= 0.427  step= 0.454 mean= 0.427
 final diagonalization
   1 F= -.23386787E+03 E0= -.23386416E+03  d E =-.743563E-02  mag=     6.0000
