       N       E                     dE             d eps       ncg     rms          ort
DAV:   1     0.356459076934E+04    0.35646E+04   -0.14067E+05  5760   0.227E+03
DAV:   2     0.408427833139E+03   -0.31562E+04   -0.29075E+04  5760   0.558E+02
DAV:   3    -0.219795247715E+03   -0.62822E+03   -0.56486E+03  5760   0.259E+02
DAV:   4    -0.269779961194E+03   -0.49985E+02   -0.49011E+02  5760   0.754E+01
DAV:   5    -0.271307776722E+03   -0.15278E+01   -0.15253E+01  5760   0.131E+01
SDA:   6     0.105293983578E+03    0.37660E+03   -0.15253E+01  5760   0.699E+04 0.000E+00
CGA:   7     0.181556351994E+01   -0.10348E+03   -0.36271E+03  5760   0.879E+04-0.245E+04
CGA:   8    -0.104235927700E+03   -0.10605E+03   -0.25367E+03  5760   0.746E+04 0.333E+03
CGA:   9    -0.105018217227E+03   -0.78229E+00   -0.26088E+03  5760   0.293E+04-0.429E+04
CGA:  10    -0.170567682950E+03   -0.65549E+02   -0.70203E+02  5760   0.347E+03 0.491E+03
CGA:  11    -0.195206004972E+03   -0.24638E+02   -0.29867E+02  5760   0.489E+03-0.640E+02
CGA:  12    -0.204228076334E+03   -0.90221E+01   -0.10835E+02  5760   0.139E+03-0.787E+02
CGA:  13    -0.207938697353E+03   -0.37106E+01   -0.45626E+01  5760   0.118E+03-0.173E+02
CGA:  14    -0.211187276399E+03   -0.32486E+01   -0.55360E+01  5760   0.724E+02-0.261E+02
CGA:  15    -0.214920226502E+03   -0.37330E+01   -0.38189E+01  5760   0.514E+02-0.287E+00
CGA:  16    -0.216782045901E+03   -0.18618E+01   -0.20762E+01  5760   0.696E+01-0.353E+01
CGA:  17    -0.217346819116E+03   -0.56477E+00   -0.57370E+00  5760   0.554E+01 0.226E-01
CGA:  18    -0.217744821851E+03   -0.39800E+00   -0.41287E+00  5760   0.415E+01-0.784E-01
CGA:  19    -0.218036709067E+03   -0.29189E+00   -0.30615E+00  5760   0.170E+01-0.640E-01
CGA:  20    -0.218234953090E+03   -0.19824E+00   -0.19809E+00  5760   0.919E+00-0.577E-02
CGA:  21    -0.218326925890E+03   -0.91973E-01   -0.92848E-01  5760   0.707E+00 0.775E-02
CGA:  22    -0.218419870725E+03   -0.92945E-01   -0.92895E-01  5760   0.976E+00 0.500E-02
CGA:  23    -0.218554773707E+03   -0.13490E+00   -0.13469E+00  5760   0.677E+00 0.102E-01
CGA:  24    -0.218663694302E+03   -0.10892E+00   -0.10894E+00  5760   0.871E+00 0.145E-02
CGA:  25    -0.218773904113E+03   -0.11021E+00   -0.11004E+00  5760   0.105E+01-0.205E-01
CGA:  26    -0.218889684061E+03   -0.11578E+00   -0.11628E+00  5760   0.953E+00 0.157E-01
CGA:  27    -0.219007898829E+03   -0.11821E+00   -0.11891E+00  5760   0.760E+00 0.543E-01
CGA:  28    -0.219098551888E+03   -0.90653E-01   -0.91308E-01  5760   0.599E+00 0.164E-01
CGA:  29    -0.219206830118E+03   -0.10828E+00   -0.10618E+00  5760   0.433E+00 0.341E-01
CGA:  30    -0.219276472829E+03   -0.69643E-01   -0.69980E-01  5760   0.468E+00-0.110E-01
CGA:  31    -0.219349372390E+03   -0.72900E-01   -0.73352E-01  5760   0.573E+00-0.144E-01
CGA:  32    -0.219432298465E+03   -0.82926E-01   -0.82327E-01  5760   0.420E+00 0.262E-01
CGA:  33    -0.219487775858E+03   -0.55477E-01   -0.55498E-01  5760   0.297E+00-0.980E-02
CGA:  34    -0.219527825268E+03   -0.40049E-01   -0.40179E-01  5760   0.351E+00-0.387E-01
CGA:  35    -0.219572645164E+03   -0.44820E-01   -0.45682E-01  5760   0.408E+00-0.701E-01
CGA:  36    -0.219610243097E+03   -0.37598E-01   -0.37248E-01  5760   0.381E+00-0.419E-01
CGA:  37    -0.219653678846E+03   -0.43436E-01   -0.43290E-01  5760   0.455E+00-0.953E-02
CGA:  38    -0.219698691837E+03   -0.45013E-01   -0.46532E-01  5760   0.460E+00-0.133E-02
CGA:  39    -0.219750519592E+03   -0.51828E-01   -0.51615E-01  5760   0.411E+00 0.761E-02
SDA:  40    -0.219787061496E+03   -0.36542E-01   -0.38178E-01  5760   0.469E+00-0.105E-01
CGA:  41    -0.219835511342E+03   -0.48450E-01   -0.49565E-01  5760   0.512E+00-0.316E-01
CGA:  42    -0.219877668516E+03   -0.42157E-01   -0.45273E-01  5760   0.332E+00 0.325E-01
CGA:  43    -0.219939926791E+03   -0.62258E-01   -0.62254E-01  5760   0.339E+00-0.241E-01
CGA:  44    -0.219973120396E+03   -0.33194E-01   -0.34605E-01  5760   0.224E+00 0.318E-01
CGA:  45    -0.220001430280E+03   -0.28310E-01   -0.28557E-01  5760   0.196E+00 0.201E-02
CGA:  46    -0.220026277283E+03   -0.24847E-01   -0.24854E-01  5760   0.987E-01-0.855E-03
CGA:  47    -0.220039209874E+03   -0.12933E-01   -0.12905E-01  5760   0.941E-01-0.218E-03
CGA:  48    -0.220050856778E+03   -0.11647E-01   -0.11687E-01  5760   0.569E-01 0.523E-02
CGA:  49    -0.220061026711E+03   -0.10170E-01   -0.10165E-01  5760   0.417E-01-0.885E-03
CGA:  50    -0.220066587825E+03   -0.55611E-02   -0.55373E-02  5760   0.271E-01 0.274E-02
CGA:  51    -0.220070677333E+03   -0.40895E-02   -0.40704E-02  5760   0.291E-01-0.674E-03
CGA:  52    -0.220074455429E+03   -0.37781E-02   -0.37760E-02  5760   0.271E-01 0.333E-03
CGA:  53    -0.220079017172E+03   -0.45617E-02   -0.43505E-02  5760   0.183E-01 0.650E-02
CGA:  54    -0.220082374241E+03   -0.33571E-02   -0.32742E-02  5760   0.156E-01 0.382E-03
CGA:  55    -0.220085379535E+03   -0.30053E-02   -0.31712E-02  5760   0.240E-01-0.178E-02
CGA:  56    -0.220087298103E+03   -0.19186E-02   -0.19097E-02  5760   0.137E-01-0.160E-03
CGA:  57    -0.220089310149E+03   -0.20120E-02   -0.20138E-02  5760   0.112E-01-0.573E-05
CGA:  58    -0.220090653804E+03   -0.13437E-02   -0.13457E-02  5760   0.139E-01-0.215E-05
CGA:  59    -0.220092173528E+03   -0.15197E-02   -0.15258E-02  5760   0.863E-02-0.596E-03
CGA:  60    -0.220093261083E+03   -0.10876E-02   -0.10879E-02  5760   0.979E-02 0.710E-03
CGA:  61    -0.220094561983E+03   -0.13009E-02   -0.13068E-02  5760   0.133E-01-0.862E-03
CGA:  62    -0.220096213791E+03   -0.16518E-02   -0.16510E-02  5760   0.881E-02 0.115E-03
CGA:  63    -0.220097228259E+03   -0.10145E-02   -0.10173E-02  5760   0.127E-01-0.293E-03
CGA:  64    -0.220098428872E+03   -0.12006E-02   -0.12561E-02  5760   0.101E-01 0.155E-02
CGA:  65    -0.220099457107E+03   -0.10282E-02   -0.11061E-02  5760   0.110E-01-0.588E-03
CGA:  66    -0.220100623666E+03   -0.11666E-02   -0.11411E-02  5760   0.104E-01-0.187E-02
CGA:  67    -0.220101832379E+03   -0.12087E-02   -0.12048E-02  5760   0.134E-01 0.106E-03
CGA:  68    -0.220103131236E+03   -0.12989E-02   -0.13038E-02  5760   0.111E-01 0.118E-03
CGA:  69    -0.220105050680E+03   -0.19194E-02   -0.18840E-02  5760   0.115E-01 0.607E-03
CGA:  70    -0.220106708056E+03   -0.16574E-02   -0.16555E-02  5760   0.173E-01 0.118E-04
SDA:  71    -0.220108808614E+03   -0.21006E-02   -0.21025E-02  5760   0.160E-01-0.159E-02
CGA:  72    -0.220110335312E+03   -0.15267E-02   -0.16231E-02  5760   0.416E-02 0.868E-03
CGA:  73    -0.220111483246E+03   -0.11479E-02   -0.11661E-02  5760   0.710E-02-0.572E-04
CGA:  74    -0.220111992009E+03   -0.50876E-03   -0.55276E-03  5760   0.340E-02 0.163E-03
CGA:  75    -0.220113040325E+03   -0.10483E-02   -0.10125E-02  5760   0.374E-02-0.670E-04
CGA:  76    -0.220113596182E+03   -0.55586E-03   -0.55653E-03  5760   0.492E-02-0.378E-04
CGA:  77    -0.220114019447E+03   -0.42327E-03   -0.44616E-03  5760   0.238E-02 0.248E-03
CGA:  78    -0.220114709800E+03   -0.69035E-03   -0.63840E-03  5760   0.381E-02-0.115E-03
CGA:  79    -0.220115075196E+03   -0.36540E-03   -0.36715E-03  5760   0.323E-02-0.265E-04
CGA:  80    -0.220115598359E+03   -0.52316E-03   -0.51905E-03  5760   0.181E-02 0.132E-03
CGA:  81    -0.220116203346E+03   -0.60499E-03   -0.60001E-03  5760   0.184E-02 0.708E-04
CGA:  82    -0.220116717631E+03   -0.51428E-03   -0.47489E-03  5760   0.150E-02 0.177E-03
CGA:  83    -0.220117268399E+03   -0.55077E-03   -0.57539E-03  5760   0.365E-02-0.268E-04
CGA:  84    -0.220117606641E+03   -0.33824E-03   -0.38256E-03  5760   0.325E-02 0.298E-03
CGA:  85    -0.220118300006E+03   -0.69336E-03   -0.68221E-03  5760   0.193E-02-0.481E-04
CGA:  86    -0.220118697341E+03   -0.39734E-03   -0.40930E-03  5760   0.380E-02-0.882E-04
CGA:  87    -0.220118991542E+03   -0.29420E-03   -0.31371E-03  5760   0.209E-02-0.320E-03
CGA:  88    -0.220119555219E+03   -0.56368E-03   -0.58982E-03  5760   0.914E-02-0.368E-03
CGA:  89    -0.220120031816E+03   -0.47660E-03   -0.52396E-03  5760   0.430E-02 0.277E-03
CGA:  90    -0.220120332512E+03   -0.30070E-03   -0.35223E-03  5760   0.473E-02-0.335E-03
CGA:  91    -0.220120914211E+03   -0.58170E-03   -0.57203E-03  5760   0.521E-02-0.685E-03
CGA:  92    -0.220121332090E+03   -0.41788E-03   -0.42313E-03  5760   0.599E-02-0.103E-03
CGA:  93    -0.220121994186E+03   -0.66210E-03   -0.66076E-03  5760   0.418E-02 0.261E-04
CGA:  94    -0.220122349417E+03   -0.35523E-03   -0.41057E-03  5760   0.459E-02 0.419E-03
CGA:  95    -0.220122960131E+03   -0.61071E-03   -0.62457E-03  5760   0.307E-02-0.171E-03
CGA:  96    -0.220123628274E+03   -0.66814E-03   -0.71074E-03  5760   0.613E-02-0.431E-03
CGA:  97    -0.220124005821E+03   -0.37755E-03   -0.36789E-03  5760   0.298E-02-0.428E-03
CGA:  98    -0.220124340594E+03   -0.33477E-03   -0.33974E-03  5760   0.420E-02 0.159E-03
CGA:  99    -0.220124688327E+03   -0.34773E-03   -0.37574E-03  5760   0.241E-02-0.199E-03
CGA: 100    -0.220125016916E+03   -0.32859E-03   -0.32858E-03  5760   0.311E-02-0.193E-04
CGA: 101    -0.220125279216E+03   -0.26230E-03   -0.26683E-03  5760   0.234E-02-0.577E-04
SDA: 102    -0.220125543707E+03   -0.26449E-03   -0.27219E-03  5760   0.200E-02 0.247E-03
CGA: 103    -0.220125695455E+03   -0.15175E-03   -0.15983E-03  5760   0.123E-02-0.676E-04
CGA: 104    -0.220125902239E+03   -0.20678E-03   -0.20648E-03  5760   0.734E-03-0.238E-06
CGA: 105    -0.220126090774E+03   -0.18854E-03   -0.18282E-03  5760   0.419E-03 0.465E-04
CGA: 106    -0.220126241667E+03   -0.15089E-03   -0.14057E-03  5760   0.642E-03 0.675E-04
CGA: 107    -0.220126318585E+03   -0.76919E-04   -0.81074E-04  5760   0.597E-03-0.601E-04
CGA: 108    -0.220126438410E+03   -0.11983E-03   -0.12951E-03  5760   0.443E-03-0.680E-04
CGA: 109    -0.220126548650E+03   -0.11024E-03   -0.10533E-03  5760   0.502E-03-0.858E-05
CGA: 110    -0.220126618584E+03   -0.69934E-04   -0.70020E-04  5760   0.613E-03-0.141E-05
CGA: 111    -0.220126705499E+03   -0.86915E-04   -0.87824E-04  5760   0.268E-03 0.196E-04
CGA: 112    -0.220126782399E+03   -0.76901E-04   -0.77453E-04  5760   0.410E-03-0.109E-04
CGA: 113    -0.220126841372E+03   -0.58972E-04   -0.59259E-04  5760   0.518E-03 0.192E-04
CGA: 114    -0.220126891995E+03   -0.50623E-04   -0.59268E-04  5760   0.166E-03 0.335E-04
CGA: 115    -0.220126929017E+03   -0.37022E-04   -0.37016E-04  5760   0.238E-03-0.596E-05
CGA: 116    -0.220126950384E+03   -0.21366E-04   -0.21561E-04  5760   0.185E-03 0.405E-05
CGA: 117    -0.220126996183E+03   -0.45799E-04   -0.44135E-04  5760   0.160E-03 0.768E-05
CGA: 118    -0.220127014087E+03   -0.17904E-04   -0.17710E-04  5760   0.192E-03-0.769E-05
CGA: 119    -0.220127034873E+03   -0.20786E-04   -0.21967E-04  5760   0.122E-03 0.924E-05
CGA: 120    -0.220127048749E+03   -0.13876E-04   -0.13919E-04  5760   0.186E-03-0.779E-05
CGA: 121    -0.220127067857E+03   -0.19109E-04   -0.19571E-04  5760   0.123E-03 0.635E-06
CGA: 122    -0.220127077237E+03   -0.93795E-05   -0.92443E-05  5760   0.132E-03-0.642E-05
CGA: 123    -0.220127093807E+03   -0.16570E-04   -0.16874E-04  5760   0.209E-03 0.138E-04
CGA: 124    -0.220127109044E+03   -0.15237E-04   -0.16631E-04  5760   0.148E-03-0.295E-04
CGA: 125    -0.220127130192E+03   -0.21147E-04   -0.21626E-04  5760   0.281E-03-0.191E-04
CGA: 126    -0.220127146599E+03   -0.16407E-04   -0.16103E-04  5760   0.161E-03 0.973E-05
CGA: 127    -0.220127162010E+03   -0.15410E-04   -0.16769E-04  5760   0.248E-03 0.303E-04
CGA: 128    -0.220127183919E+03   -0.21910E-04   -0.25382E-04  5760   0.169E-03-0.459E-04
CGA: 129    -0.220127198914E+03   -0.14995E-04   -0.14133E-04  5760   0.332E-03-0.419E-04
CGA: 130    -0.220127217199E+03   -0.18285E-04   -0.19248E-04  5760   0.306E-03 0.942E-05
CGA: 131    -0.220127230988E+03   -0.13789E-04   -0.15862E-04  5760   0.141E-03-0.193E-04
CGA: 132    -0.220127246152E+03   -0.15164E-04   -0.15216E-04  5760   0.258E-03 0.274E-05
SDA: 133    -0.220127263915E+03   -0.17763E-04   -0.19131E-04  5760   0.149E-03 0.290E-05
CGA: 134    -0.220127281500E+03   -0.17585E-04   -0.17610E-04  5760   0.869E-04 0.195E-05
CGA: 135    -0.220127290567E+03   -0.90674E-05   -0.91787E-05  5760   0.720E-04-0.569E-05
CGA: 136    -0.220127308276E+03   -0.17709E-04   -0.18288E-04  5760   0.979E-04-0.313E-05
CGA: 137    -0.220127321557E+03   -0.13281E-04   -0.12987E-04  5760   0.516E-04 0.329E-04
CGA: 138    -0.220127329859E+03   -0.83024E-05   -0.84900E-05  5760   0.536E-04-0.418E-05
CGA: 139    -0.220127338931E+03   -0.90725E-05   -0.10494E-04  5760   0.743E-04-0.166E-04
CGA: 140    -0.220127344238E+03   -0.53070E-05   -0.52549E-05  5760   0.430E-04-0.118E-05
CGA: 141    -0.220127350305E+03   -0.60662E-05   -0.60364E-05  5760   0.397E-04 0.195E-05
CGA: 142    -0.220127355862E+03   -0.55570E-05   -0.55572E-05  5760   0.445E-04-0.126E-05
CGA: 143    -0.220127361486E+03   -0.56248E-05   -0.56257E-05  5760   0.364E-04-0.185E-06
CGA: 144    -0.220127367096E+03   -0.56094E-05   -0.55219E-05  5760   0.367E-04 0.443E-05
CGA: 145    -0.220127371991E+03   -0.48951E-05   -0.49869E-05  5760   0.404E-04-0.141E-05
CGA: 146    -0.220127378359E+03   -0.63683E-05   -0.65420E-05  5760   0.365E-04-0.295E-05
CGA: 147    -0.220127384861E+03   -0.65021E-05   -0.64680E-05  5760   0.548E-04 0.463E-05
CGA: 148    -0.220127390568E+03   -0.57070E-05   -0.64883E-05  5760   0.433E-04 0.150E-04
CGA: 149    -0.220127397898E+03   -0.73298E-05   -0.73811E-05  5760   0.344E-04-0.198E-05
CGA: 150    -0.220127404146E+03   -0.62480E-05   -0.10478E-04  5760   0.124E-03-0.265E-04
CGA: 151    -0.220127413784E+03   -0.96378E-05   -0.10268E-04  5760   0.658E-04 0.100E-04
CGA: 152    -0.220127419739E+03   -0.59547E-05   -0.69823E-05  5760   0.180E-04 0.279E-05
CGA: 153    -0.220127423003E+03   -0.32646E-05   -0.32910E-05  5760   0.252E-04-0.424E-06
CGA: 154    -0.220127425819E+03   -0.28162E-05   -0.28338E-05  5760   0.333E-04 0.171E-05
CGA: 155    -0.220127431038E+03   -0.52186E-05   -0.51553E-05  5760   0.366E-04 0.122E-04
CGA: 156    -0.220127434730E+03   -0.36923E-05   -0.41390E-05  5760   0.272E-04-0.101E-04
CGA: 157    -0.220127438135E+03   -0.34045E-05   -0.72712E-05  5760   0.547E-04-0.158E-04
CGA: 158    -0.220127443405E+03   -0.52701E-05   -0.54920E-05  5760   0.303E-04-0.104E-05
CGA: 159    -0.220127446103E+03   -0.26980E-05   -0.27567E-05  5760   0.105E-04 0.265E-06
CGA: 160    -0.220127449250E+03   -0.31473E-05   -0.30122E-05  5760   0.121E-04 0.137E-05
CGA: 161    -0.220127452415E+03   -0.31653E-05   -0.27536E-05  5760   0.804E-05 0.647E-05
CGA: 162    -0.220127454029E+03   -0.16133E-05   -0.15771E-05  5760   0.529E-05 0.371E-06
CGA: 163    -0.220127454912E+03   -0.88363E-06   -0.88374E-06  5760   0.113E-04 0.102E-07
CGA: 164    -0.220127457443E+03   -0.25306E-05   -0.23917E-05  5760   0.128E-04 0.513E-06
CGA: 165    -0.220127461657E+03   -0.42139E-05   -0.47534E-05  5760   0.999E-04-0.510E-05
CGA: 166    -0.220127469410E+03   -0.77526E-05   -0.66701E-05  5760   0.142E-03-0.990E-05
CGA: 167    -0.220127475726E+03   -0.63163E-05   -0.59406E-05  5760   0.755E-04 0.168E-04
CGA: 168    -0.220127482464E+03   -0.67378E-05   -0.77227E-05  5760   0.155E-03 0.169E-04
CGA: 169    -0.220127497039E+03   -0.14575E-04   -0.17548E-04  5760   0.205E-03-0.334E-04
CGA: 170    -0.220127510620E+03   -0.13581E-04   -0.10402E-04  5760   0.276E-03-0.132E-03
CGA: 171    -0.220127528221E+03   -0.17602E-04   -0.22719E-04  5760   0.588E-04 0.579E-05
CGA: 172    -0.220127534177E+03   -0.59555E-05   -0.59885E-05  5760   0.515E-04 0.241E-05
CGA: 173    -0.220127548800E+03   -0.14623E-04   -0.12964E-04  5760   0.267E-04 0.130E-04
CGA: 174    -0.220127555454E+03   -0.66539E-05   -0.65504E-05  5760   0.164E-04 0.215E-05
CGA: 175    -0.220127560439E+03   -0.49848E-05   -0.47538E-05  5760   0.174E-04 0.293E-05
CGA: 176    -0.220127562318E+03   -0.18790E-05   -0.20935E-05  5760   0.141E-04 0.111E-07
CGA: 177    -0.220127564844E+03   -0.25258E-05   -0.25410E-05  5760   0.888E-05 0.802E-06
CGA: 178    -0.220127566674E+03   -0.18307E-05   -0.17727E-05  5760   0.963E-05-0.161E-05
CGA: 179    -0.220127568702E+03   -0.20273E-05   -0.21088E-05  5760   0.227E-04-0.765E-06
CGA: 180    -0.220127572412E+03   -0.37106E-05   -0.37100E-05  5760   0.277E-04 0.365E-07
CGA: 181    -0.220127577423E+03   -0.50106E-05   -0.49750E-05  5760   0.317E-04 0.460E-06
CGA: 182    -0.220127586771E+03   -0.93479E-05   -0.91216E-05  5760   0.922E-04 0.884E-07
CGA: 183    -0.220127598784E+03   -0.12014E-04   -0.12884E-04  5760   0.659E-04 0.245E-04
CGA: 184    -0.220127607946E+03   -0.91617E-05   -0.10598E-04  5760   0.412E-04 0.730E-05
CGA: 185    -0.220127618575E+03   -0.10629E-04   -0.11316E-04  5760   0.130E-03-0.407E-05
CGA: 186    -0.220127627907E+03   -0.93321E-05   -0.10111E-04  5760   0.778E-04-0.213E-04
CGA: 187    -0.220127634363E+03   -0.64556E-05   -0.57949E-05  5760   0.115E-03-0.210E-04
CGA: 188    -0.220127645950E+03   -0.11587E-04   -0.10663E-04  5760   0.117E-03-0.119E-04
CGA: 189    -0.220127652783E+03   -0.68331E-05   -0.65636E-05  5760   0.894E-04 0.120E-04
CGA: 190    -0.220127662093E+03   -0.93098E-05   -0.10160E-04  5760   0.107E-03 0.101E-04
CGA: 191    -0.220127669986E+03   -0.78939E-05   -0.86299E-05  5760   0.925E-04-0.276E-04
CGA: 192    -0.220127679761E+03   -0.97741E-05   -0.95240E-05  5760   0.200E-03-0.329E-04
CGA: 193    -0.220127688301E+03   -0.85408E-05   -0.68779E-05  5760   0.116E-03-0.107E-05
CGA: 194    -0.220127696133E+03   -0.78313E-05   -0.77178E-05  5760   0.137E-03 0.380E-05
CGA: 195    -0.220127710351E+03   -0.14219E-04   -0.14536E-04  5760   0.188E-03 0.598E-05
CGA: 196    -0.220127721566E+03   -0.11214E-04   -0.11624E-04  5760   0.150E-03-0.154E-04
CGA: 197    -0.220127732884E+03   -0.11318E-04   -0.11664E-04  5760   0.238E-03 0.205E-05
CGA: 198    -0.220127747093E+03   -0.14209E-04   -0.15374E-04  5760   0.135E-03-0.190E-04
CGA: 199    -0.220127755202E+03   -0.81090E-05   -0.76327E-05  5760   0.167E-03-0.104E-04
CGA: 200    -0.220127764381E+03   -0.91794E-05   -0.10542E-04  5760   0.246E-03 0.277E-04
SDA: 201    -0.220127774113E+03   -0.97316E-05   -0.14363E-04  5760   0.113E-03-0.281E-05
CGA: 202    -0.220127785262E+03   -0.11149E-04   -0.11248E-04  5760   0.596E-04 0.269E-05
CGA: 203    -0.220127790750E+03   -0.54877E-05   -0.56033E-05  5760   0.320E-04 0.147E-05
CGA: 204    -0.220127802383E+03   -0.11633E-04   -0.10391E-04  5760   0.326E-04 0.522E-05
CGA: 205    -0.220127812212E+03   -0.98284E-05   -0.98340E-05  5760   0.580E-04-0.235E-05
CGA: 206    -0.220127817137E+03   -0.49249E-05   -0.48476E-05  5760   0.392E-04 0.672E-07
CGA: 207    -0.220127827548E+03   -0.10411E-04   -0.94248E-05  5760   0.336E-04 0.578E-05
CGA: 208    -0.220127831172E+03   -0.36240E-05   -0.36085E-05  5760   0.350E-04-0.198E-05
CGA: 209    -0.220127835786E+03   -0.46136E-05   -0.45822E-05  5760   0.289E-04 0.162E-05
CGA: 210    -0.220127839041E+03   -0.32556E-05   -0.32244E-05  5760   0.436E-04-0.250E-05
CGA: 211    -0.220127843221E+03   -0.41803E-05   -0.42859E-05  5760   0.305E-04 0.125E-05
CGA: 212    -0.220127845099E+03   -0.18772E-05   -0.19318E-05  5760   0.233E-04-0.545E-06
CGA: 213    -0.220127847023E+03   -0.19244E-05   -0.21399E-05  5760   0.262E-04 0.440E-05
CGA: 214    -0.220127848749E+03   -0.17255E-05   -0.19949E-05  5760   0.147E-04-0.297E-05
CGA: 215    -0.220127850717E+03   -0.19682E-05   -0.19930E-05  5760   0.283E-04-0.948E-06
CGA: 216    -0.220127852374E+03   -0.16569E-05   -0.17119E-05  5760   0.110E-04-0.371E-06
CGA: 217    -0.220127853436E+03   -0.10624E-05   -0.10780E-05  5760   0.165E-04 0.841E-06
CGA: 218    -0.220127854693E+03   -0.12567E-05   -0.14059E-05  5760   0.781E-05-0.545E-07
CGA: 219    -0.220127855185E+03   -0.49215E-06   -0.49522E-06  5760   0.759E-05-0.606E-06
   1 F= -.23126738E+03 E0= -.23126237E+03  d E =-.100369E-01  mag=     6.0000
