 running on   64 total cores
 distrk:  each k-point on   64 cores,    1 groups
 distr:  one band on    4 cores,   16 groups
 using from now: INCAR     
 vasp.5.4.4.18Apr17-6-g9f103f2a35 (build Nov 22 2021 14:44:17) complex          
  
 POSCAR found type information on POSCAR  Li Co O 
 POSCAR found :  3 types and      42 ions
 scaLAPACK will be used
 LDA part: xc-table for Pade appr. of Perdew
 generate k-points for:    6    6    2
 POSCAR, INCAR and KPOINTS ok, starting setup
 FFT: planning ...
 WAVECAR not read
 entering main loop
       N       E                     dE             d eps       ncg     rms          ort
DAV:   1     0.354717692926E+04    0.35472E+04   -0.14052E+05  5760   0.227E+03
DAV:   2     0.409977763331E+03   -0.31372E+04   -0.28962E+04  5760   0.557E+02
DAV:   3    -0.217809716626E+03   -0.62779E+03   -0.56223E+03  5760   0.258E+02
DAV:   4    -0.269491119102E+03   -0.51681E+02   -0.50615E+02  5760   0.763E+01
DAV:   5    -0.271137675756E+03   -0.16466E+01   -0.16439E+01  5760   0.135E+01
 gam= 0.000 g(H,U,f)=  0.173E+04 0.193E+04 0.184E+04 ort(H,U,f) = 0.000E+00 0.000E+00 0.000E+00
SDA:   6     0.118117689847E+03    0.38926E+03   -0.16439E+01  5760   0.550E+04 0.000E+00
 gam= 0.000 trial= 0.400  step= 0.093 mean= 0.400
 gam= 0.781 g(H,U,f)=  0.840E+03 0.115E+04 0.231E+04 ort(H,U,f) = 0.737E+03 0.294E+03-0.185E+03
CGA:   7     0.109608427359E+02   -0.10716E+03   -0.25572E+03  5760   0.430E+04 0.846E+03
 gam= 0.781 trial= 0.385  step= 0.080 mean= 0.385
 gam= 0.434 g(H,U,f)=  0.390E+03 0.100E+04 0.474E+03 ort(H,U,f) = 0.223E+03 0.330E+03 0.542E+02
CGA:   8    -0.695886073041E+02   -0.80549E+02   -0.19916E+03  5760   0.187E+04 0.607E+03
 gam= 0.434 trial= 0.369  step= 0.036 mean= 0.369
 gam= 0.464 g(H,U,f)=  0.823E+02 0.569E+03 0.214E+03 ort(H,U,f) = 0.529E+02-0.250E+03-0.328E+03
CGA:   9    -0.178142833480E+03   -0.10855E+03   -0.38847E+02  5760   0.865E+03-0.525E+03
 gam= 0.464 trial= 0.353  step= 0.020 mean= 0.353
 gam= 0.929 g(H,U,f)=  0.640E+02 0.545E+03 0.195E+03 ort(H,U,f) = 0.493E+02 0.171E+03-0.587E+02
CGA:  10    -0.185195823284E+03   -0.70530E+01   -0.62502E+01  5760   0.804E+03 0.161E+03
 gam= 0.929 trial= 0.336  step= 0.045 mean= 0.336
 gam= 0.000 g(H,U,f)=  0.101E+03 0.697E+03 0.326E+03 ort(H,U,f) =-0.725E+02-0.527E+03-0.249E+03
CGA:  11    -0.179611196664E+03    0.55846E+01   -0.21243E+02  5760   0.112E+04-0.849E+03
 gam= 0.000 trial= 0.322  step= 0.032 mean= 0.322
 gam= 0.057 g(H,U,f)=  0.302E+02 0.278E+02 0.554E+01 ort(H,U,f) = 0.400E+02 0.959E+02 0.284E+02
CGA:  12    -0.203363952107E+03   -0.23753E+02   -0.18119E+02  5760   0.636E+02 0.164E+03
 gam= 0.057 trial= 0.307  step= 0.073 mean= 0.307
 gam= 0.921 g(H,U,f)=  0.202E+02 0.312E+02 0.715E+01 ort(H,U,f) = 0.224E+02-0.179E+02-0.630E+01
CGA:  13    -0.205906723712E+03   -0.25428E+01   -0.26457E+01  5760   0.586E+02-0.187E+01
 gam= 0.921 trial= 0.295  step= 0.178 mean= 0.295
 gam= 1.599 g(H,U,f)=  0.116E+02 0.692E+02 0.130E+02 ort(H,U,f) = 0.557E+01-0.451E+01-0.310E+01
CGA:  14    -0.210588595201E+03   -0.46819E+01   -0.50690E+01  5760   0.937E+02-0.204E+01
 gam= 1.599 trial= 0.290  step= 0.100 mean= 0.290
 gam= 0.564 g(H,U,f)=  0.135E+02 0.367E+02 0.266E+01 ort(H,U,f) =-0.272E+02 0.141E+02-0.133E+01
CGA:  15    -0.213647156303E+03   -0.30586E+01   -0.45103E+01  5760   0.529E+02-0.144E+02
 gam= 0.564 trial= 0.280  step= 0.102 mean= 0.280
 gam= 0.421 g(H,U,f)=  0.100E+02 0.109E+02 0.137E+01 ort(H,U,f) =-0.122E+02 0.999E+01-0.200E+00
CGA:  16    -0.215744694821E+03   -0.20975E+01   -0.22831E+01  5760   0.223E+02-0.242E+01
 gam= 0.421 trial= 0.271  step= 0.102 mean= 0.271
 gam= 0.478 g(H,U,f)=  0.564E+01 0.473E+01 0.283E+00 ort(H,U,f) = 0.134E+01-0.150E+01-0.355E+00
CGA:  17    -0.216790379393E+03   -0.10457E+01   -0.10829E+01  5760   0.107E+02-0.515E+00
 gam= 0.478 trial= 0.263  step= 0.133 mean= 0.263
 gam= 0.515 g(H,U,f)=  0.276E+01 0.243E+01 0.289E+00 ort(H,U,f) = 0.237E+01-0.226E+01-0.397E+00
CGA:  18    -0.217480787499E+03   -0.69041E+00   -0.69310E+00  5760   0.548E+01-0.294E+00
 gam= 0.515 trial= 0.256  step= 0.140 mean= 0.256
 gam= 0.985 g(H,U,f)=  0.178E+01 0.326E+01 0.362E+00 ort(H,U,f) = 0.157E+01-0.153E+01-0.168E+00
CGA:  19    -0.217845676779E+03   -0.36489E+00   -0.37410E+00  5760   0.540E+01-0.133E+00
 gam= 0.985 trial= 0.250  step= 0.177 mean= 0.250
 gam= 0.487 g(H,U,f)=  0.945E+00 0.159E+01 0.884E-01 ort(H,U,f) =-0.646E+00 0.699E+00 0.585E-01
CGA:  20    -0.218303831460E+03   -0.45815E+00   -0.46692E+00  5760   0.263E+01 0.112E+00
 gam= 0.487 trial= 0.247  step= 0.106 mean= 0.247
 gam= 0.415 g(H,U,f)=  0.580E+00 0.472E+00 0.391E-01 ort(H,U,f) =-0.258E+00 0.246E+00-0.269E-01
CGA:  21    -0.218439453856E+03   -0.13562E+00   -0.14227E+00  5760   0.109E+01-0.384E-01
 gam= 0.415 trial= 0.240  step= 0.167 mean= 0.240
 gam= 0.791 g(H,U,f)=  0.464E+00 0.388E+00 0.113E-01 ort(H,U,f) = 0.274E-01-0.280E-01 0.782E-03
CGA:  22    -0.218528527762E+03   -0.89074E-01   -0.89921E-01  5760   0.863E+00 0.121E-03
 gam= 0.791 trial= 0.236  step= 0.256 mean= 0.236
 gam= 1.429 g(H,U,f)=  0.358E+00 0.795E+00 0.807E-01 ort(H,U,f) =-0.404E-01 0.613E-01-0.318E-01
CGA:  23    -0.218639108836E+03   -0.11058E+00   -0.11067E+00  5760   0.123E+01-0.109E-01
 gam= 1.429 trial= 0.237  step= 0.149 mean= 0.237
 gam= 0.555 g(H,U,f)=  0.312E+00 0.363E+00 0.925E-02 ort(H,U,f) =-0.388E+00 0.371E+00 0.182E-01
CGA:  24    -0.218727595845E+03   -0.88487E-01   -0.90791E-01  5760   0.684E+00 0.211E-02
 gam= 0.555 trial= 0.233  step= 0.252 mean= 0.233
 gam= 1.120 g(H,U,f)=  0.317E+00 0.397E+00 0.524E-01 ort(H,U,f) =-0.221E+00 0.240E+00 0.313E-01
CGA:  25    -0.218814659164E+03   -0.87063E-01   -0.86514E-01  5760   0.767E+00 0.502E-01
 gam= 1.120 trial= 0.234  step= 0.172 mean= 0.234
 gam= 0.843 g(H,U,f)=  0.303E+00 0.330E+00 0.132E-01 ort(H,U,f) =-0.168E+00 0.179E+00 0.245E-01
CGA:  26    -0.218884329360E+03   -0.69670E-01   -0.70586E-01  5760   0.646E+00 0.352E-01
 gam= 0.843 trial= 0.231  step= 0.253 mean= 0.231
 gam= 1.409 g(H,U,f)=  0.371E+00 0.527E+00 0.123E-01 ort(H,U,f) =-0.705E-01 0.105E+00-0.835E-02
CGA:  27    -0.218970293584E+03   -0.85964E-01   -0.85437E-01  5760   0.910E+00 0.258E-01
 gam= 1.409 trial= 0.232  step= 0.288 mean= 0.232
 gam= 1.413 g(H,U,f)=  0.471E+00 0.783E+00 0.322E-01 ort(H,U,f) =-0.204E+00 0.271E+00 0.429E-01
CGA:  28    -0.219111260415E+03   -0.14097E+00   -0.13622E+00  5760   0.129E+01 0.109E+00
 gam= 1.413 trial= 0.234  step= 0.251 mean= 0.234
 gam= 0.865 g(H,U,f)=  0.610E+00 0.497E+00 0.433E-02 ort(H,U,f) =-0.692E+00 0.648E+00-0.979E-02
CGA:  29    -0.219291525386E+03   -0.18026E+00   -0.18109E+00  5760   0.111E+01-0.536E-01
 gam= 0.865 trial= 0.235  step= 0.259 mean= 0.235
 gam= 1.706 g(H,U,f)=  0.103E+01 0.788E+00 0.742E-01 ort(H,U,f) =-0.567E+00 0.376E+00 0.116E+00
CGA:  30    -0.219427992530E+03   -0.13647E+00   -0.13792E+00  5760   0.190E+01-0.741E-01
 gam= 1.706 trial= 0.237  step= 0.108 mean= 0.237
 gam= 1.201 g(H,U,f)=  0.123E+01 0.993E+00 0.605E-01 ort(H,U,f) =-0.388E+00 0.428E+00 0.137E+00
CGA:  31    -0.219544511329E+03   -0.11652E+00   -0.95645E-01  5760   0.228E+01 0.177E+00
 gam= 1.201 trial= 0.230  step= 0.084 mean= 0.230
 gam= 1.073 g(H,U,f)=  0.124E+01 0.117E+01 0.397E-01 ort(H,U,f) = 0.114E+00-0.382E-01 0.237E-01
CGA:  32    -0.219650560953E+03   -0.10605E+00   -0.10449E+00  5760   0.244E+01 0.991E-01
 gam= 1.073 trial= 0.223  step= 0.083 mean= 0.223
 gam= 1.007 g(H,U,f)=  0.112E+01 0.128E+01 0.711E-01 ort(H,U,f) = 0.362E+00-0.397E+00 0.327E-01
CGA:  33    -0.219754416606E+03   -0.10386E+00   -0.10623E+00  5760   0.246E+01-0.195E-02
 gam= 1.007 trial= 0.216  step= 0.087 mean= 0.216
 gam= 0.819 g(H,U,f)=  0.942E+00 0.106E+01 0.171E-01 ort(H,U,f) = 0.777E-01-0.221E+00 0.333E-01
CGA:  34    -0.219851390166E+03   -0.96974E-01   -0.10656E+00  5760   0.202E+01-0.110E+00
 gam= 0.819 trial= 0.209  step= 0.095 mean= 0.209
 gam= 0.752 g(H,U,f)=  0.793E+00 0.715E+00 0.778E-02 ort(H,U,f) =-0.292E+00 0.222E+00-0.807E-03
CGA:  35    -0.219936161425E+03   -0.84771E-01   -0.91934E-01  5760   0.152E+01-0.702E-01
 gam= 0.752 trial= 0.204  step= 0.108 mean= 0.204
 gam= 0.659 g(H,U,f)=  0.713E+00 0.285E+00 0.681E-03 ort(H,U,f) =-0.354E+00 0.325E+00 0.217E-02
CGA:  36    -0.220010790575E+03   -0.74629E-01   -0.78659E-01  5760   0.999E+00-0.274E-01
 gam= 0.659 trial= 0.199  step= 0.146 mean= 0.199
 gam= 0.954 g(H,U,f)=  0.655E+00 0.290E+00 0.889E-02 ort(H,U,f) =-0.824E-01 0.917E-01-0.217E-02
CGA:  37    -0.220081183163E+03   -0.70393E-01   -0.71521E-01  5760   0.953E+00 0.714E-02
 gam= 0.954 trial= 0.196  step= 0.157 mean= 0.196
 gam= 0.951 g(H,U,f)=  0.544E+00 0.344E+00 0.190E-01 ort(H,U,f) =-0.205E-01 0.379E-01-0.138E-01
CGA:  38    -0.220156608057E+03   -0.75425E-01   -0.75577E-01  5760   0.906E+00 0.356E-02
 gam= 0.951 trial= 0.194  step= 0.160 mean= 0.194
 gam= 0.813 g(H,U,f)=  0.403E+00 0.328E+00 0.601E-02 ort(H,U,f) =-0.143E+00 0.135E+00 0.940E-02
CGA:  39    -0.220229754538E+03   -0.73146E-01   -0.72880E-01  5760   0.737E+00 0.192E-02
 gam= 0.813 trial= 0.193  step= 0.151 mean= 0.193
 gam= 0.977 g(H,U,f)=  0.332E+00 0.377E+00 0.111E-01 ort(H,U,f) =-0.186E+00 0.189E+00-0.313E-01
CGA:  40    -0.220285980661E+03   -0.56226E-01   -0.55886E-01  5760   0.720E+00-0.280E-01
 gam= 0.977 trial= 0.190  step= 0.134 mean= 0.190
 gam= 0.885 g(H,U,f)=  0.324E+00 0.311E+00 0.293E-02 ort(H,U,f) =-0.224E+00 0.212E+00 0.755E-02
CGA:  41    -0.220333171579E+03   -0.47191E-01   -0.46313E-01  5760   0.637E+00-0.500E-02
 gam= 0.885 trial= 0.188  step= 0.143 mean= 0.188
 gam= 0.000 g(H,U,f)=  0.306E+00 0.254E+00 0.157E-02 ort(H,U,f) =-0.154E+00 0.153E+00-0.635E-02
SDA:  42    -0.220378342489E+03   -0.45171E-01   -0.45270E-01  5760   0.562E+00-0.675E-02
 gam= 0.000 trial= 0.185  step= 0.326 mean= 0.185
 gam= 0.755 g(H,U,f)=  0.135E+00 0.230E+00 0.596E-01 ort(H,U,f) = 0.422E-01-0.348E-01-0.145E-02
CGA:  43    -0.220470151397E+03   -0.91809E-01   -0.91479E-01  5760   0.424E+00 0.595E-02
 gam= 0.755 trial= 0.192  step= 0.132 mean= 0.192
 gam= 1.089 g(H,U,f)=  0.125E+00 0.254E+00 0.831E-01 ort(H,U,f) = 0.842E-01-0.207E-01-0.671E-01
CGA:  44    -0.220496697396E+03   -0.26546E-01   -0.28392E-01  5760   0.462E+00-0.359E-02
 gam= 1.089 trial= 0.189  step= 0.325 mean= 0.189
 gam= 0.367 g(H,U,f)=  0.730E-01 0.839E-01 0.129E-01 ort(H,U,f) =-0.120E+00 0.989E-01-0.126E-02
CGA:  45    -0.220569020704E+03   -0.72323E-01   -0.74555E-01  5760   0.170E+00-0.226E-01
 gam= 0.367 trial= 0.196  step= 0.222 mean= 0.196
 gam= 1.679 g(H,U,f)=  0.607E-01 0.160E+00 0.647E-01 ort(H,U,f) =-0.263E-02 0.312E-01-0.241E-01
CGA:  46    -0.220587168914E+03   -0.18148E-01   -0.17904E-01  5760   0.285E+00 0.448E-02
 gam= 1.679 trial= 0.198  step= 0.202 mean= 0.198
 gam= 0.480 g(H,U,f)=  0.425E-01 0.741E-01 0.201E-01 ort(H,U,f) =-0.334E-01 0.399E-01-0.134E-01
CGA:  47    -0.220616676701E+03   -0.29508E-01   -0.29543E-01  5760   0.137E+00-0.686E-02
 gam= 0.480 trial= 0.198  step= 0.185 mean= 0.198
 gam= 1.035 g(H,U,f)=  0.374E-01 0.799E-01 0.242E-01 ort(H,U,f) =-0.350E-03 0.170E-01-0.148E-01
CGA:  48    -0.220628941282E+03   -0.12265E-01   -0.12332E-01  5760   0.142E+00 0.193E-02
 gam= 1.035 trial= 0.197  step= 0.211 mean= 0.197
 gam= 0.552 g(H,U,f)=  0.248E-01 0.421E-01 0.113E-01 ort(H,U,f) =-0.135E-01 0.187E-01-0.591E-02
CGA:  49    -0.220644096927E+03   -0.15156E-01   -0.15155E-01  5760   0.782E-01-0.707E-03
 gam= 0.552 trial= 0.198  step= 0.175 mean= 0.198
 gam= 0.897 g(H,U,f)=  0.209E-01 0.371E-01 0.122E-01 ort(H,U,f) = 0.347E-02 0.577E-02-0.804E-02
CGA:  50    -0.220650860337E+03   -0.67634E-02   -0.68137E-02  5760   0.701E-01 0.120E-02
 gam= 0.897 trial= 0.197  step= 0.253 mean= 0.197
 gam= 0.792 g(H,U,f)=  0.155E-01 0.317E-01 0.828E-02 ort(H,U,f) = 0.104E-02 0.313E-02-0.398E-02
CGA:  51    -0.220659866645E+03   -0.90063E-02   -0.89927E-02  5760   0.555E-01 0.190E-03
 gam= 0.792 trial= 0.199  step= 0.167 mean= 0.199
 gam= 0.746 g(H,U,f)=  0.940E-02 0.250E-01 0.701E-02 ort(H,U,f) = 0.179E-02 0.308E-02-0.432E-02
CGA:  52    -0.220664487954E+03   -0.46213E-02   -0.46448E-02  5760   0.414E-01 0.542E-03
 gam= 0.746 trial= 0.198  step= 0.248 mean= 0.198
 gam= 0.709 g(H,U,f)=  0.634E-02 0.187E-01 0.434E-02 ort(H,U,f) =-0.270E-02 0.685E-02-0.231E-02
CGA:  53    -0.220669748108E+03   -0.52602E-02   -0.51817E-02  5760   0.294E-01 0.185E-02
 gam= 0.709 trial= 0.200  step= 0.180 mean= 0.200
 gam= 0.998 g(H,U,f)=  0.633E-02 0.183E-01 0.472E-02 ort(H,U,f) =-0.284E-02 0.568E-02-0.218E-02
CGA:  54    -0.220672502051E+03   -0.27539E-02   -0.27571E-02  5760   0.293E-01 0.660E-03
 gam= 0.998 trial= 0.199  step= 0.293 mean= 0.199
 gam= 0.901 g(H,U,f)=  0.689E-02 0.162E-01 0.332E-02 ort(H,U,f) =-0.451E-02 0.810E-02-0.146E-02
CGA:  55    -0.220677052521E+03   -0.45505E-02   -0.43845E-02  5760   0.264E-01 0.212E-02
 gam= 0.901 trial= 0.204  step= 0.258 mean= 0.204
 gam= 1.898 g(H,U,f)=  0.864E-02 0.320E-01 0.945E-02 ort(H,U,f) =-0.316E-02 0.665E-02-0.248E-02
CGA:  56    -0.220680699962E+03   -0.36474E-02   -0.36520E-02  5760   0.501E-01 0.101E-02
 gam= 1.898 trial= 0.207  step= 0.242 mean= 0.207
 gam= 0.414 g(H,U,f)=  0.105E-01 0.953E-02 0.768E-03 ort(H,U,f) =-0.147E-01 0.200E-01-0.426E-03
CGA:  57    -0.220687144921E+03   -0.64450E-02   -0.63006E-02  5760   0.208E-01 0.482E-02
 gam= 0.414 trial= 0.208  step= 0.460 mean= 0.208
 gam= 2.816 g(H,U,f)=  0.112E-01 0.350E-01 0.123E-01 ort(H,U,f) =-0.227E-02 0.441E-02-0.130E-02
CGA:  58    -0.220692375816E+03   -0.52309E-02   -0.52371E-02  5760   0.585E-01 0.841E-03
 gam= 2.816 trial= 0.221  step= 0.135 mean= 0.221
 gam= 0.396 g(H,U,f)=  0.127E-01 0.987E-02 0.583E-03 ort(H,U,f) =-0.761E-02 0.939E-02-0.223E-02
CGA:  59    -0.220696294590E+03   -0.39188E-02   -0.41170E-02  5760   0.231E-01-0.453E-03
 gam= 0.396 trial= 0.217  step= 0.582 mean= 0.217
 gam= 0.623 g(H,U,f)=  0.743E-02 0.644E-02 0.548E-03 ort(H,U,f) =-0.449E-02 0.217E-02 0.103E-02
CGA:  60    -0.220702498204E+03   -0.62036E-02   -0.66847E-02  5760   0.144E-01-0.129E-02
 gam= 0.623 trial= 0.235  step= 0.366 mean= 0.235
 gam= 0.683 g(H,U,f)=  0.364E-02 0.526E-02 0.944E-03 ort(H,U,f) = 0.414E-03 0.193E-02-0.814E-03
CGA:  61    -0.220705213877E+03   -0.27157E-02   -0.24886E-02  5760   0.985E-02 0.153E-02
 gam= 0.683 trial= 0.242  step= 0.189 mean= 0.242
 gam= 1.643 g(H,U,f)=  0.281E-02 0.104E-01 0.300E-02 ort(H,U,f) = 0.124E-02 0.169E-04-0.153E-02
CGA:  62    -0.220706251848E+03   -0.10380E-02   -0.10292E-02  5760   0.162E-01-0.277E-03
 gam= 1.643 trial= 0.239  step= 0.274 mean= 0.239
 gam= 0.615 g(H,U,f)=  0.393E-02 0.558E-02 0.432E-03 ort(H,U,f) =-0.425E-02 0.404E-02-0.464E-03
CGA:  63    -0.220708403600E+03   -0.21518E-02   -0.21570E-02  5760   0.994E-02-0.668E-03
 gam= 0.615 trial= 0.241  step= 0.446 mean= 0.241
 gam= 1.566 g(H,U,f)=  0.446E-02 0.874E-02 0.236E-02 ort(H,U,f) =-0.339E-02 0.414E-02-0.326E-03
CGA:  64    -0.220710576626E+03   -0.21730E-02   -0.21273E-02  5760   0.156E-01 0.425E-03
 gam= 1.566 trial= 0.251  step= 0.120 mean= 0.251
 gam= 0.779 g(H,U,f)=  0.505E-02 0.621E-02 0.856E-03 ort(H,U,f) =-0.384E-02 0.469E-02-0.112E-02
CGA:  65    -0.220711535247E+03   -0.95862E-03   -0.97319E-03  5760   0.121E-01-0.276E-03
 gam= 0.779 trial= 0.244  step= 0.611 mean= 0.244
 gam= 1.336 g(H,U,f)=  0.870E-02 0.694E-02 0.548E-03 ort(H,U,f) =-0.409E-02 0.400E-02-0.713E-04
CGA:  66    -0.220715141044E+03   -0.36058E-02   -0.36394E-02  5760   0.162E-01-0.153E-03
 gam= 1.336 trial= 0.263  step= 0.251 mean= 0.263
 gam= 1.870 g(H,U,f)=  0.757E-02 0.179E-01 0.479E-02 ort(H,U,f) =-0.116E-02 0.268E-02-0.117E-02
CGA:  67    -0.220717146772E+03   -0.20057E-02   -0.20078E-02  5760   0.303E-01 0.358E-03
 gam= 1.870 trial= 0.262  step= 0.148 mean= 0.262
 gam= 0.341 g(H,U,f)=  0.665E-02 0.359E-02 0.851E-04 ort(H,U,f) =-0.629E-02 0.690E-02-0.228E-03
CGA:  68    -0.220719419916E+03   -0.22731E-02   -0.22893E-02  5760   0.103E-01 0.382E-03
 gam= 0.341 trial= 0.256  step= 0.572 mean= 0.256
 gam= 1.329 g(H,U,f)=  0.545E-02 0.734E-02 0.927E-03 ort(H,U,f) =-0.120E-02 0.138E-02-0.113E-03
CGA:  69    -0.220722427446E+03   -0.30075E-02   -0.29916E-02  5760   0.137E-01 0.685E-04
 gam= 1.329 trial= 0.272  step= 0.162 mean= 0.272
 gam= 1.139 g(H,U,f)=  0.465E-02 0.896E-02 0.202E-02 ort(H,U,f) = 0.568E-03 0.431E-03-0.788E-03
CGA:  70    -0.220723534566E+03   -0.11071E-02   -0.11220E-02  5760   0.156E-01 0.212E-03
 gam= 1.139 trial= 0.267  step= 0.220 mean= 0.267
 gam= 0.346 g(H,U,f)=  0.312E-02 0.221E-02 0.805E-04 ort(H,U,f) =-0.238E-02 0.267E-02 0.158E-03
CGA:  71    -0.220725267986E+03   -0.17334E-02   -0.17458E-02  5760   0.541E-02 0.452E-03
 gam= 0.346 trial= 0.264  step= 0.525 mean= 0.264
 gam= 0.930 g(H,U,f)=  0.239E-02 0.248E-02 0.162E-03 ort(H,U,f) =-0.794E-03 0.123E-02-0.167E-03
CGA:  72    -0.220726801466E+03   -0.15335E-02   -0.14607E-02  5760   0.503E-02 0.266E-03
 gam= 0.930 trial= 0.277  step= 0.323 mean= 0.277
 gam= 0.000 g(H,U,f)=  0.203E-02 0.707E-02 0.192E-02 ort(H,U,f) =-0.237E-03 0.432E-03-0.341E-03
SDA:  73    -0.220727651307E+03   -0.84984E-03   -0.85318E-03  5760   0.110E-01-0.145E-03
 gam= 0.000 trial= 0.280  step= 0.079 mean= 0.280
 gam= 0.267 g(H,U,f)=  0.118E-02 0.158E-02 0.175E-03 ort(H,U,f) = 0.114E-02-0.872E-03-0.471E-03
CGA:  74    -0.220728073507E+03   -0.42220E-03   -0.43281E-03  5760   0.294E-02-0.200E-03
 gam= 0.267 trial= 0.270  step= 0.510 mean= 0.270
 gam= 0.666 g(H,U,f)=  0.716E-03 0.117E-02 0.720E-04 ort(H,U,f) =-0.254E-03 0.334E-03-0.506E-04
CGA:  75    -0.220728824275E+03   -0.75077E-03   -0.73512E-03  5760   0.196E-02 0.290E-04
 gam= 0.666 trial= 0.282  step= 0.622 mean= 0.282
 gam= 2.187 g(H,U,f)=  0.812E-03 0.289E-02 0.576E-03 ort(H,U,f) =-0.288E-03 0.435E-03-0.838E-04
CGA:  76    -0.220729453131E+03   -0.62886E-03   -0.61387E-03  5760   0.428E-02 0.626E-04
 gam= 2.187 trial= 0.299  step= 0.127 mean= 0.299
 gam= 0.613 g(H,U,f)=  0.870E-03 0.148E-02 0.269E-03 ort(H,U,f) =-0.536E-03 0.757E-03-0.269E-03
CGA:  77    -0.220729730028E+03   -0.27690E-03   -0.27951E-03  5760   0.262E-02-0.481E-04
 gam= 0.613 trial= 0.290  step= 0.426 mean= 0.290
 gam= 0.553 g(H,U,f)=  0.651E-03 0.725E-03 0.746E-04 ort(H,U,f) =-0.561E-03 0.563E-03-0.511E-04
CGA:  78    -0.220730279116E+03   -0.54909E-03   -0.55268E-03  5760   0.145E-02-0.491E-04
 gam= 0.553 trial= 0.297  step= 0.298 mean= 0.297
 gam= 2.165 g(H,U,f)=  0.562E-03 0.203E-02 0.544E-03 ort(H,U,f) = 0.538E-04 0.460E-04-0.122E-03
CGA:  79    -0.220730490918E+03   -0.21180E-03   -0.21180E-03  5760   0.314E-02-0.221E-04
 gam= 2.165 trial= 0.297  step= 0.180 mean= 0.297
 gam= 0.330 g(H,U,f)=  0.478E-03 0.534E-03 0.231E-04 ort(H,U,f) =-0.221E-03 0.273E-03-0.584E-04
CGA:  80    -0.220730769816E+03   -0.27890E-03   -0.27748E-03  5760   0.103E-02-0.589E-05
 gam= 0.330 trial= 0.291  step= 0.466 mean= 0.291
 gam= 1.143 g(H,U,f)=  0.263E-03 0.740E-03 0.179E-03 ort(H,U,f) =-0.449E-04 0.844E-04-0.100E-04
CGA:  81    -0.220731013660E+03   -0.24384E-03   -0.24039E-03  5760   0.118E-02 0.294E-04
 gam= 1.143 trial= 0.300  step= 0.121 mean= 0.300
 gam= 0.589 g(H,U,f)=  0.229E-03 0.400E-03 0.680E-04 ort(H,U,f) = 0.312E-04 0.695E-04-0.900E-04
CGA:  82    -0.220731085105E+03   -0.71445E-04   -0.73823E-04  5760   0.697E-03 0.107E-04
 gam= 0.589 trial= 0.291  step= 0.484 mean= 0.291
 gam= 0.766 g(H,U,f)=  0.167E-03 0.328E-03 0.387E-04 ort(H,U,f) =-0.107E-03 0.154E-03-0.179E-05
CGA:  83    -0.220731260154E+03   -0.17505E-03   -0.17021E-03  5760   0.534E-03 0.446E-04
 gam= 0.766 trial= 0.301  step= 0.226 mean= 0.301
 gam= 1.793 g(H,U,f)=  0.156E-03 0.654E-03 0.147E-03 ort(H,U,f) =-0.186E-04 0.892E-04-0.729E-04
CGA:  84    -0.220731323932E+03   -0.63778E-04   -0.64352E-04  5760   0.957E-03-0.236E-05
 gam= 1.793 trial= 0.297  step= 0.269 mean= 0.297
 gam= 0.454 g(H,U,f)=  0.206E-03 0.213E-03 0.150E-04 ort(H,U,f) =-0.310E-03 0.322E-03-0.806E-05
CGA:  85    -0.220731452086E+03   -0.12815E-03   -0.12808E-03  5760   0.434E-03 0.366E-05
 gam= 0.454 trial= 0.295  step= 0.627 mean= 0.295
 gam= 2.732 g(H,U,f)=  0.246E-03 0.747E-03 0.193E-03 ort(H,U,f) =-0.818E-04 0.135E-03-0.363E-04
CGA:  86    -0.220731591970E+03   -0.13988E-03   -0.13680E-03  5760   0.119E-02 0.172E-04
 gam= 2.732 trial= 0.312  step= 0.147 mean= 0.312
 gam= 0.758 g(H,U,f)=  0.328E-03 0.497E-03 0.752E-04 ort(H,U,f) =-0.199E-03 0.245E-03-0.924E-05
CGA:  87    -0.220731681229E+03   -0.89259E-04   -0.90695E-04  5760   0.900E-03 0.364E-04
 gam= 0.758 trial= 0.304  step= 0.441 mean= 0.304
 gam= 0.542 g(H,U,f)=  0.213E-03 0.237E-03 0.372E-04 ort(H,U,f) =-0.128E-03 0.220E-03-0.492E-04
CGA:  88    -0.220731894172E+03   -0.21294E-03   -0.20441E-03  5760   0.488E-03 0.423E-04
 gam= 0.542 trial= 0.311  step= 0.266 mean= 0.311
 gam= 2.078 g(H,U,f)=  0.176E-03 0.662E-03 0.175E-03 ort(H,U,f) = 0.282E-04-0.825E-06-0.462E-04
CGA:  89    -0.220731962653E+03   -0.68480E-04   -0.67991E-04  5760   0.101E-02-0.189E-04
 gam= 2.078 trial= 0.308  step= 0.206 mean= 0.308
 gam= 0.528 g(H,U,f)=  0.242E-03 0.289E-03 0.462E-05 ort(H,U,f) =-0.180E-03 0.169E-03-0.977E-05
CGA:  90    -0.220732063961E+03   -0.10131E-03   -0.10028E-03  5760   0.535E-03-0.203E-04
 gam= 0.528 trial= 0.303  step= 0.649 mean= 0.303
 gam= 0.571 g(H,U,f)=  0.172E-03 0.131E-03 0.217E-05 ort(H,U,f) =-0.148E-03 0.141E-03-0.158E-05
CGA:  91    -0.220732233120E+03   -0.16916E-03   -0.17024E-03  5760   0.305E-03-0.884E-05
 gam= 0.571 trial= 0.321  step= 0.595 mean= 0.321
 gam= 3.553 g(H,U,f)=  0.193E-03 0.725E-03 0.167E-03 ort(H,U,f) =-0.428E-04 0.338E-04-0.936E-06
CGA:  92    -0.220732321483E+03   -0.88363E-04   -0.89428E-04  5760   0.109E-02-0.993E-05
 gam= 3.553 trial= 0.334  step= 0.128 mean= 0.334
 gam= 0.474 g(H,U,f)=  0.226E-03 0.263E-03 0.244E-04 ort(H,U,f) =-0.227E-03 0.275E-03-0.576E-04
CGA:  93    -0.220732389386E+03   -0.67902E-04   -0.67427E-04  5760   0.514E-03-0.875E-05
 gam= 0.474 trial= 0.324  step= 0.560 mean= 0.324
 gam= 0.832 g(H,U,f)=  0.241E-03 0.176E-03 0.111E-04 ort(H,U,f) =-0.164E-03 0.165E-03 0.812E-07
CGA:  94    -0.220732532405E+03   -0.14302E-03   -0.14263E-03  5760   0.428E-03 0.204E-05
 gam= 0.832 trial= 0.336  step= 0.342 mean= 0.336
 gam= 2.958 g(H,U,f)=  0.211E-03 0.823E-03 0.231E-03 ort(H,U,f) = 0.116E-04 0.161E-04-0.290E-04
CGA:  95    -0.220732605860E+03   -0.73454E-04   -0.73407E-04  5760   0.127E-02-0.135E-05
 gam= 2.958 trial= 0.336  step= 0.185 mean= 0.336
 gam= 0.345 g(H,U,f)=  0.236E-03 0.198E-03 0.273E-05 ort(H,U,f) =-0.299E-03 0.321E-03-0.163E-04
CGA:  96    -0.220732723594E+03   -0.11773E-03   -0.11684E-03  5760   0.437E-03 0.584E-05
 gam= 0.345 trial= 0.329  step= 0.709 mean= 0.329
 gam= 0.903 g(H,U,f)=  0.206E-03 0.188E-03 0.704E-06 ort(H,U,f) =-0.103E-03 0.104E-03-0.139E-06
CGA:  97    -0.220732879477E+03   -0.15588E-03   -0.15562E-03  5760   0.394E-03 0.112E-05
 gam= 0.903 trial= 0.348  step= 0.589 mean= 0.348
 gam= 0.914 g(H,U,f)=  0.186E-03 0.172E-03 0.219E-05 ort(H,U,f) =-0.860E-04 0.908E-04 0.307E-05
CGA:  98    -0.220732996706E+03   -0.11723E-03   -0.11634E-03  5760   0.361E-03 0.780E-05
 gam= 0.914 trial= 0.360  step= 0.594 mean= 0.360
 gam= 2.024 g(H,U,f)=  0.162E-03 0.474E-03 0.934E-04 ort(H,U,f) =-0.672E-04 0.101E-03-0.245E-04
CGA:  99    -0.220733106968E+03   -0.11026E-03   -0.10917E-03  5760   0.730E-03 0.905E-05
 gam= 2.024 trial= 0.371  step= 0.121 mean= 0.371
 gam= 0.566 g(H,U,f)=  0.152E-03 0.226E-03 0.344E-04 ort(H,U,f) =-0.952E-04 0.107E-03-0.220E-04
CGA: 100    -0.220733151427E+03   -0.44460E-04   -0.45346E-04  5760   0.413E-03-0.104E-04
 gam= 0.566 trial= 0.359  step= 0.430 mean= 0.359
 gam= 0.622 g(H,U,f)=  0.149E-03 0.103E-03 0.473E-05 ort(H,U,f) =-0.812E-04 0.813E-04-0.871E-05
CGA: 101    -0.220733238784E+03   -0.87356E-04   -0.87604E-04  5760   0.257E-03-0.862E-05
 gam= 0.622 trial= 0.362  step= 0.563 mean= 0.362
 gam= 2.087 g(H,U,f)=  0.105E-03 0.342E-03 0.888E-04 ort(H,U,f) =-0.158E-04 0.960E-05 0.452E-05
CGA: 102    -0.220733309290E+03   -0.70506E-04   -0.70826E-04  5760   0.536E-03-0.163E-05
 gam= 2.087 trial= 0.372  step= 0.110 mean= 0.372
 gam= 0.363 g(H,U,f)=  0.870E-04 0.992E-04 0.813E-05 ort(H,U,f) =-0.385E-04 0.567E-04-0.261E-04
CGA: 103    -0.220733338038E+03   -0.28748E-04   -0.29279E-04  5760   0.194E-03-0.788E-05
 gam= 0.363 trial= 0.359  step= 0.458 mean= 0.359
 gam= 0.000 g(H,U,f)=  0.583E-04 0.575E-04 0.243E-05 ort(H,U,f) =-0.274E-04 0.237E-04 0.741E-07
SDA: 104    -0.220733381826E+03   -0.43788E-04   -0.43858E-04  5760   0.118E-03-0.361E-05
 gam= 0.000 trial= 0.364  step= 0.333 mean= 0.364
 gam= 1.282 g(H,U,f)=  0.242E-04 0.108E-03 0.196E-04 ort(H,U,f) = 0.884E-05-0.348E-05-0.508E-05
CGA: 105    -0.220733401501E+03   -0.19675E-04   -0.19711E-04  5760   0.152E-03 0.276E-06
 gam= 1.282 trial= 0.363  step= 0.134 mean= 0.363
 gam= 0.693 g(H,U,f)=  0.289E-04 0.685E-04 0.769E-05 ort(H,U,f) =-0.346E-06 0.749E-05-0.834E-05
CGA: 106    -0.220733411572E+03   -0.10071E-04   -0.10150E-04  5760   0.105E-03-0.120E-05
 gam= 0.693 trial= 0.351  step= 0.628 mean= 0.351
 gam= 0.854 g(H,U,f)=  0.493E-04 0.398E-04 0.688E-06 ort(H,U,f) =-0.394E-04 0.402E-04-0.511E-07
CGA: 107    -0.220733444336E+03   -0.32764E-04   -0.32727E-04  5760   0.898E-04 0.714E-06
 gam= 0.854 trial= 0.365  step= 0.708 mean= 0.365
 gam= 1.247 g(H,U,f)=  0.489E-04 0.551E-04 0.804E-05 ort(H,U,f) =-0.266E-04 0.314E-04 0.590E-06
CGA: 108    -0.220733477369E+03   -0.33033E-04   -0.31996E-04  5760   0.112E-03 0.531E-05
 gam= 1.247 trial= 0.382  step= 0.252 mean= 0.382
 gam= 2.300 g(H,U,f)=  0.501E-04 0.170E-03 0.377E-04 ort(H,U,f) =-0.400E-05 0.211E-04-0.190E-04
CGA: 109    -0.220733492312E+03   -0.14943E-04   -0.14941E-04  5760   0.257E-03-0.191E-05
 gam= 2.300 trial= 0.376  step= 0.266 mean= 0.376
 gam= 0.429 g(H,U,f)=  0.674E-04 0.424E-04 0.671E-06 ort(H,U,f) =-0.845E-04 0.820E-04-0.115E-06
CGA: 110    -0.220733526118E+03   -0.33807E-04   -0.33632E-04  5760   0.111E-03-0.264E-05
 gam= 0.429 trial= 0.370  step= 0.520 mean= 0.370
 gam= 2.382 g(H,U,f)=  0.587E-04 0.165E-03 0.399E-04 ort(H,U,f) =-0.136E-04 0.157E-04-0.764E-06
CGA: 111    -0.220733554754E+03   -0.28635E-04   -0.28458E-04  5760   0.263E-03 0.138E-05
 gam= 2.382 trial= 0.378  step= 0.119 mean= 0.378
 gam= 0.512 g(H,U,f)=  0.671E-04 0.630E-04 0.488E-05 ort(H,U,f) =-0.341E-04 0.446E-04-0.145E-04
CGA: 112    -0.220733570357E+03   -0.15604E-04   -0.15910E-04  5760   0.135E-03-0.397E-05
 gam= 0.512 trial= 0.365  step= 0.495 mean= 0.365
 gam= 0.760 g(H,U,f)=  0.513E-04 0.505E-04 0.634E-06 ort(H,U,f) =-0.279E-04 0.250E-04-0.548E-06
CGA: 113    -0.220733602951E+03   -0.32593E-04   -0.32874E-04  5760   0.102E-03-0.341E-05
 gam= 0.760 trial= 0.371  step= 0.335 mean= 0.371
 gam= 2.054 g(H,U,f)=  0.377E-04 0.136E-03 0.363E-04 ort(H,U,f) =-0.104E-04 0.817E-05 0.805E-06
CGA: 114    -0.220733619714E+03   -0.16763E-04   -0.16730E-04  5760   0.210E-03-0.140E-05
 gam= 2.054 trial= 0.370  step= 0.128 mean= 0.370
 gam= 0.315 g(H,U,f)=  0.375E-04 0.275E-04 0.118E-05 ort(H,U,f) =-0.447E-04 0.471E-04-0.663E-05
CGA: 115    -0.220733632715E+03   -0.13001E-04   -0.13276E-04  5760   0.662E-04-0.421E-05
 gam= 0.315 trial= 0.357  step= 0.673 mean= 0.357
 gam= 1.434 g(H,U,f)=  0.341E-04 0.523E-04 0.867E-05 ort(H,U,f) =-0.129E-04 0.173E-04-0.283E-05
CGA: 116    -0.220733654862E+03   -0.22147E-04   -0.21854E-04  5760   0.950E-04 0.159E-05
 gam= 1.434 trial= 0.373  step= 0.159 mean= 0.373
 gam= 1.161 g(H,U,f)=  0.314E-04 0.663E-04 0.125E-04 ort(H,U,f) =-0.119E-05 0.625E-05-0.538E-05
CGA: 117    -0.220733662544E+03   -0.76825E-05   -0.77441E-05  5760   0.110E-03-0.316E-06
 gam= 1.161 trial= 0.363  step= 0.264 mean= 0.363
 gam= 0.412 g(H,U,f)=  0.278E-04 0.173E-04 0.316E-06 ort(H,U,f) =-0.237E-04 0.226E-04 0.791E-06
CGA: 118    -0.220733677029E+03   -0.14485E-04   -0.14487E-04  5760   0.454E-04-0.298E-06
 gam= 0.412 trial= 0.358  step= 0.618 mean= 0.358
 gam= 3.227 g(H,U,f)=  0.220E-04 0.100E-03 0.241E-04 ort(H,U,f) =-0.241E-05 0.711E-05-0.573E-05
CGA: 119    -0.220733690946E+03   -0.13917E-04   -0.13974E-04  5760   0.146E-03-0.103E-05
 gam= 3.227 trial= 0.371  step= 0.104 mean= 0.371
 gam= 0.237 g(H,U,f)=  0.179E-04 0.163E-04 0.537E-06 ort(H,U,f) =-0.281E-04 0.280E-04-0.596E-06
CGA: 120    -0.220733698327E+03   -0.73803E-05   -0.74174E-05  5760   0.347E-04-0.697E-06
 gam= 0.237 trial= 0.357  step= 0.501 mean= 0.357
 gam= 1.227 g(H,U,f)=  0.147E-04 0.240E-04 0.377E-05 ort(H,U,f) =-0.596E-05 0.739E-05 0.691E-06
CGA: 121    -0.220733707136E+03   -0.88093E-05   -0.86473E-05  5760   0.426E-04 0.212E-05
 gam= 1.227 trial= 0.364  step= 0.147 mean= 0.364
 gam= 1.164 g(H,U,f)=  0.138E-04 0.301E-04 0.563E-05 ort(H,U,f) = 0.750E-07 0.532E-05-0.548E-05
CGA: 122    -0.220733710424E+03   -0.32886E-05   -0.33113E-05  5760   0.495E-04-0.892E-07
 gam= 1.164 trial= 0.354  step= 0.504 mean= 0.354
 gam= 0.661 g(H,U,f)=  0.186E-04 0.136E-04 0.600E-06 ort(H,U,f) =-0.182E-04 0.162E-04-0.868E-07
CGA: 123    -0.220733722744E+03   -0.12320E-04   -0.12453E-04  5760   0.327E-04-0.201E-05
 gam= 0.661 trial= 0.361  step= 0.269 mean= 0.361
 gam= 2.182 g(H,U,f)=  0.150E-04 0.447E-04 0.117E-04 ort(H,U,f) =-0.131E-05 0.139E-05-0.161E-05
CGA: 124    -0.220733726993E+03   -0.42491E-05   -0.42194E-05  5760   0.714E-04-0.153E-05
 gam= 2.182 trial= 0.356  step= 0.174 mean= 0.356
 gam= 0.337 g(H,U,f)=  0.141E-04 0.998E-05 0.580E-07 ort(H,U,f) =-0.144E-04 0.138E-04-0.362E-06
CGA: 125    -0.220733733053E+03   -0.60599E-05   -0.59200E-05  5760   0.241E-04-0.975E-06
 gam= 0.337 trial= 0.347  step= 0.552 mean= 0.347
 gam= 2.101 g(H,U,f)=  0.113E-04 0.320E-04 0.731E-05 ort(H,U,f) =-0.347E-05 0.498E-05-0.172E-05
CGA: 126    -0.220733739587E+03   -0.65335E-05   -0.65565E-05  5760   0.506E-04-0.205E-06
 gam= 2.101 trial= 0.358  step= 0.109 mean= 0.358
 gam= 0.465 g(H,U,f)=  0.109E-04 0.113E-04 0.133E-05 ort(H,U,f) =-0.650E-05 0.642E-05-0.120E-05
CGA: 127    -0.220733742313E+03   -0.27256E-05   -0.27415E-05  5760   0.235E-04-0.128E-05
 gam= 0.465 trial= 0.345  step= 0.535 mean= 0.345
 gam= 1.052 g(H,U,f)=  0.125E-04 0.112E-04 0.106E-05 ort(H,U,f) =-0.689E-05 0.391E-05 0.111E-06
CGA: 128    -0.220733748222E+03   -0.59097E-05   -0.61407E-05  5760   0.248E-04-0.287E-05
 gam= 1.052 trial= 0.355  step= 0.253 mean= 0.355
 gam= 1.892 g(H,U,f)=  0.106E-04 0.299E-04 0.633E-05 ort(H,U,f) =-0.548E-06 0.451E-05-0.343E-05
CGA: 129    -0.220733750952E+03   -0.27300E-05   -0.27565E-05  5760   0.469E-04 0.534E-06
 gam= 1.892 trial= 0.350  step= 0.189 mean= 0.350
 gam= 0.322 g(H,U,f)=  0.795E-05 0.688E-05 0.278E-06 ort(H,U,f) =-0.881E-05 0.104E-04 0.271E-07
CGA: 130    -0.220733755312E+03   -0.43596E-05   -0.45246E-05  5760   0.151E-04 0.157E-05
 gam= 0.322 trial= 0.342  step= 0.536 mean= 0.342
 gam= 0.967 g(H,U,f)=  0.617E-05 0.747E-05 0.969E-06 ort(H,U,f) =-0.242E-05 0.468E-05-0.491E-06
CGA: 131    -0.220733759671E+03   -0.43596E-05   -0.41840E-05  5760   0.146E-04 0.177E-05
 gam= 0.967 trial= 0.351  step= 0.239 mean= 0.351
 gam= 2.002 g(H,U,f)=  0.562E-05 0.191E-04 0.450E-05 ort(H,U,f) = 0.217E-06 0.600E-06-0.942E-06
CGA: 132    -0.220733761615E+03   -0.19439E-05   -0.19500E-05  5760   0.292E-04-0.126E-06
 gam= 2.002 trial= 0.346  step= 0.256 mean= 0.346
 gam= 0.395 g(H,U,f)=  0.672E-05 0.477E-05 0.423E-07 ort(H,U,f) =-0.819E-05 0.788E-05 0.166E-06
CGA: 133    -0.220733765327E+03   -0.37113E-05   -0.37121E-05  5760   0.115E-04-0.141E-06
 gam= 0.395 trial= 0.341  step= 0.441 mean= 0.341
 gam= 1.530 g(H,U,f)=  0.446E-05 0.108E-04 0.236E-05 ort(H,U,f) =-0.111E-05 0.319E-05-0.906E-06
CGA: 134    -0.220733767919E+03   -0.25921E-05   -0.25299E-05  5760   0.176E-04 0.118E-05
 gam= 1.530 trial= 0.346  step= 0.123 mean= 0.346
 gam= 0.000 g(H,U,f)=  0.391E-05 0.506E-05 0.630E-06 ort(H,U,f) =-0.105E-05 0.178E-05-0.455E-06
SDA: 135    -0.220733769067E+03   -0.11486E-05   -0.11938E-05  5760   0.960E-05 0.277E-06
 gam= 0.000 trial= 0.335  step= 0.150 mean= 0.335
 gam= 1.048 g(H,U,f)=  0.250E-05 0.616E-05 0.140E-05 ort(H,U,f) = 0.230E-05-0.180E-05-0.935E-06
CGA: 136    -0.220733769817E+03   -0.74976E-06   -0.72151E-06  5760   0.101E-04-0.430E-06
 gam= 1.048 trial= 0.326  step= 0.300 mean= 0.326
 gam= 0.728 g(H,U,f)=  0.270E-05 0.445E-05 0.176E-06 ort(H,U,f) =-0.740E-06-0.491E-06-0.833E-07
CGA: 137    -0.220733771276E+03   -0.14586E-05   -0.14420E-05  5760   0.732E-05-0.131E-05
 gam= 0.728 trial= 0.324  step= 0.526 mean= 0.324
 gam= 0.507 g(H,U,f)=  0.228E-05 0.135E-05 0.818E-07 ort(H,U,f) =-0.243E-05 0.195E-05-0.798E-07
CGA: 138    -0.220733772910E+03   -0.16342E-05   -0.16746E-05  5760   0.371E-05-0.558E-06
 gam= 0.507 trial= 0.335  step= 0.712 mean= 0.335
 gam= 2.482 g(H,U,f)=  0.240E-05 0.574E-05 0.108E-05 ort(H,U,f) =-0.722E-06 0.553E-06-0.875E-07
CGA: 139    -0.220733774100E+03   -0.11902E-05   -0.12212E-05  5760   0.922E-05-0.257E-06
 gam= 2.482 trial= 0.353  step= 0.131 mean= 0.353
 gam= 0.651 g(H,U,f)=  0.237E-05 0.305E-05 0.581E-06 ort(H,U,f) =-0.109E-05 0.152E-05-0.629E-06
CGA: 140    -0.220733774676E+03   -0.57552E-06   -0.56138E-06  5760   0.600E-05-0.200E-06
 gam= 0.651 trial= 0.342  step= 0.475 mean= 0.342
 gam= 0.694 g(H,U,f)=  0.255E-05 0.155E-05 0.637E-07 ort(H,U,f) =-0.175E-05 0.120E-05 0.238E-07
CGA: 141    -0.220733776036E+03   -0.13604E-05   -0.13943E-05  5760   0.416E-05-0.529E-06
 gam= 0.694 trial= 0.349  step= 0.454 mean= 0.349
 gam= 0.710 g(H,U,f)=  0.145E-05 0.133E-05 0.172E-06 ort(H,U,f) =-0.405E-06 0.854E-06-0.106E-06
CGA: 142    -0.220733776922E+03   -0.88647E-06   -0.86095E-06  5760   0.295E-05 0.344E-06
 gam= 0.710 trial= 0.354  step= 0.196 mean= 0.354
 final diagonalization
   1 F= -.23203390E+03 E0= -.23202935E+03  d E =-.908933E-02  mag=     6.0000
