 running on   64 total cores
 distrk:  each k-point on   64 cores,    1 groups
 distr:  one band on    4 cores,   16 groups
 using from now: INCAR     
 vasp.5.4.4.18Apr17-6-g9f103f2a35 (build Nov 22 2021 14:44:17) complex          
  
 POSCAR found type information on POSCAR  Li Co O 
 POSCAR found :  3 types and      42 ions
 scaLAPACK will be used
 LDA part: xc-table for Pade appr. of Perdew
 generate k-points for:    6    6    2
 POSCAR, INCAR and KPOINTS ok, starting setup
 FFT: planning ...
 WAVECAR not read
 entering main loop
       N       E                     dE             d eps       ncg     rms          ort
DAV:   1     0.347549161952E+04    0.34755E+04   -0.13957E+05  5760   0.219E+03
DAV:   2     0.400904713393E+03   -0.30746E+04   -0.28329E+04  5760   0.534E+02
DAV:   3    -0.221668565161E+03   -0.62257E+03   -0.56761E+03  5760   0.253E+02
DAV:   4    -0.270979427359E+03   -0.49311E+02   -0.48228E+02  5760   0.733E+01
DAV:   5    -0.272666174661E+03   -0.16867E+01   -0.16837E+01  5760   0.135E+01
 gam= 0.000 g(H,U,f)=  0.173E+04 0.798E+03 0.313E+03 ort(H,U,f) = 0.000E+00 0.000E+00 0.000E+00
SDA:   6     0.788610459081E+02    0.35153E+03   -0.16837E+01  5760   0.284E+04 0.000E+00
 gam= 0.000 trial= 0.400  step= 0.159 mean= 0.400
 gam= 1.145 g(H,U,f)=  0.336E+03 0.113E+04 0.179E+04 ort(H,U,f) = 0.305E+03 0.182E+03-0.115E+03
CGA:   7    -0.890109645602E+02   -0.16787E+03   -0.22624E+03  5760   0.325E+04 0.373E+03
 gam= 1.145 trial= 0.388  step= 0.051 mean= 0.388
 gam= 0.857 g(H,U,f)=  0.125E+03 0.107E+04 0.159E+04 ort(H,U,f) = 0.512E+02 0.217E+03 0.768E+01
CGA:   8    -0.163371317816E+03   -0.74360E+02   -0.94748E+02  5760   0.279E+04 0.276E+03
 gam= 0.857 trial= 0.371  step= 0.042 mean= 0.371
 gam= 0.000 g(H,U,f)=  0.199E+03 0.117E+04 0.194E+04 ort(H,U,f) =-0.344E+03-0.581E+03-0.154E+04
CGA:   9    -0.152516371671E+03    0.10855E+02   -0.63441E+02  5760   0.331E+04-0.246E+04
 gam= 0.000 trial= 0.355  step= 0.045 mean= 0.355
 gam= 0.158 g(H,U,f)=  0.973E+02 0.240E+03 0.185E+03 ort(H,U,f) = 0.208E+02-0.362E+03-0.264E+03
CGA:  10    -0.190834324341E+03   -0.38318E+02   -0.74512E+02  5760   0.522E+03-0.605E+03
 gam= 0.158 trial= 0.339  step= 0.082 mean= 0.339
 gam= 0.000 g(H,U,f)=  0.613E+02 0.419E+03 0.242E+03 ort(H,U,f) = 0.347E+02-0.278E+03-0.160E+03
CGA:  11    -0.195368891619E+03   -0.45346E+01   -0.17557E+02  5760   0.722E+03-0.404E+03
 gam= 0.000 trial= 0.326  step= 0.050 mean= 0.326
 gam= 0.000 g(H,U,f)=  0.449E+02 0.195E+03 0.115E+03 ort(H,U,f) = 0.123E+02-0.266E+03-0.158E+03
CGA:  12    -0.203105819280E+03   -0.77369E+01   -0.17944E+02  5760   0.356E+03-0.411E+03
 gam= 0.000 trial= 0.313  step= 0.070 mean= 0.313
 gam= 0.000 g(H,U,f)=  0.417E+02 0.344E+03 0.348E+03 ort(H,U,f) = 0.466E+01-0.232E+03-0.232E+03
CGA:  13    -0.200337272793E+03    0.27685E+01   -0.12409E+02  5760   0.733E+03-0.460E+03
 gam= 0.000 trial= 0.300  step= 0.087 mean= 0.300
 gam= 0.000 g(H,U,f)=  0.716E+02 0.811E+03 0.383E+03 ort(H,U,f) =-0.172E+02-0.546E+03-0.257E+03
CGA:  14    -0.192664213905E+03    0.76731E+01   -0.31793E+02  5760   0.127E+04-0.820E+03
 gam= 0.000 trial= 0.290  step= 0.049 mean= 0.290
 gam= 0.079 g(H,U,f)=  0.139E+02 0.553E+02 0.308E+02 ort(H,U,f) = 0.327E+01-0.201E+03-0.121E+03
CGA:  15    -0.212117323188E+03   -0.19453E+02   -0.31128E+02  5760   0.100E+03-0.319E+03
 gam= 0.079 trial= 0.278  step= 0.104 mean= 0.278
 gam= 1.245 g(H,U,f)=  0.145E+02 0.708E+02 0.392E+02 ort(H,U,f) = 0.944E+01-0.309E+02-0.196E+02
CGA:  16    -0.213077069588E+03   -0.95975E+00   -0.38980E+01  5760   0.124E+03-0.410E+02
 gam= 1.245 trial= 0.269  step= 0.142 mean= 0.269
 gam= 0.372 g(H,U,f)=  0.389E+01 0.307E+02 0.117E+02 ort(H,U,f) = 0.872E+01-0.729E+01-0.515E+01
CGA:  17    -0.217628122080E+03   -0.45511E+01   -0.51926E+01  5760   0.464E+02-0.372E+01
 gam= 0.372 trial= 0.263  step= 0.071 mean= 0.263
 gam= 0.440 g(H,U,f)=  0.247E+01 0.140E+02 0.391E+01 ort(H,U,f) = 0.445E+01-0.111E+02-0.460E+01
CGA:  18    -0.218795933021E+03   -0.11678E+01   -0.15989E+01  5760   0.204E+02-0.113E+02
 gam= 0.440 trial= 0.253  step= 0.148 mean= 0.253
 gam= 0.574 g(H,U,f)=  0.137E+01 0.782E+01 0.252E+01 ort(H,U,f) = 0.207E+01-0.948E+00-0.139E+01
CGA:  19    -0.219851409228E+03   -0.10555E+01   -0.11451E+01  5760   0.117E+02-0.270E+00
 gam= 0.574 trial= 0.248  step= 0.102 mean= 0.248
 gam= 0.578 g(H,U,f)=  0.102E+01 0.397E+01 0.178E+01 ort(H,U,f) = 0.171E+01-0.128E+01-0.131E+01
CGA:  20    -0.220377912138E+03   -0.52650E+00   -0.58930E+00  5760   0.677E+01-0.871E+00
 gam= 0.578 trial= 0.241  step= 0.158 mean= 0.241
 gam= 0.799 g(H,U,f)=  0.641E+00 0.379E+01 0.980E+00 ort(H,U,f) = 0.872E+00-0.300E+00-0.573E+00
CGA:  21    -0.220854732114E+03   -0.47682E+00   -0.49477E+00  5760   0.541E+01-0.810E-03
 gam= 0.799 trial= 0.236  step= 0.136 mean= 0.236
 gam= 0.608 g(H,U,f)=  0.378E+00 0.179E+01 0.112E+01 ort(H,U,f) = 0.517E+00-0.864E-01-0.560E+00
CGA:  22    -0.221188166514E+03   -0.33343E+00   -0.36898E+00  5760   0.329E+01-0.129E+00
 gam= 0.608 trial= 0.231  step= 0.134 mean= 0.231
 gam= 0.576 g(H,U,f)=  0.232E+00 0.129E+01 0.375E+00 ort(H,U,f) = 0.505E-01 0.136E+00-0.290E+00
CGA:  23    -0.221393118524E+03   -0.20495E+00   -0.21578E+00  5760   0.190E+01-0.103E+00
 gam= 0.576 trial= 0.227  step= 0.162 mean= 0.227
 gam= 0.745 g(H,U,f)=  0.168E+00 0.874E+00 0.372E+00 ort(H,U,f) =-0.472E-01 0.212E+00-0.143E+00
CGA:  24    -0.221537041406E+03   -0.14392E+00   -0.14878E+00  5760   0.141E+01 0.220E-01
 gam= 0.745 trial= 0.223  step= 0.187 mean= 0.223
 gam= 0.924 g(H,U,f)=  0.200E+00 0.797E+00 0.311E+00 ort(H,U,f) =-0.839E-01 0.334E+00-0.194E+00
CGA:  25    -0.221667868574E+03   -0.13083E+00   -0.13394E+00  5760   0.131E+01 0.566E-01
 gam= 0.924 trial= 0.221  step= 0.210 mean= 0.221
 gam= 1.003 g(H,U,f)=  0.183E+00 0.723E+00 0.406E+00 ort(H,U,f) =-0.131E+00 0.288E+00-0.113E+00
CGA:  26    -0.221810437176E+03   -0.14257E+00   -0.14309E+00  5760   0.131E+01 0.439E-01
 gam= 1.003 trial= 0.221  step= 0.264 mean= 0.221
 gam= 1.002 g(H,U,f)=  0.245E+00 0.778E+00 0.291E+00 ort(H,U,f) =-0.148E+00 0.472E+00-0.124E+00
CGA:  27    -0.221995849294E+03   -0.18541E+00   -0.17880E+00  5760   0.131E+01 0.199E+00
 gam= 1.002 trial= 0.223  step= 0.209 mean= 0.223
 gam= 1.305 g(H,U,f)=  0.325E+00 0.102E+01 0.370E+00 ort(H,U,f) =-0.121E+00 0.268E+00-0.160E+00
CGA:  28    -0.222153867995E+03   -0.15802E+00   -0.15781E+00  5760   0.171E+01-0.128E-01
 gam= 1.305 trial= 0.222  step= 0.382 mean= 0.222
 gam= 0.525 g(H,U,f)=  0.405E+00 0.487E+00 0.739E-02 ort(H,U,f) =-0.228E+00 0.373E+00 0.100E-01
CGA:  29    -0.222496477849E+03   -0.34261E+00   -0.32407E+00  5760   0.899E+00 0.155E+00
 gam= 0.525 trial= 0.230  step= 0.443 mean= 0.230
 gam= 1.023 g(H,U,f)=  0.375E+00 0.501E+00 0.438E-01 ort(H,U,f) =-0.132E+00 0.291E+00 0.569E-02
CGA:  30    -0.222733921692E+03   -0.23744E+00   -0.21721E+00  5760   0.920E+00 0.165E+00
 gam= 1.023 trial= 0.241  step= 0.332 mean= 0.241
 gam= 1.930 g(H,U,f)=  0.367E+00 0.111E+01 0.304E+00 ort(H,U,f) =-0.103E+00 0.840E-01-0.654E-01
CGA:  31    -0.222910436001E+03   -0.17651E+00   -0.18069E+00  5760   0.178E+01-0.849E-01
 gam= 1.930 trial= 0.246  step= 0.235 mean= 0.246
 gam= 0.592 g(H,U,f)=  0.400E+00 0.642E+00 0.991E-02 ort(H,U,f) =-0.320E+00 0.408E+00-0.554E-01
CGA:  32    -0.223099307035E+03   -0.18887E+00   -0.18926E+00  5760   0.105E+01 0.324E-01
 gam= 0.592 trial= 0.245  step= 0.254 mean= 0.245
 gam= 1.337 g(H,U,f)=  0.395E+00 0.886E+00 0.126E+00 ort(H,U,f) =-0.242E+00 0.161E+00 0.709E-01
CGA:  33    -0.223234961534E+03   -0.13565E+00   -0.13573E+00  5760   0.141E+01-0.965E-02
 gam= 1.337 trial= 0.245  step= 0.221 mean= 0.245
 gam= 1.152 g(H,U,f)=  0.716E+00 0.818E+00 0.866E-01 ort(H,U,f) =-0.329E+00 0.218E+00 0.492E-01
CGA:  34    -0.223390711611E+03   -0.15575E+00   -0.15410E+00  5760   0.162E+01-0.610E-01
 gam= 1.152 trial= 0.244  step= 0.208 mean= 0.244
 gam= 0.830 g(H,U,f)=  0.627E+00 0.667E+00 0.513E-01 ort(H,U,f) =-0.200E-01 0.484E-01 0.558E-01
CGA:  35    -0.223548185797E+03   -0.15747E+00   -0.16103E+00  5760   0.135E+01 0.843E-01
 gam= 0.830 trial= 0.242  step= 0.203 mean= 0.242
 gam= 0.554 g(H,U,f)=  0.319E+00 0.424E+00 0.215E-02 ort(H,U,f) =-0.998E-01 0.166E+00 0.409E-02
CGA:  36    -0.223688433065E+03   -0.14025E+00   -0.14400E+00  5760   0.746E+00 0.701E-01
 gam= 0.554 trial= 0.240  step= 0.298 mean= 0.240
 gam= 0.883 g(H,U,f)=  0.402E+00 0.257E+00 0.429E-07 ort(H,U,f) =-0.175E+00 0.241E+00 0.219E-06
CGA:  37    -0.223807972979E+03   -0.11954E+00   -0.11673E+00  5760   0.658E+00 0.652E-01
 gam= 0.883 trial= 0.243  step= 0.451 mean= 0.243
 gam= 0.825 g(H,U,f)=  0.250E+00 0.293E+00 0.216E-12 ort(H,U,f) =-0.129E+00 0.966E-01-0.763E-12
CGA:  38    -0.223966247855E+03   -0.15827E+00   -0.16137E+00  5760   0.543E+00-0.320E-01
 gam= 0.825 trial= 0.254  step= 0.346 mean= 0.254
 gam= 0.981 g(H,U,f)=  0.194E+00 0.339E+00 0.857E-08 ort(H,U,f) =-0.105E+00 0.834E-01-0.129E-07
CGA:  39    -0.224054443356E+03   -0.88196E-01   -0.89484E-01  5760   0.533E+00-0.213E-01
 gam= 0.981 trial= 0.258  step= 0.339 mean= 0.258
 gam= 0.892 g(H,U,f)=  0.235E+00 0.240E+00 0.392E-07 ort(H,U,f) =-0.108E+00 0.123E+00-0.544E-07
CGA:  40    -0.224142166511E+03   -0.87723E-01   -0.86857E-01  5760   0.475E+00 0.148E-01
 gam= 0.892 trial= 0.262  step= 0.331 mean= 0.262
 gam= 0.719 g(H,U,f)=  0.214E+00 0.128E+00 0.600E-04 ort(H,U,f) =-0.581E-01 0.825E-01 0.125E-04
CGA:  41    -0.224224246875E+03   -0.82080E-01   -0.80826E-01  5760   0.342E+00 0.245E-01
 gam= 0.719 trial= 0.266  step= 0.415 mean= 0.266
 gam= 0.838 g(H,U,f)=  0.158E+00 0.128E+00 0.167E-03 ort(H,U,f) =-0.590E-01 0.496E-01 0.149E-04
CGA:  42    -0.224298042259E+03   -0.73795E-01   -0.74566E-01  5760   0.286E+00-0.938E-02
 gam= 0.838 trial= 0.273  step= 0.334 mean= 0.273
 gam= 0.706 g(H,U,f)=  0.959E-01 0.106E+00 0.183E-05 ort(H,U,f) =-0.412E-01 0.387E-01-0.175E-05
CGA:  43    -0.224344337225E+03   -0.46295E-01   -0.46403E-01  5760   0.202E+00-0.254E-02
 gam= 0.706 trial= 0.276  step= 0.402 mean= 0.276
 gam= 0.906 g(H,U,f)=  0.843E-01 0.987E-01 0.232E-06 ort(H,U,f) =-0.220E-01 0.246E-01-0.490E-06
CGA:  44    -0.224384809663E+03   -0.40472E-01   -0.40257E-01  5760   0.183E+00 0.265E-02
 gam= 0.906 trial= 0.283  step= 0.348 mean= 0.283
 gam= 0.000 g(H,U,f)=  0.507E-01 0.706E-01 0.150E-08 ort(H,U,f) =-0.199E-01 0.211E-01-0.753E-08
SDA:  45    -0.224417175286E+03   -0.32366E-01   -0.32304E-01  5760   0.121E+00 0.123E-02
 gam= 0.000 trial= 0.286  step= 0.611 mean= 0.286
 gam= 1.272 g(H,U,f)=  0.650E-01 0.894E-01 0.742E-09 ort(H,U,f) =-0.104E-01 0.104E-01-0.557E-09
CGA:  46    -0.224454291574E+03   -0.37116E-01   -0.37110E-01  5760   0.154E+00 0.185E-04
 gam= 1.272 trial= 0.302  step= 0.576 mean= 0.302
 gam= 0.407 g(H,U,f)=  0.356E-01 0.272E-01 0.863E-09 ort(H,U,f) =-0.397E-01 0.424E-01 0.382E-09
CGA:  47    -0.224499159492E+03   -0.44868E-01   -0.44483E-01  5760   0.628E-01 0.267E-02
 gam= 0.407 trial= 0.316  step= 0.557 mean= 0.316
 gam= 0.831 g(H,U,f)=  0.260E-01 0.262E-01 0.629E-09 ort(H,U,f) =-0.116E-01 0.120E-01-0.119E-08
CGA:  48    -0.224516995807E+03   -0.17836E-01   -0.17780E-01  5760   0.522E-01 0.435E-03
 gam= 0.831 trial= 0.328  step= 0.566 mean= 0.328
 gam= 0.661 g(H,U,f)=  0.188E-01 0.157E-01 0.458E-10 ort(H,U,f) =-0.775E-02 0.749E-02 0.323E-10
CGA:  49    -0.224531834460E+03   -0.14839E-01   -0.14870E-01  5760   0.345E-01-0.255E-03
 gam= 0.661 trial= 0.340  step= 0.558 mean= 0.340
 gam= 0.509 g(H,U,f)=  0.933E-02 0.823E-02 0.216E-09 ort(H,U,f) =-0.338E-02 0.347E-02-0.208E-09
CGA:  50    -0.224541435008E+03   -0.96005E-02   -0.95890E-02  5760   0.176E-01 0.880E-04
 gam= 0.509 trial= 0.351  step= 0.640 mean= 0.351
 gam= 0.737 g(H,U,f)=  0.633E-02 0.662E-02 0.303E-10 ort(H,U,f) =-0.311E-02 0.308E-02-0.476E-10
CGA:  51    -0.224547068662E+03   -0.56337E-02   -0.56382E-02  5760   0.129E-01-0.318E-04
 gam= 0.737 trial= 0.365  step= 0.745 mean= 0.365
 gam= 0.926 g(H,U,f)=  0.577E-02 0.622E-02 0.855E-10 ort(H,U,f) =-0.440E-02 0.427E-02-0.367E-10
CGA:  52    -0.224551861753E+03   -0.47931E-02   -0.48167E-02  5760   0.120E-01-0.126E-03
 gam= 0.926 trial= 0.384  step= 0.813 mean= 0.384
 gam= 1.373 g(H,U,f)=  0.676E-02 0.969E-02 0.341E-09 ort(H,U,f) =-0.274E-02 0.275E-02-0.850E-10
CGA:  53    -0.224556688140E+03   -0.48264E-02   -0.48262E-02  5760   0.165E-01 0.261E-05
 gam= 1.373 trial= 0.406  step= 0.704 mean= 0.406
 gam= 0.786 g(H,U,f)=  0.622E-02 0.672E-02 0.110E-09 ort(H,U,f) =-0.331E-02 0.324E-02 0.164E-09
CGA:  54    -0.224562468599E+03   -0.57805E-02   -0.57912E-02  5760   0.129E-01-0.694E-04
 gam= 0.786 trial= 0.421  step= 0.563 mean= 0.421
 gam= 0.791 g(H,U,f)=  0.555E-02 0.469E-02 0.344E-08 ort(H,U,f) =-0.129E-02 0.128E-02-0.162E-08
CGA:  55    -0.224566092294E+03   -0.36237E-02   -0.36241E-02  5760   0.102E-01-0.111E-04
 gam= 0.791 trial= 0.428  step= 0.809 mean= 0.428
 gam= 0.538 g(H,U,f)=  0.257E-02 0.294E-02 0.537E-09 ort(H,U,f) =-0.204E-02 0.208E-02-0.185E-09
CGA:  56    -0.224570238082E+03   -0.41458E-02   -0.41382E-02  5760   0.551E-02 0.407E-04
 gam= 0.538 trial= 0.447  step= 0.877 mean= 0.447
 gam= 1.711 g(H,U,f)=  0.286E-02 0.656E-02 0.242E-09 ort(H,U,f) =-0.779E-03 0.820E-03-0.177E-09
CGA:  57    -0.224572671091E+03   -0.24330E-02   -0.24242E-02  5760   0.942E-02 0.411E-04
 gam= 1.711 trial= 0.468  step= 0.806 mean= 0.468
 gam= 1.040 g(H,U,f)=  0.439E-02 0.541E-02 0.947E-10 ort(H,U,f) =-0.333E-02 0.337E-02-0.286E-09
CGA:  58    -0.224576503117E+03   -0.38320E-02   -0.38248E-02  5760   0.979E-02 0.406E-04
 gam= 1.040 trial= 0.485  step= 0.835 mean= 0.485
 gam= 1.530 g(H,U,f)=  0.663E-02 0.835E-02 0.687E-09 ort(H,U,f) =-0.327E-02 0.328E-02-0.193E-09
CGA:  59    -0.224580608590E+03   -0.41055E-02   -0.41053E-02  5760   0.150E-01 0.319E-05
 gam= 1.530 trial= 0.503  step= 0.880 mean= 0.503
 gam= 1.233 g(H,U,f)=  0.113E-01 0.715E-02 0.125E-07 ort(H,U,f) =-0.558E-02 0.523E-02-0.105E-07
CGA:  60    -0.224587135136E+03   -0.65265E-02   -0.65970E-02  5760   0.185E-01-0.348E-03
 gam= 1.233 trial= 0.521  step= 0.901 mean= 0.521
 gam= 0.858 g(H,U,f)=  0.872E-02 0.713E-02 0.184E-15 ort(H,U,f) =-0.356E-02 0.333E-02-0.185E-15
CGA:  61    -0.224595229250E+03   -0.80941E-02   -0.81378E-02  5760   0.159E-01-0.227E-03
 gam= 0.858 trial= 0.540  step= 0.658 mean= 0.540
 gam= 0.606 g(H,U,f)=  0.501E-02 0.460E-02 0.187E-14 ort(H,U,f) =-0.147E-02 0.136E-02 0.473E-16
CGA:  62    -0.224600369425E+03   -0.51402E-02   -0.51495E-02  5760   0.961E-02-0.114E-03
 gam= 0.606 trial= 0.546  step= 0.742 mean= 0.546
 gam= 0.994 g(H,U,f)=  0.359E-02 0.596E-02 0.180E-14 ort(H,U,f) =-0.407E-03 0.369E-03 0.315E-15
CGA:  63    -0.224603906339E+03   -0.35369E-02   -0.35416E-02  5760   0.955E-02-0.373E-04
 gam= 0.994 trial= 0.556  step= 0.503 mean= 0.556
 gam= 0.489 g(H,U,f)=  0.224E-02 0.242E-02 0.501E-15 ort(H,U,f) =-0.973E-03 0.971E-03 0.309E-14
CGA:  64    -0.224606302442E+03   -0.23961E-02   -0.23959E-02  5760   0.467E-02-0.128E-05
 gam= 0.489 trial= 0.554  step= 0.769 mean= 0.554
 gam= 0.958 g(H,U,f)=  0.192E-02 0.255E-02 0.342E-14 ort(H,U,f) =-0.593E-03 0.623E-03-0.837E-14
CGA:  65    -0.224608101095E+03   -0.17987E-02   -0.17954E-02  5760   0.447E-02 0.297E-04
 gam= 0.958 trial= 0.564  step= 0.646 mean= 0.564
 gam= 0.684 g(H,U,f)=  0.152E-02 0.154E-02 0.190E-14 ort(H,U,f) =-0.792E-03 0.817E-03-0.280E-14
CGA:  66    -0.224609555965E+03   -0.14549E-02   -0.14539E-02  5760   0.306E-02 0.253E-04
 gam= 0.684 trial= 0.568  step= 0.866 mean= 0.568
 gam= 0.799 g(H,U,f)=  0.117E-02 0.128E-02 0.656E-08 ort(H,U,f) =-0.575E-03 0.582E-03-0.358E-08
CGA:  67    -0.224610888546E+03   -0.13326E-02   -0.13316E-02  5760   0.244E-02 0.710E-05
 gam= 0.799 trial= 0.583  step= 0.752 mean= 0.583
 gam= 1.243 g(H,U,f)=  0.122E-02 0.182E-02 0.557E-08 ort(H,U,f) =-0.309E-03 0.311E-03 0.344E-08
CGA:  68    -0.224611809932E+03   -0.92139E-03   -0.92129E-03  5760   0.304E-02 0.190E-05
 gam= 1.243 trial= 0.592  step= 0.622 mean= 0.592
 gam= 0.660 g(H,U,f)=  0.963E-03 0.104E-02 0.952E-15 ort(H,U,f) =-0.613E-03 0.604E-03-0.322E-14
CGA:  69    -0.224612755365E+03   -0.94543E-03   -0.94556E-03  5760   0.201E-02-0.870E-05
 gam= 0.660 trial= 0.593  step= 0.800 mean= 0.593
 gam= 1.074 g(H,U,f)=  0.102E-02 0.113E-02 0.114E-14 ort(H,U,f) =-0.479E-03 0.457E-03-0.189E-14
CGA:  70    -0.224613553526E+03   -0.79816E-03   -0.80040E-03  5760   0.215E-02-0.219E-04
 gam= 1.074 trial= 0.604  step= 0.934 mean= 0.604
 gam= 0.940 g(H,U,f)=  0.104E-02 0.984E-03 0.567E-15 ort(H,U,f) =-0.582E-03 0.562E-03-0.601E-15
CGA:  71    -0.224614545516E+03   -0.99199E-03   -0.99533E-03  5760   0.203E-02-0.196E-04
 gam= 0.940 trial= 0.620  step= 0.703 mean= 0.620
 gam= 1.073 g(H,U,f)=  0.979E-03 0.119E-02 0.512E-14 ort(H,U,f) =-0.379E-03 0.371E-03-0.148E-14
CGA:  72    -0.224615250625E+03   -0.70511E-03   -0.70545E-03  5760   0.217E-02-0.747E-05
 gam= 1.073 trial= 0.624  step= 0.801 mean= 0.624
 gam= 0.922 g(H,U,f)=  0.922E-03 0.108E-02 0.963E-15 ort(H,U,f) =-0.444E-03 0.440E-03 0.110E-14
CGA:  73    -0.224616117721E+03   -0.86710E-03   -0.86745E-03  5760   0.200E-02-0.350E-05
 gam= 0.922 trial= 0.633  step= 0.568 mean= 0.633
 gam= 0.761 g(H,U,f)=  0.743E-03 0.783E-03 0.315E-14 ort(H,U,f) =-0.279E-03 0.289E-03 0.286E-14
CGA:  74    -0.224616686114E+03   -0.56839E-03   -0.56870E-03  5760   0.153E-02 0.995E-05
 gam= 0.761 trial= 0.630  step= 0.827 mean= 0.630
 gam= 0.763 g(H,U,f)=  0.566E-03 0.597E-03 0.779E-15 ort(H,U,f) =-0.273E-03 0.288E-03-0.178E-14
CGA:  75    -0.224617321305E+03   -0.63519E-03   -0.63382E-03  5760   0.116E-02 0.149E-04
 gam= 0.763 trial= 0.640  step= 0.783 mean= 0.640
 gam= 0.000 g(H,U,f)=  0.467E-03 0.607E-03 0.521E-15 ort(H,U,f) =-0.168E-03 0.176E-03-0.135E-14
SDA:  76    -0.224617781619E+03   -0.46031E-03   -0.45977E-03  5760   0.107E-02 0.773E-05
 gam= 0.000 trial= 0.647  step= 0.468 mean= 0.647
 gam= 0.682 g(H,U,f)=  0.225E-03 0.508E-03 0.104E-14 ort(H,U,f) = 0.504E-04-0.508E-04 0.470E-15
CGA:  77    -0.224618033021E+03   -0.25140E-03   -0.25138E-03  5760   0.733E-03-0.412E-06
 gam= 0.682 trial= 0.638  step= 0.880 mean= 0.638
 gam= 1.207 g(H,U,f)=  0.295E-03 0.590E-03 0.370E-14 ort(H,U,f) =-0.144E-03 0.137E-03-0.306E-14
CGA:  78    -0.224618354765E+03   -0.32174E-03   -0.32263E-03  5760   0.885E-03-0.728E-05
 gam= 1.207 trial= 0.650  step= 0.539 mean= 0.650
 gam= 0.621 g(H,U,f)=  0.294E-03 0.255E-03 0.239E-16 ort(H,U,f) =-0.211E-03 0.203E-03-0.382E-16
CGA:  79    -0.224618591455E+03   -0.23669E-03   -0.23627E-03  5760   0.549E-03-0.725E-05
 gam= 0.621 trial= 0.645  step= 0.987 mean= 0.645
 gam= 0.940 g(H,U,f)=  0.260E-03 0.256E-03 0.636E-15 ort(H,U,f) =-0.139E-03 0.140E-03-0.355E-16
CGA:  80    -0.224618860190E+03   -0.26873E-03   -0.26864E-03  5760   0.516E-03 0.557E-06
 gam= 0.940 trial= 0.662  step= 0.751 mean= 0.662
 gam= 0.947 g(H,U,f)=  0.247E-03 0.242E-03 0.452E-15 ort(H,U,f) =-0.100E-03 0.101E-03-0.533E-15
CGA:  81    -0.224619054377E+03   -0.19419E-03   -0.19413E-03  5760   0.489E-03 0.127E-05
 gam= 0.947 trial= 0.666  step= 0.908 mean= 0.666
 gam= 1.022 g(H,U,f)=  0.213E-03 0.286E-03 0.357E-15 ort(H,U,f) =-0.991E-04 0.104E-03 0.611E-16
CGA:  82    -0.224619277438E+03   -0.22306E-03   -0.22245E-03  5760   0.499E-03 0.498E-05
 gam= 1.022 trial= 0.678  step= 0.662 mean= 0.678
 gam= 0.915 g(H,U,f)=  0.212E-03 0.245E-03 0.213E-14 ort(H,U,f) =-0.954E-04 0.102E-03-0.954E-15
CGA:  83    -0.224619444340E+03   -0.16690E-03   -0.16695E-03  5760   0.457E-03 0.638E-05
 gam= 0.915 trial= 0.677  step= 0.785 mean= 0.677
 gam= 1.002 g(H,U,f)=  0.203E-03 0.254E-03 0.466E-15 ort(H,U,f) =-0.834E-04 0.864E-04-0.592E-15
CGA:  84    -0.224619626060E+03   -0.18172E-03   -0.18156E-03  5760   0.458E-03 0.308E-05
 gam= 1.002 trial= 0.683  step= 0.616 mean= 0.683
 gam= 0.606 g(H,U,f)=  0.140E-03 0.137E-03 0.881E-15 ort(H,U,f) =-0.897E-04 0.888E-04-0.175E-15
CGA:  85    -0.224619768109E+03   -0.14205E-03   -0.14203E-03  5760   0.277E-03-0.863E-06
 gam= 0.606 trial= 0.679  step= 1.036 mean= 0.679
 gam= 1.000 g(H,U,f)=  0.139E-03 0.138E-03 0.712E-15 ort(H,U,f) =-0.574E-04 0.566E-04-0.775E-15
CGA:  86    -0.224619911241E+03   -0.14313E-03   -0.14329E-03  5760   0.277E-03-0.863E-06
 gam= 1.000 trial= 0.697  step= 0.835 mean= 0.697
 gam= 0.964 g(H,U,f)=  0.135E-03 0.132E-03 0.219E-16 ort(H,U,f) =-0.605E-04 0.557E-04-0.300E-16
CGA:  87    -0.224620026268E+03   -0.11503E-03   -0.11536E-03  5760   0.267E-03-0.483E-05
 gam= 0.964 trial= 0.704  step= 0.888 mean= 0.704
 gam= 0.858 g(H,U,f)=  0.130E-03 0.994E-04 0.140E-15 ort(H,U,f) =-0.722E-04 0.686E-04-0.386E-16
CGA:  88    -0.224620142448E+03   -0.11618E-03   -0.11651E-03  5760   0.229E-03-0.363E-05
 gam= 0.858 trial= 0.713  step= 1.048 mean= 0.713
 gam= 1.048 g(H,U,f)=  0.121E-03 0.119E-03 0.243E-16 ort(H,U,f) =-0.547E-04 0.550E-04 0.200E-16
CGA:  89    -0.224620260933E+03   -0.11849E-03   -0.11845E-03  5760   0.240E-03 0.261E-06
 gam= 1.048 trial= 0.730  step= 0.713 mean= 0.730
 gam= 0.736 g(H,U,f)=  0.104E-03 0.732E-04 0.544E-16 ort(H,U,f) =-0.440E-04 0.431E-04-0.412E-16
CGA:  90    -0.224620346611E+03   -0.85678E-04   -0.85671E-04  5760   0.177E-03-0.939E-06
 gam= 0.736 trial= 0.729  step= 0.796 mean= 0.729
 gam= 0.864 g(H,U,f)=  0.608E-04 0.919E-04 0.792E-15 ort(H,U,f) =-0.157E-04 0.180E-04 0.247E-15
CGA:  91    -0.224620416715E+03   -0.70104E-04   -0.70025E-04  5760   0.153E-03 0.237E-05
 gam= 0.864 trial= 0.733  step= 0.441 mean= 0.733
 gam= 0.460 g(H,U,f)=  0.363E-04 0.339E-04 0.328E-15 ort(H,U,f) =-0.100E-04 0.110E-04-0.544E-15
CGA:  92    -0.224620450721E+03   -0.34006E-04   -0.34145E-04  5760   0.702E-04 0.944E-06
 gam= 0.460 trial= 0.718  step= 0.726 mean= 0.718
 gam= 0.627 g(H,U,f)=  0.190E-04 0.250E-04 0.322E-16 ort(H,U,f) =-0.443E-05 0.423E-05-0.177E-16
CGA:  93    -0.224620476361E+03   -0.25640E-04   -0.25641E-04  5760   0.440E-04-0.202E-06
 gam= 0.627 trial= 0.718  step= 0.624 mean= 0.718
 gam= 0.545 g(H,U,f)=  0.118E-04 0.122E-04 0.585E-16 ort(H,U,f) =-0.436E-05 0.423E-05-0.411E-16
CGA:  94    -0.224620490060E+03   -0.13699E-04   -0.13693E-04  5760   0.240E-04-0.126E-06
 gam= 0.545 trial= 0.714  step= 0.856 mean= 0.714
 gam= 1.042 g(H,U,f)=  0.813E-05 0.169E-04 0.669E-17 ort(H,U,f) =-0.335E-05 0.290E-05-0.330E-18
CGA:  95    -0.224620500270E+03   -0.10210E-04   -0.10242E-04  5760   0.250E-04-0.453E-06
 gam= 1.042 trial= 0.721  step= 0.529 mean= 0.721
 gam= 0.667 g(H,U,f)=  0.719E-05 0.950E-05 0.410E-17 ort(H,U,f) =-0.446E-05 0.392E-05-0.936E-17
CGA:  96    -0.224620506811E+03   -0.65411E-05   -0.64895E-05  5760   0.167E-04-0.539E-06
 gam= 0.667 trial= 0.711  step= 0.960 mean= 0.711
 gam= 1.027 g(H,U,f)=  0.735E-05 0.979E-05 0.507E-16 ort(H,U,f) =-0.362E-05 0.325E-05 0.150E-16
CGA:  97    -0.224620514602E+03   -0.77910E-05   -0.78362E-05  5760   0.171E-04-0.363E-06
 gam= 1.027 trial= 0.724  step= 0.705 mean= 0.724
 gam= 0.792 g(H,U,f)=  0.706E-05 0.652E-05 0.106E-15 ort(H,U,f) =-0.298E-05 0.307E-05-0.966E-16
CGA:  98    -0.224620520514E+03   -0.59119E-05   -0.59128E-05  5760   0.136E-04 0.956E-07
 gam= 0.792 trial= 0.723  step= 0.883 mean= 0.723
 gam= 0.714 g(H,U,f)=  0.493E-05 0.476E-05 0.278E-17 ort(H,U,f) =-0.253E-05 0.298E-05 0.336E-17
CGA:  99    -0.224620526578E+03   -0.60646E-05   -0.60285E-05  5760   0.970E-05 0.449E-06
 gam= 0.714 trial= 0.731  step= 0.791 mean= 0.731
 gam= 0.941 g(H,U,f)=  0.372E-05 0.541E-05 0.829E-18 ort(H,U,f) =-0.820E-06 0.121E-05-0.339E-18
CGA: 100    -0.224620530552E+03   -0.39732E-05   -0.39616E-05  5760   0.913E-05 0.386E-06
 gam= 0.941 trial= 0.734  step= 0.686 mean= 0.734
 gam= 0.835 g(H,U,f)=  0.279E-05 0.483E-05 0.388E-17 ort(H,U,f) =-0.113E-05 0.155E-05 0.345E-17
CGA: 101    -0.224620533797E+03   -0.32455E-05   -0.32554E-05  5760   0.762E-05 0.418E-06
 gam= 0.835 trial= 0.731  step= 0.564 mean= 0.731
 gam= 0.657 g(H,U,f)=  0.238E-05 0.263E-05 0.117E-17 ort(H,U,f) =-0.109E-05 0.125E-05 0.125E-17
CGA: 102    -0.224620536032E+03   -0.22346E-05   -0.22484E-05  5760   0.500E-05 0.164E-06
 gam= 0.657 trial= 0.723  step= 1.143 mean= 0.723
 gam= 1.068 g(H,U,f)=  0.215E-05 0.319E-05 0.195E-16 ort(H,U,f) =-0.101E-05 0.885E-06 0.737E-17
CGA: 103    -0.224620538926E+03   -0.28939E-05   -0.29199E-05  5760   0.534E-05-0.124E-06
 gam= 1.068 trial= 0.744  step= 0.569 mean= 0.744
 gam= 0.687 g(H,U,f)=  0.181E-05 0.186E-05 0.342E-16 ort(H,U,f) =-0.863E-06 0.608E-06-0.390E-16
CGA: 104    -0.224620540429E+03   -0.15033E-05   -0.14809E-05  5760   0.367E-05-0.255E-06
 gam= 0.687 trial= 0.735  step= 1.032 mean= 0.735
 gam= 1.332 g(H,U,f)=  0.158E-05 0.331E-05 0.362E-17 ort(H,U,f) =-0.561E-06 0.361E-06-0.245E-17
CGA: 105    -0.224620542203E+03   -0.17741E-05   -0.18039E-05  5760   0.489E-05-0.201E-06
 gam= 1.332 trial= 0.750  step= 0.547 mean= 0.750
 gam= 0.625 g(H,U,f)=  0.152E-05 0.153E-05 0.176E-16 ort(H,U,f) =-0.112E-05 0.935E-06 0.146E-17
CGA: 106    -0.224620543486E+03   -0.12828E-05   -0.12641E-05  5760   0.305E-05-0.184E-06
 gam= 0.625 trial= 0.740  step= 1.009 mean= 0.740
 gam= 0.000 g(H,U,f)=  0.176E-05 0.226E-05 0.618E-17 ort(H,U,f) =-0.630E-06 0.449E-06-0.799E-17
SDA: 107    -0.224620544944E+03   -0.14580E-05   -0.14824E-05  5760   0.401E-05-0.181E-06
 gam= 0.000 trial= 0.753  step= 0.407 mean= 0.753
 gam= 0.412 g(H,U,f)=  0.643E-06 0.101E-05 0.133E-17 ort(H,U,f) = 0.261E-06-0.174E-06-0.187E-17
CGA: 108    -0.224620545746E+03   -0.80257E-06   -0.81765E-06  5760   0.166E-05 0.872E-07
 gam= 0.412 trial= 0.736  step= 0.733 mean= 0.736
 final diagonalization
   1 F= -.23425478E+03 E0= -.23425478E+03  d E =-.124364E-16  mag=     6.0000
