 vasp.5.4.4.18Apr17-6-g9f103f2a35 (build Nov 22 2021 14:44:17) complex          
  
 executed on             LinuxIFC date 2022.08.06  11:40:02
 running on   64 total cores
 distrk:  each k-point on   64 cores,    1 groups
 distr:  one band on NCORES_PER_BAND=   4 cores,   16 groups


--------------------------------------------------------------------------------------------------------


 INCAR:
 POTCAR:    PAW_PBE Li 17Jan2003                  
 POTCAR:    PAW_PBE Co 02Aug2007                  
 POTCAR:    PAW_PBE O 08Apr2002                   
 POTCAR:    PAW_PBE Li 17Jan2003                  
   VRHFIN =Li: s1p0                                                             
   LEXCH  = PE                                                                  
   EATOM  =     5.3001 eV,    0.3895 Ry                                         
                                                                                
   TITEL  = PAW_PBE Li 17Jan2003                                                
   LULTRA =        F    use ultrasoft PP ?                                      
   IUNSCR =        1    unscreen: 0-lin 1-nonlin 2-no                           
   RPACOR =    1.500    partial core radius                                     
   POMASS =    7.010; ZVAL   =    1.000    mass and valenz                      
   RCORE  =    2.050    outmost cutoff radius                                   
   RWIGS  =    2.600; RWIGS  =    1.376    wigner-seitz radius (au A)           
   ENMAX  =  140.000; ENMIN  =  100.000 eV                                      
   ICORE  =        2    local potential                                         
   LCOR   =        T    correct aug charges                                     
   LPAW   =        T    paw PP                                                  
   EAUG   =  331.638                                                            
   DEXC   =    0.000                                                            
   RMAX   =    2.098    core radius for proj-oper                               
   RAUG   =    1.300    factor for augmentation sphere                          
   RDEP   =    2.094    radius for radial grids                                 
   RDEPT  =    1.810    core radius for aug-charge                              
                                                                                
   Atomic configuration                                                         
    4 entries                                                                   
     n  l   j            E        occ.                                          
     1  0  0.50       -51.8549   2.0000                                         
     2  0  0.50        -2.8742   1.0000                                         
     2  1  0.50        -1.3606   0.0000                                         
     3  2  1.50        -1.3606   0.0000                                         
   Description                                                                  
     l       E           TYP  RCUT    TYP  RCUT                                 
     0     -2.8742052     23  2.050                                             
     0     27.2116520     23  2.050                                             
     1     -1.3605826     23  2.050                                             
     2     -1.3605826     23  2.050                                             
  local pseudopotential read in
  partial core-charges read in
  partial kinetic energy density read in
  atomic valenz-charges read in
  non local Contribution for L=           0  read in
    real space projection operators read in
  non local Contribution for L=           0  read in
    real space projection operators read in
  non local Contribution for L=           1  read in
    real space projection operators read in
    PAW grid and wavefunctions read in
 
   number of l-projection  operators is LMAX  =           3
   number of lm-projection operators is LMMAX =           5
 
 POTCAR:    PAW_PBE Co 02Aug2007                  
   VRHFIN =Co: d8 s1                                                            
   LEXCH  = PE                                                                  
   EATOM  =   813.3670 eV,   59.7808 Ry                                         
                                                                                
   TITEL  = PAW_PBE Co 02Aug2007                                                
   LULTRA =        F    use ultrasoft PP ?                                      
   IUNSCR =        1    unscreen: 0-lin 1-nonlin 2-no                           
   RPACOR =    2.000    partial core radius                                     
   POMASS =   58.933; ZVAL   =    9.000    mass and valenz                      
   RCORE  =    2.300    outmost cutoff radius                                   
   RWIGS  =    2.460; RWIGS  =    1.302    wigner-seitz radius (au A)           
   ENMAX  =  267.968; ENMIN  =  200.976 eV                                      
   RCLOC  =    1.203    cutoff for local pot                                    
   LCOR   =        T    correct aug charges                                     
   LPAW   =        T    paw PP                                                  
   EAUG   =  477.818                                                            
   DEXC   =    0.000                                                            
   RMAX   =    2.360    core radius for proj-oper                               
   RAUG   =    1.300    factor for augmentation sphere                          
   RDEP   =    2.393    radius for radial grids                                 
   RDEPT  =    1.864    core radius for aug-charge                              
                                                                                
   Atomic configuration                                                         
    9 entries                                                                   
     n  l   j            E        occ.                                          
     1  0  0.50     -7587.6674   2.0000                                         
     2  0  0.50      -893.6084   2.0000                                         
     2  1  1.50      -764.5805   6.0000                                         
     3  0  0.50       -97.5973   2.0000                                         
     3  1  1.50       -60.9648   6.0000                                         
     3  2  2.50        -4.2382   8.0000                                         
     4  0  0.50        -4.3746   1.0000                                         
     4  1  1.50        -4.0817   0.0000                                         
     4  3  2.50        -1.3606   0.0000                                         
   Description                                                                  
     l       E           TYP  RCUT    TYP  RCUT                                 
     2     -4.2382362     23  2.300                                             
     2     -5.5988188     23  2.300                                             
     0     -4.3745797     23  2.300                                             
     0      5.7660125     23  2.300                                             
     1     -2.7211652     23  2.300                                             
     1     16.9860234     23  2.300                                             
  local pseudopotential read in
  partial core-charges read in
  partial kinetic energy density read in
  atomic valenz-charges read in
  non local Contribution for L=           2  read in
    real space projection operators read in
  non local Contribution for L=           2  read in
    real space projection operators read in
  non local Contribution for L=           0  read in
    real space projection operators read in
  non local Contribution for L=           0  read in
    real space projection operators read in
  non local Contribution for L=           1  read in
    real space projection operators read in
  non local Contribution for L=           1  read in
    real space projection operators read in
    PAW grid and wavefunctions read in
 
   number of l-projection  operators is LMAX  =           6
   number of lm-projection operators is LMMAX =          18
 
 POTCAR:    PAW_PBE O 08Apr2002                   
   VRHFIN =O: s2p4                                                              
   LEXCH  = PE                                                                  
   EATOM  =   432.3788 eV,   31.7789 Ry                                         
                                                                                
   TITEL  = PAW_PBE O 08Apr2002                                                 
   LULTRA =        F    use ultrasoft PP ?                                      
   IUNSCR =        1    unscreen: 0-lin 1-nonlin 2-no                           
   RPACOR =    1.200    partial core radius                                     
   POMASS =   16.000; ZVAL   =    6.000    mass and valenz                      
   RCORE  =    1.520    outmost cutoff radius                                   
   RWIGS  =    1.550; RWIGS  =    0.820    wigner-seitz radius (au A)           
   ENMAX  =  400.000; ENMIN  =  300.000 eV                                      
   ICORE  =        2    local potential                                         
   LCOR   =        T    correct aug charges                                     
   LPAW   =        T    paw PP                                                  
   EAUG   =  605.392                                                            
   DEXC   =    0.000                                                            
   RMAX   =    1.553    core radius for proj-oper                               
   RAUG   =    1.300    factor for augmentation sphere                          
   RDEP   =    1.550    radius for radial grids                                 
   RDEPT  =    1.329    core radius for aug-charge                              
                                                                                
   Atomic configuration                                                         
    4 entries                                                                   
     n  l   j            E        occ.                                          
     1  0  0.50      -514.6923   2.0000                                         
     2  0  0.50       -23.9615   2.0000                                         
     2  1  0.50        -9.0305   4.0000                                         
     3  2  1.50        -9.5241   0.0000                                         
   Description                                                                  
     l       E           TYP  RCUT    TYP  RCUT                                 
     0    -23.9615318     23  1.200                                             
     0     -9.5240782     23  1.200                                             
     1     -9.0304911     23  1.520                                             
     1      8.1634956     23  1.520                                             
     2     -9.5240782      7  1.500                                             
  local pseudopotential read in
  partial core-charges read in
  partial kinetic energy density read in
  kinetic energy density of atom read in
  atomic valenz-charges read in
  non local Contribution for L=           0  read in
    real space projection operators read in
  non local Contribution for L=           0  read in
    real space projection operators read in
  non local Contribution for L=           1  read in
    real space projection operators read in
  non local Contribution for L=           1  read in
    real space projection operators read in
    PAW grid and wavefunctions read in
 
   number of l-projection  operators is LMAX  =           4
   number of lm-projection operators is LMMAX =           8
 
 Optimization of the real space projectors (new method)

 maximal supplied QI-value         = 18.33
 optimisation between [QCUT,QGAM] = [ 12.46, 24.93] = [ 43.51,174.03] Ry 
 Optimized for a Real-space Cutoff    1.13 Angstroem

   l    n(q)    QCUT    max X(q) W(low)/X(q) W(high)/X(q)  e(spline) 
   0      8    12.465    33.825    0.12E-03    0.29E-03    0.99E-07
   0      8    12.465     8.944    0.86E-04    0.22E-03    0.72E-07
   1      8    12.465     4.214    0.27E-03    0.11E-03    0.82E-07
 Optimization of the real space projectors (new method)

 maximal supplied QI-value         = 16.25
 optimisation between [QCUT,QGAM] = [ 12.51, 25.03] = [ 43.85,175.40] Ry 
 Optimized for a Real-space Cutoff    1.31 Angstroem

   l    n(q)    QCUT    max X(q) W(low)/X(q) W(high)/X(q)  e(spline) 
   2      9    12.514    65.824    0.30E-03    0.46E-03    0.43E-06
   2      9    12.514    61.429    0.31E-03    0.46E-03    0.44E-06
   0     10    12.514    56.174    0.90E-04    0.33E-03    0.30E-06
   0     10    12.514    31.263    0.81E-04    0.30E-03    0.28E-06
   1      9    12.514    19.828    0.38E-03    0.65E-04    0.24E-06
   1      9    12.514    15.139    0.32E-03    0.60E-04    0.20E-06
 Optimization of the real space projectors (new method)

 maximal supplied QI-value         = 24.76
 optimisation between [QCUT,QGAM] = [ 12.38, 25.00] = [ 42.90,175.06] Ry 
 Optimized for a Real-space Cutoff    1.13 Angstroem

   l    n(q)    QCUT    max X(q) W(low)/X(q) W(high)/X(q)  e(spline) 
   0      8    12.378    20.381    0.16E-03    0.54E-05    0.27E-06
   0      8    12.378    15.268    0.17E-03    0.61E-05    0.29E-06
   1      8    12.378     5.964    0.38E-03    0.23E-03    0.28E-06
   1      8    12.378     5.382    0.33E-03    0.20E-03    0.25E-06
  PAW_PBE Li 17Jan2003                  :
 energy of atom  1       EATOM=   -5.3001
 kinetic energy error for atom=    0.0000 (will be added to EATOM!!)
  PAW_PBE Co 02Aug2007                  :
 energy of atom  2       EATOM= -813.3670
 kinetic energy error for atom=    0.0018 (will be added to EATOM!!)
  PAW_PBE O 08Apr2002                   :
 energy of atom  3       EATOM= -432.3788
 kinetic energy error for atom=    0.0168 (will be added to EATOM!!)
 
 
 POSCAR: Li6 Co12 O24                            
  positions in cartesian coordinates
  No initial velocities read in
 exchange correlation table for  LEXCH =        8
   RHO(1)=    0.500       N(1)  =     2000
   RHO(2)=  100.500       N(2)  =     4000
 


--------------------------------------------------------------------------------------------------------


 ion  position               nearest neighbor table
   1  0.046  0.087  0.988-  35 1.97  38 2.00  25 2.04  23 2.20  36 2.21  17 2.69   2 2.75   7 2.85
                            15 2.85   2 2.89  18 3.03
   2  0.529  0.027  0.993-  36 1.96  23 2.06  37 2.14  25 2.20  38 2.27  24 2.52   1 2.75  16 2.78
                            15 2.80   9 2.84   1 2.89  17 3.09   8 3.09  10 3.18
   3  0.786  0.165  0.333-  21 1.91  20 2.03  34 2.15  33 2.15  31 2.16  19 2.33   9 2.60   4 2.62
                            13 2.78  10 2.85   7 2.90  11 2.91  12 2.96   4 3.02
   4  0.800  0.637  0.328-  22 1.94  20 2.05  19 2.08  33 2.08  32 2.10  34 2.31  10 2.57   3 2.62
                             9 2.79   8 2.82  12 2.91  14 3.01   3 3.02  11 3.05
   5  0.654  0.341  0.660-  42 1.83  29 1.92  30 1.98  41 2.09  27 2.34  40 2.46  12 2.54  15 2.66
                             6 2.74  14 2.84  18 2.92   6 2.92  17 2.98  13 2.99
   6  0.614  0.838  0.666-  41 1.82  30 1.93  29 2.04  42 2.05  28 2.21  39 2.43  16 2.50  11 2.73
                             5 2.74  14 2.82   5 2.92  17 2.93  13 3.00  18 3.07
   7  0.160  0.310  0.174-  24 1.84  25 1.87  19 1.90  22 1.90  20 1.93  23 2.04   9 2.75   8 2.78
                            10 2.84   1 2.85  10 2.85   8 2.85   9 2.86   3 2.90
   8  0.164  0.806  0.172-  26 1.83  20 1.88  24 1.90  23 1.90  19 1.91  21 1.93  10 2.77   7 2.78
                             9 2.79   4 2.82  10 2.84   7 2.85   9 2.89   2 3.09
   9  0.661  0.291  0.172-  21 1.87  23 1.89  22 1.90  26 1.93  25 1.94  20 2.00   3 2.60   7 2.75
                             8 2.79  10 2.79   4 2.79   2 2.84  10 2.85   7 2.86   8 2.89
  10  0.668  0.801  0.178-  22 1.87  19 1.92  25 1.93  21 1.95  24 2.00  26 2.02   4 2.57   8 2.77
                             9 2.79   7 2.84   8 2.84   7 2.85   9 2.85   3 2.85   2 3.18
  11  0.930  0.985  0.506-  32 1.82  27 1.83  29 1.87  30 1.88  31 1.91  34 1.92   6 2.73  14 2.73
                            12 2.81  13 2.81  13 2.82  12 2.83   3 2.91  14 2.95   4 3.05
  12  0.939  0.492  0.509-  28 1.79  33 1.88  29 1.89  31 1.90  32 1.92  30 2.01   5 2.54  14 2.77
                            11 2.81  11 2.83  13 2.83  14 2.84  13 2.88   4 2.91   3 2.96
  13  0.432  0.992  0.489-  32 1.86  34 1.88  33 1.89  27 1.94  29 1.95  28 1.97   3 2.78  11 2.81
                            14 2.81  11 2.82  12 2.83  14 2.85  12 2.88   5 2.99   6 3.00
  14  0.451  0.504  0.504-  34 1.90  33 1.92  28 1.93  30 1.94  31 1.94  27 2.00  11 2.73  12 2.77
                            13 2.81   6 2.82  12 2.84   5 2.84  13 2.85  11 2.95   4 3.01
  15  0.391  0.196  0.826-  36 1.85  41 1.91  35 1.92  42 1.94  39 2.02  37 2.02   5 2.66  17 2.70
                            16 2.74   2 2.80  18 2.82   1 2.85  18 2.86  16 2.90  17 2.91
  16  0.407  0.718  0.828-  41 1.85  35 1.90  38 1.93  40 1.94  36 1.98  42 2.05   6 2.50  15 2.74
                             2 2.78  18 2.80  18 2.82  17 2.83  17 2.86  15 2.90
  17  0.918  0.213  0.819-  40 1.84  41 1.86  38 1.88  35 1.89  39 1.94  37 1.95   1 2.69  15 2.70
                            18 2.78  16 2.83  16 2.86  18 2.87  15 2.91   6 2.93   5 2.98   2 3.09
  18  0.898  0.696  0.823-  40 1.84  39 1.86  42 1.90  38 1.91  37 1.94  36 1.98  17 2.78  16 2.80
                            16 2.82  15 2.82  15 2.86  17 2.87   5 2.92   1 3.03   6 3.07
  19  0.010  0.983  0.245-   7 1.90   8 1.91  10 1.92   4 2.08   3 2.33
  20  0.003  0.489  0.247-   8 1.88   7 1.93   9 2.00   3 2.03   4 2.05
  21  0.494  0.977  0.247-   9 1.87   3 1.91   8 1.93  10 1.95
  22  0.497  0.465  0.241-  10 1.87   9 1.90   7 1.90   4 1.94
  23  0.339  0.129  0.098-   9 1.89   8 1.90   7 2.04   2 2.06   1 2.20
  24  0.321  0.625  0.104-   7 1.84   8 1.90  10 2.00   2 2.52
  25  0.841  0.127  0.102-   7 1.87  10 1.93   9 1.94   1 2.04   2 2.20
  26  0.852  0.629  0.102-   8 1.83   9 1.93  10 2.02
  27  0.257  0.143  0.569-  11 1.83  13 1.94  14 2.00   5 2.34
  28  0.261  0.664  0.569-  12 1.79  14 1.93  13 1.97   6 2.21
  29  0.754  0.148  0.570-  11 1.87  12 1.89   5 1.92  13 1.95   6 2.04
  30  0.770  0.675  0.584-  11 1.88   6 1.93  14 1.94   5 1.98  12 2.01
  31  0.104  0.321  0.439-  12 1.90  11 1.91  14 1.94   3 2.16
  32  0.084  0.822  0.437-  11 1.82  13 1.86  12 1.92   4 2.10
  33  0.625  0.340  0.433-  12 1.88  13 1.89  14 1.92   4 2.08   3 2.15
  34  0.610  0.824  0.428-  13 1.88  14 1.90  11 1.92   3 2.15   4 2.31
  35  0.235  0.382  0.895-  17 1.89  16 1.90  15 1.92   1 1.97
  36  0.229  0.889  0.902-  15 1.85   2 1.96  18 1.98  16 1.98   1 2.21
  37  0.743  0.367  0.899-  18 1.94  17 1.95  15 2.02   2 2.14
  38  0.756  0.891  0.892-  17 1.88  18 1.91  16 1.93   1 2.00   2 2.27
  39  0.048  0.005  0.747-  18 1.86  17 1.94  15 2.02   6 2.43
  40  0.071  0.542  0.757-  18 1.84  17 1.84  16 1.94   5 2.46
  41  0.579  0.040  0.760-   6 1.82  16 1.85  17 1.86  15 1.91   5 2.09
  42  0.573  0.526  0.751-   5 1.83  18 1.90  15 1.94   6 2.05  16 2.05
 

IMPORTANT INFORMATION: All symmetrisations will be switched off!
NOSYMM: (Re-)initialisation of all symmetry stuff for point group C_1.

 
 

Automatic generation of k-mesh.
 generate k-points for:    6    6    2
Space group operators:
 irot       det(A)        alpha          n_x          n_y          n_z        tau_x        tau_y        tau_z
    1     1.000000     0.000000     1.000000     0.000000     0.000000     0.000000     0.000000     0.000000
 
 Subroutine IBZKPT returns following result:
 ===========================================
 
 Found     36 irreducible k-points:
 
 Following reciprocal coordinates:
            Coordinates               Weight
  0.083333  0.083333  0.250000      2.000000
  0.250000  0.083333  0.250000      2.000000
  0.416667  0.083333  0.250000      2.000000
 -0.416667  0.083333  0.250000      2.000000
 -0.250000  0.083333  0.250000      2.000000
 -0.083333  0.083333  0.250000      2.000000
  0.083333  0.250000  0.250000      2.000000
  0.250000  0.250000  0.250000      2.000000
  0.416667  0.250000  0.250000      2.000000
 -0.416667  0.250000  0.250000      2.000000
 -0.250000  0.250000  0.250000      2.000000
 -0.083333  0.250000  0.250000      2.000000
  0.083333  0.416667  0.250000      2.000000
  0.250000  0.416667  0.250000      2.000000
  0.416667  0.416667  0.250000      2.000000
 -0.416667  0.416667  0.250000      2.000000
 -0.250000  0.416667  0.250000      2.000000
 -0.083333  0.416667  0.250000      2.000000
  0.083333 -0.416667  0.250000      2.000000
  0.250000 -0.416667  0.250000      2.000000
  0.416667 -0.416667  0.250000      2.000000
 -0.416667 -0.416667  0.250000      2.000000
 -0.250000 -0.416667  0.250000      2.000000
 -0.083333 -0.416667  0.250000      2.000000
  0.083333 -0.250000  0.250000      2.000000
  0.250000 -0.250000  0.250000      2.000000
  0.416667 -0.250000  0.250000      2.000000
 -0.416667 -0.250000  0.250000      2.000000
 -0.250000 -0.250000  0.250000      2.000000
 -0.083333 -0.250000  0.250000      2.000000
  0.083333 -0.083333  0.250000      2.000000
  0.250000 -0.083333  0.250000      2.000000
  0.416667 -0.083333  0.250000      2.000000
 -0.416667 -0.083333  0.250000      2.000000
 -0.250000 -0.083333  0.250000      2.000000
 -0.083333 -0.083333  0.250000      2.000000
 
 Following cartesian coordinates:
            Coordinates               Weight
  0.014862  0.025301  0.017535      2.000000
  0.044585  0.041997  0.017264      2.000000
  0.074308  0.058692  0.016994      2.000000
 -0.074308 -0.024785  0.018346      2.000000
 -0.044585 -0.008090  0.018076      2.000000
 -0.014862  0.008606  0.017805      2.000000
  0.014862  0.059209  0.017478      2.000000
  0.044585  0.075904  0.017207      2.000000
  0.074308  0.092600  0.016937      2.000000
 -0.074308  0.009122  0.018289      2.000000
 -0.044585  0.025818  0.018019      2.000000
 -0.014862  0.042513  0.017748      2.000000
  0.014862  0.093116  0.017420      2.000000
  0.044585  0.109811  0.017150      2.000000
  0.074308  0.126507  0.016880      2.000000
 -0.074308  0.043029  0.018232      2.000000
 -0.044585  0.059725  0.017961      2.000000
 -0.014862  0.076420  0.017691      2.000000
  0.014862 -0.076420  0.017707      2.000000
  0.044585 -0.059725  0.017436      2.000000
  0.074308 -0.043029  0.017166      2.000000
 -0.074308 -0.126507  0.018518      2.000000
 -0.044585 -0.109811  0.018247      2.000000
 -0.014862 -0.093116  0.017977      2.000000
  0.014862 -0.042513  0.017649      2.000000
  0.044585 -0.025818  0.017379      2.000000
  0.074308 -0.009122  0.017108      2.000000
 -0.074308 -0.092600  0.018461      2.000000
 -0.044585 -0.075904  0.018190      2.000000
 -0.014862 -0.059209  0.017920      2.000000
  0.014862 -0.008606  0.017592      2.000000
  0.044585  0.008090  0.017322      2.000000
  0.074308  0.024785  0.017051      2.000000
 -0.074308 -0.058692  0.018403      2.000000
 -0.044585 -0.041997  0.018133      2.000000
 -0.014862 -0.025301  0.017863      2.000000
 


--------------------------------------------------------------------------------------------------------




 Dimension of arrays:
   k-points           NKPTS =     36   k-points in BZ     NKDIM =     36   number of bands    NBANDS=    160
   number of dos      NEDOS =    301   number of ions     NIONS =     42
   non local maximal  LDIM  =      6   non local SUM 2l+1 LMDIM =     18
   total plane-waves  NPLWV = 116640
   max r-space proj   IRMAX =   2850   max aug-charges    IRDMAX=  12014
   dimension x,y,z NGX =    36 NGY =   36 NGZ =   90
   dimension x,y,z NGXF=    72 NGYF=   72 NGZF=  180
   support grid    NGXF=    72 NGYF=   72 NGZF=  180
   ions per type =               6  12  24
   NGX,Y,Z   is equivalent  to a cutoff of  10.67, 10.62, 10.59 a.u.
   NGXF,Y,Z  is equivalent  to a cutoff of  21.35, 21.23, 21.18 a.u.

 SYSTEM =  LiCoO2                                  
 POSCAR =  Li6 Co12 O24                            

 Startparameter for this run:
   NWRITE =      2    write-flag & timer
   PREC   = normal    normal or accurate (medium, high low for compatibility)
   ISTART =      0    job   : 0-new  1-cont  2-samecut
   ICHARG =      2    charge: 1-file 2-atom 10-const
   ISPIN  =      2    spin polarized calculation?
   LNONCOLLINEAR =      F non collinear calculations
   LSORBIT =      F    spin-orbit coupling
   INIWAV =      1    electr: 0-lowe 1-rand  2-diag
   LASPH  =      F    aspherical Exc in radial PAW
   METAGGA=      F    non-selfconsistent MetaGGA calc.

 Electronic Relaxation 1
   ENCUT  =  600.0 eV  44.10 Ry    6.64 a.u.  11.20 11.26 28.21*2*pi/ulx,y,z
   ENINI  =  600.0     initial cutoff
   ENAUG  =  605.4 eV  augmentation charge cutoff
   NELM   =    600;   NELMIN=  2; NELMDL= -5     # of ELM steps 
   EDIFF  = 0.1E-05   stopping-criterion for ELM
   LREAL  =      T    real-space projection
   NLSPLINE    = F    spline interpolate recip. space projectors
   LCOMPAT=      F    compatible to vasp.4.4
   GGA_COMPAT  = T    GGA compatible to vasp.4.4-vasp.4.6
   LMAXPAW     = -100 max onsite density
   LMAXMIX     =    2 max onsite mixed and CHGCAR
   VOSKOWN=      0    Vosko Wilk Nusair interpolation
   ROPT   =   -0.00050  -0.00050  -0.00050
 Ionic relaxation
   EDIFFG = 0.1E-04   stopping-criterion for IOM
   NSW    =      0    number of steps for IOM
   NBLOCK =      1;   KBLOCK =      1    inner block; outer block 
   IBRION =     -1    ionic relax: 0-MD 1-quasi-New 2-CG
   NFREE  =      0    steps in history (QN), initial steepest desc. (CG)
   ISIF   =      2    stress and relaxation
   IWAVPR =     10    prediction:  0-non 1-charg 2-wave 3-comb
   ISYM   =      0    0-nonsym 1-usesym 2-fastsym
   LCORR  =      T    Harris-Foulkes like correction to forces

   POTIM  = 0.5000    time-step for ionic-motion
   TEIN   =    0.0    initial temperature
   TEBEG  =    0.0;   TEEND  =   0.0 temperature during run
   SMASS  =  -3.00    Nose mass-parameter (am)
   estimated Nose-frequenzy (Omega)   =  0.10E-29 period in steps =****** mass=  -0.719E-27a.u.
   SCALEE = 1.0000    scale energy and forces
   NPACO  =    256;   APACO  = 16.0  distance and # of slots for P.C.
   PSTRESS=    0.0 pullay stress

  Mass of Ions in am
   POMASS =   7.01 58.93 16.00
  Ionic Valenz
   ZVAL   =   1.00  9.00  6.00
  Atomic Wigner-Seitz radii
   RWIGS  =  -1.00 -1.00 -1.00
  virtual crystal weights 
   VCA    =   1.00  1.00  1.00
   NELECT =     258.0000    total number of electrons
   NUPDOWN=       6.0000    fix difference up-down

 DOS related values:
   EMIN   =  10.00;   EMAX   =-10.00  energy-range for DOS
   EFERMI =   0.00
   ISMEAR =     0;   SIGMA  =   0.05  broadening in eV -4-tet -1-fermi 0-gaus

 Electronic relaxation 2 (details)
   IALGO  =     58    algorithm
   LDIAG  =      T    sub-space diagonalisation (order eigenvalues)
   LSUBROT=      F    optimize rotation matrix (better conditioning)
   TURBO    =      0    0=normal 1=particle mesh
   IRESTART =      0    0=no restart 2=restart with 2 vectors
   NREBOOT  =      0    no. of reboots
   NMIN     =      0    reboot dimension
   EREF     =   0.00    reference energy to select bands
   IMIX   =      4    mixing-type and parameters
     AMIX     =   0.40;   BMIX     =  1.00
     AMIX_MAG =   1.60;   BMIX_MAG =  1.00
     AMIN     =   0.10
     WC   =   100.;   INIMIX=   1;  MIXPRE=   1;  MAXMIX= -45

 Intra band minimization:
   WEIMIN = 0.0000     energy-eigenvalue tresh-hold
   EBREAK =  0.16E-08  absolut break condition
   DEPER  =   0.30     relativ break condition  

   TIME   =   0.40     timestep for ELM

  volume/ion in A,a.u.               =       9.27        62.55
  Fermi-wavevector in a.u.,A,eV,Ry     =   1.427293  2.697192 27.717301  2.037164
  Thomas-Fermi vector in A             =   2.547478
 
 Write flags
   LWAVE        =      F    write WAVECAR
   LDOWNSAMPLE  =      F    k-point downsampling of WAVECAR
   LCHARG       =      F    write CHGCAR
   LVTOT        =      F    write LOCPOT, total local potential
   LVHAR        =      F    write LOCPOT, Hartree potential only
   LELF         =      F    write electronic localiz. function (ELF)
   LORBIT       =     11    0 simple, 1 ext, 2 COOP (PROOUT), +10 PAW based schemes


 Dipole corrections
   LMONO  =      F    monopole corrections only (constant potential shift)
   LDIPOL =      F    correct potential (dipole corrections)
   IDIPOL =      0    1-x, 2-y, 3-z, 4-all directions 
   EPSILON=  1.0000000 bulk dielectric constant

 LDA+U is selected, type is set to LDAUTYPE =  2
   angular momentum for each species LDAUL =    -1    2   -1
   U (eV)           for each species LDAUU =   0.0  5.1  0.0
   J (eV)           for each species LDAUJ =   0.0  0.0  0.0
 Exchange correlation treatment:
   GGA     =    --    GGA type
   LEXCH   =     8    internal setting for exchange type
   VOSKOWN=      0    Vosko Wilk Nusair interpolation
   LHFCALC =     F    Hartree Fock is set to
   LHFONE  =     F    Hartree Fock one center treatment
   AEXX    =    0.0000 exact exchange contribution

 Linear response parameters
   LEPSILON=     F    determine dielectric tensor
   LRPA    =     F    only Hartree local field effects (RPA)
   LNABLA  =     F    use nabla operator in PAW spheres
   LVEL    =     F    velocity operator in full k-point grid
   LINTERFAST=   F  fast interpolation
   KINTER  =     0    interpolate to denser k-point grid
   CSHIFT  =0.1000    complex shift for real part using Kramers Kronig
   OMEGAMAX=  -1.0    maximum frequency
   DEG_THRESHOLD= 0.2000000E-02 threshold for treating states as degnerate
   RTIME   =   -0.100 relaxation time in fs
  (WPLASMAI=    0.000 imaginary part of plasma frequency in eV, 0.658/RTIME)
   DFIELD  = 0.0000000 0.0000000 0.0000000 field for delta impulse in time
 
 Orbital magnetization related:
   ORBITALMAG=     F  switch on orbital magnetization
   LCHIMAG   =     F  perturbation theory with respect to B field
   DQ        =  0.001000  dq finite difference perturbation B field
   LLRAUG    =     F  two centre corrections for induced B field



--------------------------------------------------------------------------------------------------------


 Static calculation
 charge density and potential will be updated during run
 spin polarized calculation
 Conjugate gradient for all bands (Freysoldt, et al. PRB 79, 241103 (2009))
 preconditioned conjugated gradient                                        
 perform sub-space diagonalisation
    before iterative eigenvector-optimisation
 modified Broyden-mixing scheme, WC =      100.0
 initial mixing is a Kerker type mixing with AMIX =  0.4000 and BMIX =      1.0000
 Hartree-type preconditioning will be used
 using additional bands           31
 real space projection scheme for non local part
 use partial core corrections
 no Harris-corrections to forces 
 use gradient corrections 
 use of overlap-Matrix (Vanderbilt PP)
 Gauss-broadening in eV      SIGMA  =   0.05


--------------------------------------------------------------------------------------------------------


  energy-cutoff  :      600.00
  volume of cell :      389.32
      direct lattice vectors                 reciprocal lattice vectors
     5.607269764  0.000000000  0.000000000     0.178339913  0.100172998 -0.001622626
    -2.760946274  4.915365696  0.000000000     0.000000000  0.203443663 -0.000343295
     0.115130842  0.023835352 14.125306129     0.000000000  0.000000000  0.070794926

  length of vectors
     5.607269764  5.637698489 14.125795428     0.204554117  0.203443952  0.070794926


 
 k-points in units of 2pi/SCALE and weight: read from INCAR                         
   0.01486166  0.02530139  0.01753490       0.028
   0.04458498  0.04199689  0.01726447       0.028
   0.07430830  0.05869239  0.01699403       0.028
  -0.07430830 -0.02478511  0.01834622       0.028
  -0.04458498 -0.00808961  0.01807578       0.028
  -0.01486166  0.00860589  0.01780534       0.028
   0.01486166  0.05920867  0.01747769       0.028
   0.04458498  0.07590417  0.01720725       0.028
   0.07430830  0.09259966  0.01693681       0.028
  -0.07430830  0.00912217  0.01828900       0.028
  -0.04458498  0.02581767  0.01801856       0.028
  -0.01486166  0.04251317  0.01774813       0.028
   0.01486166  0.09311594  0.01742047       0.028
   0.04458498  0.10981144  0.01715004       0.028
   0.07430830  0.12650694  0.01687960       0.028
  -0.07430830  0.04302944  0.01823179       0.028
  -0.04458498  0.05972494  0.01796135       0.028
  -0.01486166  0.07642044  0.01769091       0.028
   0.01486166 -0.07642044  0.01770655       0.028
   0.04458498 -0.05972494  0.01743611       0.028
   0.07430830 -0.04302944  0.01716568       0.028
  -0.07430830 -0.12650694  0.01851787       0.028
  -0.04458498 -0.10981144  0.01824743       0.028
  -0.01486166 -0.09311594  0.01797699       0.028
   0.01486166 -0.04251317  0.01764934       0.028
   0.04458498 -0.02581767  0.01737890       0.028
   0.07430830 -0.00912217  0.01710846       0.028
  -0.07430830 -0.09259966  0.01846065       0.028
  -0.04458498 -0.07590417  0.01819021       0.028
  -0.01486166 -0.05920867  0.01791977       0.028
   0.01486166 -0.00860589  0.01759212       0.028
   0.04458498  0.00808961  0.01732168       0.028
   0.07430830  0.02478511  0.01705125       0.028
  -0.07430830 -0.05869239  0.01840343       0.028
  -0.04458498 -0.04199689  0.01813300       0.028
  -0.01486166 -0.02530139  0.01786256       0.028
 
 k-points in reciprocal lattice and weights: read from INCAR                         
   0.08333333  0.08333333  0.25000000       0.028
   0.25000000  0.08333333  0.25000000       0.028
   0.41666667  0.08333333  0.25000000       0.028
  -0.41666667  0.08333333  0.25000000       0.028
  -0.25000000  0.08333333  0.25000000       0.028
  -0.08333333  0.08333333  0.25000000       0.028
   0.08333333  0.25000000  0.25000000       0.028
   0.25000000  0.25000000  0.25000000       0.028
   0.41666667  0.25000000  0.25000000       0.028
  -0.41666667  0.25000000  0.25000000       0.028
  -0.25000000  0.25000000  0.25000000       0.028
  -0.08333333  0.25000000  0.25000000       0.028
   0.08333333  0.41666667  0.25000000       0.028
   0.25000000  0.41666667  0.25000000       0.028
   0.41666667  0.41666667  0.25000000       0.028
  -0.41666667  0.41666667  0.25000000       0.028
  -0.25000000  0.41666667  0.25000000       0.028
  -0.08333333  0.41666667  0.25000000       0.028
   0.08333333 -0.41666667  0.25000000       0.028
   0.25000000 -0.41666667  0.25000000       0.028
   0.41666667 -0.41666667  0.25000000       0.028
  -0.41666667 -0.41666667  0.25000000       0.028
  -0.25000000 -0.41666667  0.25000000       0.028
  -0.08333333 -0.41666667  0.25000000       0.028
   0.08333333 -0.25000000  0.25000000       0.028
   0.25000000 -0.25000000  0.25000000       0.028
   0.41666667 -0.25000000  0.25000000       0.028
  -0.41666667 -0.25000000  0.25000000       0.028
  -0.25000000 -0.25000000  0.25000000       0.028
  -0.08333333 -0.25000000  0.25000000       0.028
   0.08333333 -0.08333333  0.25000000       0.028
   0.25000000 -0.08333333  0.25000000       0.028
   0.41666667 -0.08333333  0.25000000       0.028
  -0.41666667 -0.08333333  0.25000000       0.028
  -0.25000000 -0.08333333  0.25000000       0.028
  -0.08333333 -0.08333333  0.25000000       0.028
 
 position of ions in fractional coordinates (direct lattice) 
   0.04608952  0.08731249  0.98790848
   0.52918478  0.02695776  0.99275797
   0.78611459  0.16485496  0.33343843
   0.80045382  0.63699637  0.32808140
   0.65355346  0.34131234  0.66015774
   0.61363607  0.83782634  0.66611583
   0.16047723  0.31004996  0.17373429
   0.16426686  0.80554593  0.17189504
   0.66058092  0.29136574  0.17162814
   0.66846583  0.80058666  0.17804570
   0.92962144  0.98503589  0.50631963
   0.93907098  0.49178563  0.50906720
   0.43213089  0.99179865  0.48864710
   0.45054900  0.50379007  0.50418730
   0.39059739  0.19604830  0.82570317
   0.40744085  0.71834263  0.82831547
   0.91775691  0.21309470  0.81943782
   0.89826890  0.69570940  0.82289258
   0.00974033  0.98274447  0.24466018
   0.00252995  0.48894381  0.24721022
   0.49394865  0.97654644  0.24657944
   0.49665465  0.46513634  0.24059443
   0.33863533  0.12942542  0.09803610
   0.32126637  0.62520440  0.10369545
   0.84145540  0.12676177  0.10192912
   0.85216092  0.62919801  0.10202115
   0.25686020  0.14312000  0.56902343
   0.26079492  0.66445842  0.56906164
   0.75389425  0.14845403  0.56991753
   0.76992073  0.67495213  0.58414733
   0.10412550  0.32126883  0.43868500
   0.08363068  0.82241076  0.43717283
   0.62519209  0.34003021  0.43285151
   0.61020702  0.82392596  0.42846858
   0.23521847  0.38222290  0.89466452
   0.22860984  0.88855362  0.90177232
   0.74321461  0.36650080  0.89927325
   0.75565074  0.89130587  0.89176899
   0.04832499  0.00540200  0.74709247
   0.07133236  0.54162084  0.75667100
   0.57881667  0.03974377  0.75999843
   0.57280217  0.52570043  0.75057558
 
 position of ions in cartesian coordinates  (Angst):
   0.13111000  0.45271999 13.95450974
   3.00714993  0.15617000 14.02301025
   3.99118996  0.81827003  4.70991993
   2.76742005  3.13889003  4.63425016
   2.79831004  1.69341004  9.32493019
   1.20431995  4.13409996  9.40909004
   0.06381000  1.52814996  2.45405006
  -1.28319001  3.96364999  2.42807007
   2.91936994  1.43625998  2.42429996
   1.55839002  3.93941998  2.51495004
   2.55130005  4.85387993  7.15191984
   3.96643996  2.42944002  7.19073009
  -0.25896999  4.88670015  6.90228987
   1.19345999  2.48832989  7.12179995
   1.74397004  0.98333001 11.66331005
   0.39669001  3.55065989 11.70020962
   4.65211010  1.06696999 11.57481003
   3.21076012  3.43928003 11.62360954
  -2.63052011  4.83638000  3.45589995
  -1.30729997  2.40922999  3.49191999
   0.10190000  4.80596018  3.48301005
   1.52836001  2.29204988  3.39846992
   1.55277002  0.63850999  1.38478994
   0.08721000  3.07557988  1.46473002
   4.38002014  0.62550998  1.43978000
   3.05286002  3.09517002  1.44107997
   1.11064994  0.71705002  8.03763008
  -0.30667001  3.27961993  8.03816986
   3.88302994  0.74329001  8.05025959
   2.52090001  3.33155990  8.25125980
  -0.25264001  1.58960998  6.19655991
  -1.75136006  4.05286980  6.17519999
   2.61665010  1.68168998  6.11416006
   1.19611001  4.06011009  6.05224991
   0.36664000  1.90008998 12.63741016
  -1.06754994  4.38906002 12.73781013
   3.25904989  1.82291996 12.70250988
   1.87896001  4.40234995 12.59650993
   0.34207001  0.04436000 10.55290985
  -1.00829005  2.68030000 10.68820953
   3.22335005  0.21347000 10.73521042
   1.84684002  2.60190010 10.60210991
 


--------------------------------------------------------------------------------------------------------


 k-point  1 :   0.0833 0.0833 0.2500  plane waves:   12993
 k-point  2 :   0.2500 0.0833 0.2500  plane waves:   12984
 k-point  3 :   0.4167 0.0833 0.2500  plane waves:   12999
 k-point  4 :  -0.4167 0.0833 0.2500  plane waves:   12994
 k-point  5 :  -0.2500 0.0833 0.2500  plane waves:   12990
 k-point  6 :  -0.0833 0.0833 0.2500  plane waves:   13006
 k-point  7 :   0.0833 0.2500 0.2500  plane waves:   12972
 k-point  8 :   0.2500 0.2500 0.2500  plane waves:   12976
 k-point  9 :   0.4167 0.2500 0.2500  plane waves:   13009
 k-point 10 :  -0.4167 0.2500 0.2500  plane waves:   12994
 k-point 11 :  -0.2500 0.2500 0.2500  plane waves:   13002
 k-point 12 :  -0.0833 0.2500 0.2500  plane waves:   12979
 k-point 13 :   0.0833 0.4167 0.2500  plane waves:   12988
 k-point 14 :   0.2500 0.4167 0.2500  plane waves:   12995
 k-point 15 :   0.4167 0.4167 0.2500  plane waves:   13005
 k-point 16 :  -0.4167 0.4167 0.2500  plane waves:   13006
 k-point 17 :  -0.2500 0.4167 0.2500  plane waves:   13000
 k-point 18 :  -0.0833 0.4167 0.2500  plane waves:   12985
 k-point 19 :   0.0833-0.4167 0.2500  plane waves:   12990
 k-point 20 :   0.2500-0.4167 0.2500  plane waves:   12990
 k-point 21 :   0.4167-0.4167 0.2500  plane waves:   13012
 k-point 22 :  -0.4167-0.4167 0.2500  plane waves:   13008
 k-point 23 :  -0.2500-0.4167 0.2500  plane waves:   13000
 k-point 24 :  -0.0833-0.4167 0.2500  plane waves:   12981
 k-point 25 :   0.0833-0.2500 0.2500  plane waves:   12999
 k-point 26 :   0.2500-0.2500 0.2500  plane waves:   12990
 k-point 27 :   0.4167-0.2500 0.2500  plane waves:   13008
 k-point 28 :  -0.4167-0.2500 0.2500  plane waves:   12994
 k-point 29 :  -0.2500-0.2500 0.2500  plane waves:   12987
 k-point 30 :  -0.0833-0.2500 0.2500  plane waves:   12948
 k-point 31 :   0.0833-0.0833 0.2500  plane waves:   12985
 k-point 32 :   0.2500-0.0833 0.2500  plane waves:   12982
 k-point 33 :   0.4167-0.0833 0.2500  plane waves:   12984
 k-point 34 :  -0.4167-0.0833 0.2500  plane waves:   13002
 k-point 35 :  -0.2500-0.0833 0.2500  plane waves:   12977
 k-point 36 :  -0.0833-0.0833 0.2500  plane waves:   13020

 maximum and minimum number of plane-waves per node :      3293     3219

 maximum number of plane-waves:     13020
 maximum index in each direction: 
   IXMAX=   11   IYMAX=   11   IZMAX=   27
   IXMIN=  -11   IYMIN=  -11   IZMIN=  -28


 real space projection operators:
  total allocation   :       7615.11 KBytes
  max/ min on nodes  :       1905.97       1900.75


 parallel 3D FFT for wavefunctions:
    minimum data exchange during FFTs selected (reduces bandwidth)
 parallel 3D FFT for charge:
    minimum data exchange during FFTs selected (reduces bandwidth)


 total amount of memory used by VASP MPI-rank0   157702. kBytes
=======================================================================

   base      :      30000. kBytes
   nonlr-proj:       4356. kBytes
   fftplans  :       1687. kBytes
   grid      :       4644. kBytes
   one-center:        342. kBytes
   wavefun   :     116673. kBytes
 
     INWAV:  cpu time    0.0000: real time    0.0002
 Broyden mixing: mesh for mixing (old mesh)
   NGX = 23   NGY = 23   NGZ = 57
  (NGX  = 72   NGY  = 72   NGZ  =180)
  gives a total of  30153 points

 initial charge density was supplied:
 charge density of overlapping atoms calculated
 number of electron     258.0000000 magnetization       6.0000000
 keeping initial charge density in first step


--------------------------------------------------------------------------------------------------------


 Maximum index for non-local projection operator          698
 Maximum index for augmentation-charges         1047 (set IRDMAX)


--------------------------------------------------------------------------------------------------------


 First call to EWALD:  gamma=   0.243
 Maximum number of real-space cells 4x 4x 2
 Maximum number of reciprocal cells 2x 2x 5

    FEWALD:  cpu time    0.0070: real time    0.0070


--------------------------------------- Iteration      1(   1)  ---------------------------------------


    POTLOK:  cpu time    0.0677: real time    0.0813
    SETDIJ:  cpu time    0.0173: real time    0.0187
    TRIAL :  cpu time   21.1223: real time   21.2846
    CORREC:  cpu time    0.0040: real time    0.0040
    --------------------------------------------
      LOOP:  cpu time   21.4175: real time   21.5985

 eigenvalue-minimisations  : 23040
 total energy-change (2. order) : 0.3475492E+04  (-0.1395684E+05)
 number of electron     258.0000000 magnetization       6.0000000
 augmentation part      258.0000000 magnetization       6.0000000

 Free energy of the ion-electron system (eV)
  ---------------------------------------------------
  alpha Z        PSCENC =       753.02527690
  Ewald energy   TEWEN  =    -14146.76116264
  -Hartree energ DENC   =     -6913.45796982
  -exchange      EXHF   =         0.00000000
  -V(xc)+E(xc)   XCENC  =       842.23669553
  PAW double counting   =     17015.18481625   -17491.61297812
  entropy T*S    EENTRO =        -0.00773443
  eigenvalues    EBANDS =      3248.01373297
  atomic energy  EATOM  =     20168.87094289
  ---------------------------------------------------
  free energy    TOTEN  =      3475.49161952 eV

  energy without entropy =     3475.49935395  energy(sigma->0) =     3475.49548673


--------------------------------------------------------------------------------------------------------




--------------------------------------- Iteration      1(   2)  ---------------------------------------


    TRIAL :  cpu time   21.9182: real time   22.0667
    CORREC:  cpu time    0.0045: real time    0.0045
    --------------------------------------------
      LOOP:  cpu time   22.0600: real time   22.2087

 eigenvalue-minimisations  : 24928
 total energy-change (2. order) :-0.3074587E+04  (-0.2832888E+04)
 number of electron     258.0000000 magnetization       6.0000000
 augmentation part      258.0000000 magnetization       6.0000000

 Free energy of the ion-electron system (eV)
  ---------------------------------------------------
  alpha Z        PSCENC =       753.02527690
  Ewald energy   TEWEN  =    -14146.76116264
  -Hartree energ DENC   =     -6913.45796982
  -exchange      EXHF   =         0.00000000
  -V(xc)+E(xc)   XCENC  =       842.23669553
  PAW double counting   =     17015.18481625   -17491.61297812
  entropy T*S    EENTRO =        -0.02073002
  eigenvalues    EBANDS =       173.43982244
  atomic energy  EATOM  =     20168.87094289
  ---------------------------------------------------
  free energy    TOTEN  =       400.90471339 eV

  energy without entropy =      400.92544341  energy(sigma->0) =      400.91507840


--------------------------------------------------------------------------------------------------------




--------------------------------------- Iteration      1(   3)  ---------------------------------------


    TRIAL :  cpu time   22.4162: real time   22.5265
    CORREC:  cpu time    0.0041: real time    0.0041
    --------------------------------------------
      LOOP:  cpu time   22.4246: real time   22.5349

 eigenvalue-minimisations  : 25696
 total energy-change (2. order) :-0.6225733E+03  (-0.5676147E+03)
 number of electron     258.0000000 magnetization       6.0000000
 augmentation part      258.0000000 magnetization       6.0000000

 Free energy of the ion-electron system (eV)
  ---------------------------------------------------
  alpha Z        PSCENC =       753.02527690
  Ewald energy   TEWEN  =    -14146.76116264
  -Hartree energ DENC   =     -6913.45796982
  -exchange      EXHF   =         0.00000000
  -V(xc)+E(xc)   XCENC  =       842.23669553
  PAW double counting   =     17015.18481625   -17491.61297812
  entropy T*S    EENTRO =        -0.04622409
  eigenvalues    EBANDS =      -449.10796205
  atomic energy  EATOM  =     20168.87094289
  ---------------------------------------------------
  free energy    TOTEN  =      -221.66856516 eV

  energy without entropy =     -221.62234107  energy(sigma->0) =     -221.64545312


--------------------------------------------------------------------------------------------------------




--------------------------------------- Iteration      1(   4)  ---------------------------------------


    TRIAL :  cpu time   22.2244: real time   22.3381
    CORREC:  cpu time    0.0036: real time    0.0036
    --------------------------------------------
      LOOP:  cpu time   22.2321: real time   22.3458

 eigenvalue-minimisations  : 25328
 total energy-change (2. order) :-0.4931086E+02  (-0.4822805E+02)
 number of electron     258.0000000 magnetization       6.0000000
 augmentation part      258.0000000 magnetization       6.0000000

 Free energy of the ion-electron system (eV)
  ---------------------------------------------------
  alpha Z        PSCENC =       753.02527690
  Ewald energy   TEWEN  =    -14146.76116264
  -Hartree energ DENC   =     -6913.45796982
  -exchange      EXHF   =         0.00000000
  -V(xc)+E(xc)   XCENC  =       842.23669553
  PAW double counting   =     17015.18481625   -17491.61297812
  entropy T*S    EENTRO =        -0.05439865
  eigenvalues    EBANDS =      -498.41064969
  atomic energy  EATOM  =     20168.87094289
  ---------------------------------------------------
  free energy    TOTEN  =      -270.97942736 eV

  energy without entropy =     -270.92502871  energy(sigma->0) =     -270.95222804


--------------------------------------------------------------------------------------------------------




--------------------------------------- Iteration      1(   5)  ---------------------------------------


    TRIAL :  cpu time   24.3362: real time   24.4554
    CORREC:  cpu time    0.0038: real time    0.0038
    CHARGE:  cpu time    0.4237: real time    0.4251
    --------------------------------------------
      LOOP:  cpu time   24.7679: real time   24.8885

 eigenvalue-minimisations  : 28240
 total energy-change (2. order) :-0.1686747E+01  (-0.1683654E+01)
 number of electron     258.0000025 magnetization       6.0000007
 augmentation part       67.8724066 magnetization       4.3334165

 Free energy of the ion-electron system (eV)
  ---------------------------------------------------
  alpha Z        PSCENC =       753.02527690
  Ewald energy   TEWEN  =    -14146.76116264
  -Hartree energ DENC   =     -6913.45796982
  -exchange      EXHF   =         0.00000000
  -V(xc)+E(xc)   XCENC  =       842.23669553
  PAW double counting   =     17015.18481625   -17491.61297812
  entropy T*S    EENTRO =        -0.05516939
  eigenvalues    EBANDS =      -500.09662624
  atomic energy  EATOM  =     20168.87094289
  ---------------------------------------------------
  free energy    TOTEN  =      -272.66617466 eV

  energy without entropy =     -272.61100527  energy(sigma->0) =     -272.63858996


--------------------------------------------------------------------------------------------------------




--------------------------------------- Iteration      1(   6)  ---------------------------------------


    POTLOK:  cpu time    0.0462: real time    0.0463
    SETDIJ:  cpu time    0.0126: real time    0.0126
    TRIAL :  cpu time   11.8197: real time   11.9597
    CORREC:  cpu time    4.3029: real time    4.3331
    CHARGE:  cpu time    0.4231: real time    0.4278
    --------------------------------------------
      LOOP:  cpu time   16.6089: real time   16.7840

 eigenvalue-minimisations  :     0
 total energy-change (2. order) : 0.3515272E+03  (-0.2262398E+03)
 number of electron     258.0000037 magnetization       6.0000002
 augmentation part       73.2705003 magnetization       4.5051729

 Free energy of the ion-electron system (eV)
  ---------------------------------------------------
  alpha Z        PSCENC =       753.02527690
  Ewald energy   TEWEN  =    -14146.76116264
  -Hartree energ DENC   =     -6583.79015195
  -exchange      EXHF   =         0.00000000
  -V(xc)+E(xc)   XCENC  =       875.02489849
  PAW double counting   =     23385.33498491   -23589.25446247
  entropy T*S    EENTRO =        -0.03059020
  eigenvalues    EBANDS =      -783.53411082
  atomic energy  EATOM  =     20168.87094289
  ---------------------------------------------------
  free energy    TOTEN  =        78.86104591 eV

  energy without entropy =       78.89163611  energy(sigma->0) =       78.87634101


--------------------------------------------------------------------------------------------------------




--------------------------------------- Iteration      1(   7)  ---------------------------------------


    POTLOK:  cpu time    0.0459: real time    0.0459
    SETDIJ:  cpu time    0.0127: real time    0.0127
    TRIAL :  cpu time   11.7850: real time   11.9407
    CORREC:  cpu time    4.0807: real time    4.2025
    CHARGE:  cpu time    0.4193: real time    0.4204
    --------------------------------------------
      LOOP:  cpu time   16.3479: real time   16.6265

 eigenvalue-minimisations  :     0
 total energy-change (2. order) :-0.1678720E+03  (-0.9474833E+02)
 number of electron     258.0000036 magnetization       6.0000005
 augmentation part       75.0398139 magnetization       4.2946186

 Free energy of the ion-electron system (eV)
  ---------------------------------------------------
  alpha Z        PSCENC =       753.02527690
  Ewald energy   TEWEN  =    -14146.76116264
  -Hartree energ DENC   =     -6593.15981249
  -exchange      EXHF   =         0.00000000
  -V(xc)+E(xc)   XCENC  =       860.12160044
  PAW double counting   =     23981.23730934   -24404.15763950
  entropy T*S    EENTRO =        -0.03313384
  eigenvalues    EBANDS =      -708.15688929
  atomic energy  EATOM  =     20168.87094289
  ---------------------------------------------------
  free energy    TOTEN  =       -89.01096456 eV

  energy without entropy =      -88.97783072  energy(sigma->0) =      -88.99439764


--------------------------------------------------------------------------------------------------------




--------------------------------------- Iteration      1(   8)  ---------------------------------------


    POTLOK:  cpu time    0.0455: real time    0.0457
    SETDIJ:  cpu time    0.0127: real time    0.0127
    TRIAL :  cpu time   12.3573: real time   12.4242
    CORREC:  cpu time    4.9139: real time    4.9332
    CHARGE:  cpu time    0.4309: real time    0.4324
    --------------------------------------------
      LOOP:  cpu time   17.7646: real time   17.8526

 eigenvalue-minimisations  :     0
 total energy-change (2. order) :-0.7436035E+02  (-0.6344147E+02)
 number of electron     258.0000035 magnetization       6.0000007
 augmentation part       76.7952155 magnetization       4.0750850

 Free energy of the ion-electron system (eV)
  ---------------------------------------------------
  alpha Z        PSCENC =       753.02527690
  Ewald energy   TEWEN  =    -14146.76116264
  -Hartree energ DENC   =     -6734.78761056
  -exchange      EXHF   =         0.00000000
  -V(xc)+E(xc)   XCENC  =       852.75347007
  PAW double counting   =     23796.92031906   -24289.73442586
  entropy T*S    EENTRO =        -0.02535936
  eigenvalues    EBANDS =      -563.62499383
  atomic energy  EATOM  =     20168.87094289
  ---------------------------------------------------
  free energy    TOTEN  =      -163.37131782 eV

  energy without entropy =     -163.34595846  energy(sigma->0) =     -163.35863814


--------------------------------------------------------------------------------------------------------




--------------------------------------- Iteration      1(   9)  ---------------------------------------


    POTLOK:  cpu time    0.0516: real time    0.0516
    SETDIJ:  cpu time    0.0127: real time    0.0127
    TRIAL :  cpu time   12.0899: real time   12.1421
    CORREC:  cpu time    4.1850: real time    4.2254
    CHARGE:  cpu time    0.4177: real time    0.4195
    --------------------------------------------
      LOOP:  cpu time   16.7612: real time   16.8559

 eigenvalue-minimisations  :     0
 total energy-change (2. order) : 0.1085495E+02  (-0.7451161E+02)
 number of electron     258.0000038 magnetization       6.0000005
 augmentation part       76.6275291 magnetization       3.9748516

 Free energy of the ion-electron system (eV)
  ---------------------------------------------------
  alpha Z        PSCENC =       753.02527690
  Ewald energy   TEWEN  =    -14146.76116264
  -Hartree energ DENC   =     -6894.00191304
  -exchange      EXHF   =         0.00000000
  -V(xc)+E(xc)   XCENC  =       849.29327136
  PAW double counting   =     23913.84937378   -24477.33268277
  entropy T*S    EENTRO =        -0.02910781
  eigenvalues    EBANDS =      -319.43411879
  atomic energy  EATOM  =     20168.87094289
  ---------------------------------------------------
  free energy    TOTEN  =      -152.51637167 eV

  energy without entropy =     -152.48726386  energy(sigma->0) =     -152.50181776


--------------------------------------------------------------------------------------------------------




--------------------------------------- Iteration      1(  10)  ---------------------------------------


    POTLOK:  cpu time    0.0452: real time    0.0453
    SETDIJ:  cpu time    0.0126: real time    0.0126
    TRIAL :  cpu time   11.8872: real time   11.9390
    CORREC:  cpu time    4.1894: real time    4.2291
    CHARGE:  cpu time    0.4217: real time    0.4223
    --------------------------------------------
      LOOP:  cpu time   16.5603: real time   16.6526

 eigenvalue-minimisations  :     0
 total energy-change (2. order) :-0.3831795E+02  (-0.1755698E+02)
 number of electron     258.0000034 magnetization       6.0000007
 augmentation part       76.1401048 magnetization       4.0081630

 Free energy of the ion-electron system (eV)
  ---------------------------------------------------
  alpha Z        PSCENC =       753.02527690
  Ewald energy   TEWEN  =    -14146.76116264
  -Hartree energ DENC   =     -6768.79597158
  -exchange      EXHF   =         0.00000000
  -V(xc)+E(xc)   XCENC  =       848.88217857
  PAW double counting   =     23832.33288840   -24384.45514005
  entropy T*S    EENTRO =        -0.03050357
  eigenvalues    EBANDS =      -493.90422901
  atomic energy  EATOM  =     20168.87094289
  ---------------------------------------------------
  free energy    TOTEN  =      -190.83432434 eV

  energy without entropy =     -190.80382077  energy(sigma->0) =     -190.81907255


--------------------------------------------------------------------------------------------------------




--------------------------------------- Iteration      1(  11)  ---------------------------------------


    POTLOK:  cpu time    0.0454: real time    0.0454
    SETDIJ:  cpu time    0.0127: real time    0.0127
    TRIAL :  cpu time   11.9179: real time   11.9803
    CORREC:  cpu time    4.1886: real time    4.2113
    CHARGE:  cpu time    0.4142: real time    0.4164
    --------------------------------------------
      LOOP:  cpu time   16.5818: real time   16.6692

 eigenvalue-minimisations  :     0
 total energy-change (2. order) :-0.4534567E+01  (-0.1794424E+02)
 number of electron     258.0000036 magnetization       6.0000005
 augmentation part       76.0290988 magnetization       3.9857933

 Free energy of the ion-electron system (eV)
  ---------------------------------------------------
  alpha Z        PSCENC =       753.02527690
  Ewald energy   TEWEN  =    -14146.76116264
  -Hartree energ DENC   =     -6798.73279739
  -exchange      EXHF   =         0.00000000
  -V(xc)+E(xc)   XCENC  =       849.20339133
  PAW double counting   =     23686.93625759   -24215.27378362
  entropy T*S    EENTRO =        -0.03002122
  eigenvalues    EBANDS =      -492.60651310
  atomic energy  EATOM  =     20168.87094289
  ---------------------------------------------------
  free energy    TOTEN  =      -195.36889162 eV

  energy without entropy =     -195.33887040  energy(sigma->0) =     -195.35388101


--------------------------------------------------------------------------------------------------------




--------------------------------------- Iteration      1(  12)  ---------------------------------------


    POTLOK:  cpu time    0.0457: real time    0.0459
    SETDIJ:  cpu time    0.0126: real time    0.0127
    TRIAL :  cpu time   11.8744: real time   11.9538
    CORREC:  cpu time    4.2076: real time    4.2210
    CHARGE:  cpu time    0.4217: real time    0.4226
    --------------------------------------------
      LOOP:  cpu time   16.5664: real time   16.6603

 eigenvalue-minimisations  :     0
 total energy-change (2. order) :-0.7736928E+01  (-0.1240938E+02)
 number of electron     258.0000033 magnetization       6.0000008
 augmentation part       75.8665960 magnetization       4.0087739

 Free energy of the ion-electron system (eV)
  ---------------------------------------------------
  alpha Z        PSCENC =       753.02527690
  Ewald energy   TEWEN  =    -14146.76116264
  -Hartree energ DENC   =     -6770.23733221
  -exchange      EXHF   =         0.00000000
  -V(xc)+E(xc)   XCENC  =       849.18903554
  PAW double counting   =     23650.82868576   -24172.40452330
  entropy T*S    EENTRO =        -0.02932140
  eigenvalues    EBANDS =      -535.58672099
  atomic energy  EATOM  =     20168.87094289
  ---------------------------------------------------
  free energy    TOTEN  =      -203.10581928 eV

  energy without entropy =     -203.07649788  energy(sigma->0) =     -203.09115858


--------------------------------------------------------------------------------------------------------




--------------------------------------- Iteration      1(  13)  ---------------------------------------


    POTLOK:  cpu time    0.0453: real time    0.0453
    SETDIJ:  cpu time    0.0127: real time    0.0127
    TRIAL :  cpu time   11.9955: real time   12.0222
    CORREC:  cpu time    4.3661: real time    4.3770
    CHARGE:  cpu time    0.4174: real time    0.4181
    --------------------------------------------
      LOOP:  cpu time   16.8386: real time   16.8769

 eigenvalue-minimisations  :     0
 total energy-change (2. order) : 0.2768546E+01  (-0.3179267E+02)
 number of electron     258.0000037 magnetization       6.0000004
 augmentation part       75.7675839 magnetization       3.9838518

 Free energy of the ion-electron system (eV)
  ---------------------------------------------------
  alpha Z        PSCENC =       753.02527690
  Ewald energy   TEWEN  =    -14146.76116264
  -Hartree energ DENC   =     -6812.32750594
  -exchange      EXHF   =         0.00000000
  -V(xc)+E(xc)   XCENC  =       849.33455342
  PAW double counting   =     23603.96122691   -24116.89912049
  entropy T*S    EENTRO =        -0.03221913
  eigenvalues    EBANDS =      -499.51216242
  atomic energy  EATOM  =     20168.87094289
  ---------------------------------------------------
  free energy    TOTEN  =      -200.33727279 eV

  energy without entropy =     -200.30505366  energy(sigma->0) =     -200.32116323


--------------------------------------------------------------------------------------------------------




--------------------------------------- Iteration      1(  14)  ---------------------------------------


    POTLOK:  cpu time    0.0453: real time    0.0454
    SETDIJ:  cpu time    0.0127: real time    0.0127
    TRIAL :  cpu time   11.8308: real time   11.8584
    CORREC:  cpu time    4.3392: real time    4.3475
    CHARGE:  cpu time    0.4169: real time    0.4176
    --------------------------------------------
      LOOP:  cpu time   16.6493: real time   16.6859

 eigenvalue-minimisations  :     0
 total energy-change (2. order) : 0.7673059E+01  (-0.3112771E+02)
 number of electron     258.0000034 magnetization       6.0000007
 augmentation part       75.7358077 magnetization       3.9821216

 Free energy of the ion-electron system (eV)
  ---------------------------------------------------
  alpha Z        PSCENC =       753.02527690
  Ewald energy   TEWEN  =    -14146.76116264
  -Hartree energ DENC   =     -6771.44404613
  -exchange      EXHF   =         0.00000000
  -V(xc)+E(xc)   XCENC  =       849.47078058
  PAW double counting   =     23589.02323171   -24095.72015996
  entropy T*S    EENTRO =        -0.03137713
  eigenvalues    EBANDS =      -539.09685811
  atomic energy  EATOM  =     20168.87094289
  ---------------------------------------------------
  free energy    TOTEN  =      -192.66421391 eV

  energy without entropy =     -192.63283677  energy(sigma->0) =     -192.64852534


--------------------------------------------------------------------------------------------------------




--------------------------------------- Iteration      1(  15)  ---------------------------------------


    POTLOK:  cpu time    0.0451: real time    0.0452
    SETDIJ:  cpu time    0.0126: real time    0.0126
    TRIAL :  cpu time   11.9011: real time   11.9287
    CORREC:  cpu time    4.2327: real time    4.2410
    CHARGE:  cpu time    0.4159: real time    0.4165
    --------------------------------------------
      LOOP:  cpu time   16.6117: real time   16.6482

 eigenvalue-minimisations  :     0
 total energy-change (2. order) :-0.1945311E+02  (-0.3898042E+01)
 number of electron     258.0000035 magnetization       6.0000006
 augmentation part       75.6640719 magnetization       3.9707841

 Free energy of the ion-electron system (eV)
  ---------------------------------------------------
  alpha Z        PSCENC =       753.02527690
  Ewald energy   TEWEN  =    -14146.76116264
  -Hartree energ DENC   =     -6800.67133754
  -exchange      EXHF   =         0.00000000
  -V(xc)+E(xc)   XCENC  =       849.30602706
  PAW double counting   =     23553.63903352   -24056.18772250
  entropy T*S    EENTRO =        -0.02783514
  eigenvalues    EBANDS =      -533.30700374
  atomic energy  EATOM  =     20168.87094289
  ---------------------------------------------------
  free energy    TOTEN  =      -212.11732319 eV

  energy without entropy =     -212.08948805  energy(sigma->0) =     -212.10340562


--------------------------------------------------------------------------------------------------------




--------------------------------------- Iteration      1(  16)  ---------------------------------------


    POTLOK:  cpu time    0.0454: real time    0.0454
    SETDIJ:  cpu time    0.0126: real time    0.0126
    TRIAL :  cpu time   12.1641: real time   12.2007
    CORREC:  cpu time    4.2828: real time    4.2919
    CHARGE:  cpu time    0.4288: real time    0.4295
    --------------------------------------------
      LOOP:  cpu time   16.9382: real time   16.9846

 eigenvalue-minimisations  :     0
 total energy-change (2. order) :-0.9597464E+00  (-0.5192626E+01)
 number of electron     258.0000033 magnetization       6.0000007
 augmentation part       75.4870394 magnetization       3.9580924

 Free energy of the ion-electron system (eV)
  ---------------------------------------------------
  alpha Z        PSCENC =       753.02527690
  Ewald energy   TEWEN  =    -14146.76116264
  -Hartree energ DENC   =     -6786.86963808
  -exchange      EXHF   =         0.00000000
  -V(xc)+E(xc)   XCENC  =       849.36097128
  PAW double counting   =     23531.48753253   -24027.73746881
  entropy T*S    EENTRO =        -0.02560600
  eigenvalues    EBANDS =      -554.42568849
  atomic energy  EATOM  =     20168.87094289
  ---------------------------------------------------
  free energy    TOTEN  =      -213.07706959 eV

  energy without entropy =     -213.05146359  energy(sigma->0) =     -213.06426659


--------------------------------------------------------------------------------------------------------




--------------------------------------- Iteration      1(  17)  ---------------------------------------


    POTLOK:  cpu time    0.0463: real time    0.0463
    SETDIJ:  cpu time    0.0127: real time    0.0128
    TRIAL :  cpu time   12.1212: real time   12.1910
    CORREC:  cpu time    4.2616: real time    4.2897
    CHARGE:  cpu time    0.4195: real time    0.4238
    --------------------------------------------
      LOOP:  cpu time   16.8657: real time   16.9679

 eigenvalue-minimisations  :     0
 total energy-change (2. order) :-0.4551052E+01  (-0.1598862E+01)
 number of electron     258.0000033 magnetization       6.0000007
 augmentation part       75.4964083 magnetization       3.9408283

 Free energy of the ion-electron system (eV)
  ---------------------------------------------------
  alpha Z        PSCENC =       753.02527690
  Ewald energy   TEWEN  =    -14146.76116264
  -Hartree energ DENC   =     -6830.35094944
  -exchange      EXHF   =         0.00000000
  -V(xc)+E(xc)   XCENC  =       849.43583474
  PAW double counting   =     23494.20745138   -23973.73229881
  entropy T*S    EENTRO =        -0.02487198
  eigenvalues    EBANDS =      -532.29761108
  atomic energy  EATOM  =     20168.87094289
  ---------------------------------------------------
  free energy    TOTEN  =      -217.62812208 eV

  energy without entropy =     -217.60325010  energy(sigma->0) =     -217.61568609


--------------------------------------------------------------------------------------------------------




--------------------------------------- Iteration      1(  18)  ---------------------------------------


    POTLOK:  cpu time    0.0460: real time    0.0462
    SETDIJ:  cpu time    0.0127: real time    0.0127
    TRIAL :  cpu time   12.2237: real time   12.3200
    CORREC:  cpu time    4.1799: real time    4.2071
    CHARGE:  cpu time    0.4139: real time    0.4184
    --------------------------------------------
      LOOP:  cpu time   16.8805: real time   17.0088

 eigenvalue-minimisations  :     0
 total energy-change (2. order) :-0.1167811E+01  (-0.1145110E+01)
 number of electron     258.0000033 magnetization       6.0000007
 augmentation part       75.5743251 magnetization       3.9233286

 Free energy of the ion-electron system (eV)
  ---------------------------------------------------
  alpha Z        PSCENC =       753.02527690
  Ewald energy   TEWEN  =    -14146.76116264
  -Hartree energ DENC   =     -6820.47638954
  -exchange      EXHF   =         0.00000000
  -V(xc)+E(xc)   XCENC  =       849.48141947
  PAW double counting   =     23495.65475304   -23971.90986608
  entropy T*S    EENTRO =        -0.02330930
  eigenvalues    EBANDS =      -546.65603508
  atomic energy  EATOM  =     20168.87094289
  ---------------------------------------------------
  free energy    TOTEN  =      -218.79593302 eV

  energy without entropy =     -218.77262372  energy(sigma->0) =     -218.78427837


--------------------------------------------------------------------------------------------------------




--------------------------------------- Iteration      1(  19)  ---------------------------------------


    POTLOK:  cpu time    0.0452: real time    0.0454
    SETDIJ:  cpu time    0.0126: real time    0.0127
    TRIAL :  cpu time   11.8627: real time   11.9595
    CORREC:  cpu time    4.2031: real time    4.2325
    CHARGE:  cpu time    0.4137: real time    0.4156
    --------------------------------------------
      LOOP:  cpu time   16.5417: real time   16.6701

 eigenvalue-minimisations  :     0
 total energy-change (2. order) :-0.1055476E+01  (-0.5892966E+00)
 number of electron     258.0000033 magnetization       6.0000007
 augmentation part       75.6404377 magnetization       3.9038025

 Free energy of the ion-electron system (eV)
  ---------------------------------------------------
  alpha Z        PSCENC =       753.02527690
  Ewald energy   TEWEN  =    -14146.76116264
  -Hartree energ DENC   =     -6848.57847518
  -exchange      EXHF   =         0.00000000
  -V(xc)+E(xc)   XCENC  =       849.66297210
  PAW double counting   =     23506.45004927   -23979.38926197
  entropy T*S    EENTRO =        -0.02254872
  eigenvalues    EBANDS =      -523.10844128
  atomic energy  EATOM  =     20168.87094289
  ---------------------------------------------------
  free energy    TOTEN  =      -219.85140923 eV

  energy without entropy =     -219.82886051  energy(sigma->0) =     -219.84013487


--------------------------------------------------------------------------------------------------------




--------------------------------------- Iteration      1(  20)  ---------------------------------------


    POTLOK:  cpu time    0.0473: real time    0.0480
    SETDIJ:  cpu time    0.0126: real time    0.0126
    TRIAL :  cpu time   14.5252: real time   14.6125
    CORREC:  cpu time    4.3201: real time    4.3458
    CHARGE:  cpu time    0.4128: real time    0.4151
    --------------------------------------------
      LOOP:  cpu time   19.3224: real time   19.4385

 eigenvalue-minimisations  :     0
 total energy-change (2. order) :-0.5265029E+00  (-0.4947699E+00)
 number of electron     258.0000033 magnetization       6.0000008
 augmentation part       75.7184442 magnetization       3.8830165

 Free energy of the ion-electron system (eV)
  ---------------------------------------------------
  alpha Z        PSCENC =       753.02527690
  Ewald energy   TEWEN  =    -14146.76116264
  -Hartree energ DENC   =     -6847.14696803
  -exchange      EXHF   =         0.00000000
  -V(xc)+E(xc)   XCENC  =       849.80941378
  PAW double counting   =     23510.40611479   -23981.56743424
  entropy T*S    EENTRO =        -0.02106281
  eigenvalues    EBANDS =      -526.99154685
  atomic energy  EATOM  =     20168.87094289
  ---------------------------------------------------
  free energy    TOTEN  =      -220.37791214 eV

  energy without entropy =     -220.35684933  energy(sigma->0) =     -220.36738073


--------------------------------------------------------------------------------------------------------




--------------------------------------- Iteration      1(  21)  ---------------------------------------


    POTLOK:  cpu time    0.0448: real time    0.0450
    SETDIJ:  cpu time    0.0126: real time    0.0126
    TRIAL :  cpu time   11.7308: real time   11.8103
    CORREC:  cpu time    4.2403: real time    4.2613
    CHARGE:  cpu time    0.4215: real time    0.4233
    --------------------------------------------
      LOOP:  cpu time   16.4543: real time   16.5569

 eigenvalue-minimisations  :     0
 total energy-change (2. order) :-0.4768200E+00  (-0.3689826E+00)
 number of electron     258.0000032 magnetization       6.0000008
 augmentation part       75.7879054 magnetization       3.8597087

 Free energy of the ion-electron system (eV)
  ---------------------------------------------------
  alpha Z        PSCENC =       753.02527690
  Ewald energy   TEWEN  =    -14146.76116264
  -Hartree energ DENC   =     -6863.82529704
  -exchange      EXHF   =         0.00000000
  -V(xc)+E(xc)   XCENC  =       850.07977201
  PAW double counting   =     23508.03428483   -23976.10262336
  entropy T*S    EENTRO =        -0.02013991
  eigenvalues    EBANDS =      -514.15486288
  atomic energy  EATOM  =     20168.87094289
  ---------------------------------------------------
  free energy    TOTEN  =      -220.85473211 eV

  energy without entropy =     -220.83459220  energy(sigma->0) =     -220.84466216


--------------------------------------------------------------------------------------------------------




--------------------------------------- Iteration      1(  22)  ---------------------------------------


    POTLOK:  cpu time    0.0463: real time    0.0466
    SETDIJ:  cpu time    0.0126: real time    0.0127
    TRIAL :  cpu time   12.0188: real time   12.0948
    CORREC:  cpu time    4.1941: real time    4.2162
    CHARGE:  cpu time    0.4117: real time    0.4138
    --------------------------------------------
      LOOP:  cpu time   16.6879: real time   16.7884

 eigenvalue-minimisations  :     0
 total energy-change (2. order) :-0.3334344E+00  (-0.2157823E+00)
 number of electron     258.0000032 magnetization       6.0000008
 augmentation part       75.8370569 magnetization       3.8487804

 Free energy of the ion-electron system (eV)
  ---------------------------------------------------
  alpha Z        PSCENC =       753.02527690
  Ewald energy   TEWEN  =    -14146.76116264
  -Hartree energ DENC   =     -6862.07821533
  -exchange      EXHF   =         0.00000000
  -V(xc)+E(xc)   XCENC  =       850.35587433
  PAW double counting   =     23500.20407871   -23965.31223075
  entropy T*S    EENTRO =        -0.01859668
  eigenvalues    EBANDS =      -519.47259070
  atomic energy  EATOM  =     20168.87094289
  ---------------------------------------------------
  free energy    TOTEN  =      -221.18816651 eV

  energy without entropy =     -221.16956983  energy(sigma->0) =     -221.17886817


--------------------------------------------------------------------------------------------------------




--------------------------------------- Iteration      1(  23)  ---------------------------------------


    POTLOK:  cpu time    0.0452: real time    0.0454
    SETDIJ:  cpu time    0.0126: real time    0.0127
    TRIAL :  cpu time   11.8715: real time   11.9543
    CORREC:  cpu time    4.2181: real time    4.2406
    CHARGE:  cpu time    0.4194: real time    0.4212
    --------------------------------------------
      LOOP:  cpu time   16.5713: real time   16.6797

 eigenvalue-minimisations  :     0
 total energy-change (2. order) :-0.2049520E+00  (-0.1487822E+00)
 number of electron     258.0000032 magnetization       6.0000009
 augmentation part       75.8977864 magnetization       3.8398000

 Free energy of the ion-electron system (eV)
  ---------------------------------------------------
  alpha Z        PSCENC =       753.02527690
  Ewald energy   TEWEN  =    -14146.76116264
  -Hartree energ DENC   =     -6869.68535442
  -exchange      EXHF   =         0.00000000
  -V(xc)+E(xc)   XCENC  =       850.61332134
  PAW double counting   =     23491.61116898   -23954.45066688
  entropy T*S    EENTRO =        -0.01783954
  eigenvalues    EBANDS =      -514.59804800
  atomic energy  EATOM  =     20168.87094289
  ---------------------------------------------------
  free energy    TOTEN  =      -221.39311852 eV

  energy without entropy =     -221.37527899  energy(sigma->0) =     -221.38419876


--------------------------------------------------------------------------------------------------------




--------------------------------------- Iteration      1(  24)  ---------------------------------------


    POTLOK:  cpu time    0.0453: real time    0.0455
    SETDIJ:  cpu time    0.0127: real time    0.0128
    TRIAL :  cpu time   11.8854: real time   11.9616
    CORREC:  cpu time    4.1856: real time    4.2080
    CHARGE:  cpu time    0.4214: real time    0.4235
    --------------------------------------------
      LOOP:  cpu time   16.5510: real time   16.6520

 eigenvalue-minimisations  :     0
 total energy-change (2. order) :-0.1439229E+00  (-0.1339418E+00)
 number of electron     258.0000031 magnetization       6.0000009
 augmentation part       75.9651686 magnetization       3.8443679

 Free energy of the ion-electron system (eV)
  ---------------------------------------------------
  alpha Z        PSCENC =       753.02527690
  Ewald energy   TEWEN  =    -14146.76116264
  -Hartree energ DENC   =     -6867.13115712
  -exchange      EXHF   =         0.00000000
  -V(xc)+E(xc)   XCENC  =       850.85436752
  PAW double counting   =     23484.61283219   -23946.47917288
  entropy T*S    EENTRO =        -0.01566336
  eigenvalues    EBANDS =      -518.51112872
  atomic energy  EATOM  =     20168.87094289
  ---------------------------------------------------
  free energy    TOTEN  =      -221.53704141 eV

  energy without entropy =     -221.52137804  energy(sigma->0) =     -221.52920973


--------------------------------------------------------------------------------------------------------




--------------------------------------- Iteration      1(  25)  ---------------------------------------


    POTLOK:  cpu time    0.0458: real time    0.0461
    SETDIJ:  cpu time    0.0127: real time    0.0127
    TRIAL :  cpu time   11.8796: real time   11.9546
    CORREC:  cpu time    4.1776: real time    4.2013
    CHARGE:  cpu time    0.4181: real time    0.4202
    --------------------------------------------
      LOOP:  cpu time   16.5381: real time   16.6392

 eigenvalue-minimisations  :     0
 total energy-change (2. order) :-0.1308272E+00  (-0.1430917E+00)
 number of electron     258.0000031 magnetization       6.0000010
[...]
   20        1.564   3.427   0.000   4.991
   21        1.572   3.404   0.000   4.977
   22        1.570   3.420   0.000   4.990
   23        1.563   3.418   0.000   4.980
   24        1.579   3.361   0.000   4.939
   25        1.561   3.442   0.000   5.003
   26        1.582   3.341   0.000   4.923
   27        1.579   3.361   0.000   4.940
   28        1.574   3.394   0.000   4.968
   29        1.564   3.460   0.000   5.024
   30        1.567   3.442   0.000   5.009
   31        1.572   3.386   0.000   4.958
   32        1.573   3.425   0.000   4.998
   33        1.562   3.452   0.000   5.014
   34        1.568   3.422   0.000   4.991
   35        1.569   3.415   0.000   4.983
   36        1.565   3.421   0.000   4.986
   37        1.575   3.349   0.000   4.924
   38        1.566   3.435   0.000   5.001
   39        1.584   3.334   0.000   4.919
   40        1.578   3.391   0.000   4.969
   41        1.562   3.494   0.000   5.056
   42        1.567   3.429   0.000   4.995
--------------------------------------------------
tot         43.517  91.260  87.337 222.114
 


 magnetization (x)
 
# of ion       s       p       d       tot
------------------------------------------
    1        0.001   0.000   0.000   0.001
    2        0.000  -0.002   0.000  -0.002
    3       -0.000  -0.002   0.000  -0.002
    4        0.001  -0.000   0.000   0.000
    5        0.000  -0.001   0.000  -0.001
    6        0.001   0.001   0.000   0.001
    7        0.003   0.004  -0.023  -0.016
    8        0.011   0.013   1.310   1.334
    9        0.004   0.005  -0.010  -0.001
   10        0.016   0.017   1.578   1.611
   11        0.010   0.014   1.242   1.266
   12        0.003   0.005  -0.027  -0.019
   13        0.013   0.017   1.493   1.524
   14        0.004   0.005   0.006   0.015
   15        0.004   0.004   0.012   0.020
   16        0.003   0.004   0.007   0.014
   17        0.012   0.016   1.323   1.350
   18        0.011   0.013   1.349   1.373
   19        0.001  -0.105   0.000  -0.104
   20       -0.000  -0.052   0.000  -0.052
   21        0.001  -0.102   0.000  -0.102
   22        0.000  -0.082   0.000  -0.082
   23       -0.000  -0.058   0.000  -0.059
   24        0.000  -0.170   0.000  -0.170
   25        0.000  -0.062   0.000  -0.062
   26        0.000  -0.167   0.000  -0.167
   27        0.000  -0.153   0.000  -0.153
   28       -0.000  -0.147   0.000  -0.147
   29       -0.000  -0.088   0.000  -0.088
   30        0.001  -0.028   0.000  -0.027
   31       -0.000  -0.074   0.000  -0.075
   32        0.000  -0.103   0.000  -0.103
   33        0.001  -0.039   0.000  -0.039
   34        0.001  -0.072   0.000  -0.071
   35        0.000  -0.057   0.000  -0.056
   36       -0.000  -0.055   0.000  -0.055
   37        0.001  -0.110   0.000  -0.110
   38        0.000  -0.082   0.000  -0.082
   39        0.001  -0.139   0.000  -0.138
   40        0.001  -0.104   0.000  -0.103
   41        0.000  -0.033   0.000  -0.033
   42       -0.000  -0.072   0.000  -0.072
--------------------------------------------------
tot          0.102  -2.040   8.260   6.322
 
    FORLOC:  cpu time    0.0084: real time    0.0084
    FORNL :  cpu time    4.0161: real time    4.0605
    STRESS:  cpu time   12.1728: real time   12.2157
    FORCOR:  cpu time    0.0486: real time    0.0486
    OFIELD:  cpu time    0.0004: real time    0.0004

  DFT-D2 method for vdW energy calculation
  -------------------------------------------------------------------

  Parameters of vdW forcefield:
         C6(Jnm^6/mol)     R0(A)
   -----------------------------
   Li       1.610          0.825
   Co      10.800          1.562
   O        0.700          1.342

  IVDW =   1
  VDW_RADIUS =    50.000 A
  VDW_S6 =     0.750
  VDW_SR =     1.000
  VDW_D =    20.000
  LVDW_EWALD = F

  Number of pair interactions contributing to vdW energy: 1214404
  Edisp (eV):   -9.63423
    FORVDW:  cpu time    0.1773: real time    0.1787

  FORCE on cell =-STRESS in cart. coord.  units (eV):
  Direction    XX          YY          ZZ          XY          YZ          ZX
  --------------------------------------------------------------------------------------
  Alpha Z   753.02528   753.02528   753.02528
  Ewald   -2022.78819 -1782.85299-10341.18896    51.00997   -60.03534     3.12490
  Hartree  4338.68646  4436.53111 -1913.27906    21.19640   -32.58903     5.92718
  E(xc)   -1284.34762 -1284.09702 -1285.07001     0.08981     0.10124    -0.09879
  Local   -7283.36878 -7607.86926  7264.63222   -70.05531    95.28711   -12.94926
  n-local  -598.79489  -592.49320  -602.11534     1.37147    -2.73547     0.65065
  augment  2025.56087  2021.53211  1999.84038    -0.95897    -1.59829     1.29963
  Kinetic  4073.60845  4054.82410  4132.07894    -5.08392    -5.78280     5.05483
  Fock        0.00000     0.00000     0.00000     0.00000     0.00000     0.00000
  vdW        -6.41634    -5.80779   -12.88954     0.22296    -0.60658    -0.21445
  -------------------------------------------------------------------------------------
  Total      -4.83476    -7.20766    -4.96610    -2.20760    -7.95916     2.79470
  in kB     -19.89666   -29.66196   -20.43718    -9.08501   -32.75463    11.50114
  external pressure =      -23.33 kB  Pullay stress =        0.00 kB


 VOLUME and BASIS-vectors are now :
 -----------------------------------------------------------------------------
  energy-cutoff  :      600.00
  volume of cell :      389.32
      direct lattice vectors                 reciprocal lattice vectors
     5.607269764  0.000000000  0.000000000     0.178339913  0.100172998 -0.001622626
    -2.760946274  4.915365696  0.000000000     0.000000000  0.203443663 -0.000343295
     0.115130842  0.023835352 14.125306129     0.000000000  0.000000000  0.070794926

  length of vectors
     5.607269764  5.637698489 14.125795428     0.204554117  0.203443952  0.070794926


 FORCES acting on ions:
    Electron-Ion                     Ewald-Force                    Non-Local-Force
 -----------------------------------------------------------------------------------------------
   -.505E+00 0.180E+01 -.164E+02   0.468E+00 -.160E+01 0.164E+02   0.445E+00 -.321E+00 0.640E+00
   -.555E+01 0.243E+01 -.102E+02   0.498E+01 -.222E+01 0.103E+02   0.696E+00 -.168E+00 0.347E+00
   -.440E+01 -.972E+00 0.288E+01   0.429E+01 0.104E+01 -.275E+01   0.634E+00 0.607E-01 0.525E+00
   0.451E+00 -.121E+01 -.124E+01   -.397E+00 0.957E+00 0.138E+01   0.759E-01 0.376E+00 0.619E+00
   0.570E-01 0.635E+01 -.683E+01   -.285E+00 -.603E+01 0.693E+01   0.254E+00 -.590E+00 -.218E+00
   0.560E+01 0.160E+01 -.297E+01   -.547E+01 -.155E+01 0.280E+01   0.145E-01 -.492E+00 -.583E+00
   -.188E+02 0.639E+01 0.854E+02   0.199E+02 -.606E+01 -.850E+02   0.512E+00 -.815E+00 -.176E+00
   -.118E+02 -.185E+02 0.951E+02   0.126E+02 0.185E+02 -.951E+02   0.101E+00 0.331E-01 0.309E+00
   -.613E+01 -.124E+02 0.115E+03   0.534E+01 0.136E+02 -.116E+03   0.113E+01 0.480E+00 0.646E+00
   0.787E+01 0.129E+02 0.944E+02   -.854E+01 -.131E+02 -.962E+02   0.299E+00 -.382E-01 -.122E+00
   0.144E+02 -.265E+02 0.248E+02   -.137E+02 0.278E+02 -.246E+02   -.644E+00 -.170E+00 -.551E+00
   0.550E+01 0.102E+02 -.759E+01   -.448E+01 -.101E+02 0.658E+01   -.156E+01 0.112E+00 0.415E-01
   0.407E+01 -.715E+01 0.124E+03   -.490E+01 0.714E+01 -.123E+03   0.367E+00 -.206E+00 0.904E+00
   0.120E+02 0.330E+02 0.206E+02   -.140E+02 -.346E+02 -.213E+02   0.312E+00 -.583E-01 0.552E+00
   0.927E+01 -.318E+02 -.119E+03   -.894E+01 0.330E+02 0.120E+03   0.121E+00 0.217E+00 -.641E+00
   -.126E+02 0.283E+02 -.162E+03   0.123E+02 -.300E+02 0.163E+03   0.455E+00 0.444E-01 -.890E+00
   -.163E+02 -.128E+02 -.883E+02   0.158E+02 0.129E+02 0.891E+02   0.101E-01 -.488E+00 0.203E+00
   0.105E+02 0.203E+02 -.167E+03   -.106E+02 -.203E+02 0.168E+03   0.129E+00 0.368E+00 0.430E+00
   -.936E+00 -.824E+01 -.242E+03   0.456E+01 0.120E+02 0.262E+03   -.428E+01 -.465E+01 -.198E+02
   -.166E+01 0.726E+01 -.247E+03   0.450E+01 -.610E+01 0.265E+03   -.323E+01 -.214E+01 -.187E+02
   0.235E+01 0.133E+02 -.239E+03   -.665E+01 -.163E+02 0.259E+03   0.471E+01 0.240E+01 -.210E+02
   0.899E+01 0.524E+01 -.235E+03   -.123E+02 -.998E+01 0.255E+03   0.339E+01 0.523E+01 -.201E+02
   0.122E+02 -.196E+02 0.361E+03   -.147E+02 0.227E+02 -.377E+03   0.185E+01 -.329E+01 0.168E+02
   -.350E+02 -.154E+02 0.376E+03   0.371E+02 0.153E+02 -.398E+03   -.165E+01 0.143E+01 0.231E+02
   0.627E+01 0.170E+02 0.367E+03   -.667E+01 -.164E+02 -.383E+03   -.502E+00 -.986E+00 0.167E+02
   0.390E+02 0.606E+01 0.375E+03   -.417E+02 -.836E+01 -.398E+03   0.138E+01 0.281E+01 0.239E+02
   -.266E+02 -.315E+02 -.285E+03   0.285E+02 0.315E+02 0.307E+03   -.667E+00 0.108E+01 -.220E+02
   -.247E+02 -.154E+02 -.293E+03   0.247E+02 0.183E+02 0.314E+03   0.181E+01 -.196E+01 -.212E+02
   0.221E+02 -.127E+01 -.285E+03   -.232E+02 0.528E+00 0.301E+03   0.829E+00 0.526E+00 -.156E+02
   -.186E+01 0.220E+02 -.279E+03   0.503E+01 -.216E+02 0.298E+03   -.306E+01 -.104E+01 -.199E+02
   -.188E+02 -.967E+01 0.336E+03   0.218E+02 0.116E+02 -.356E+03   -.334E+01 -.218E+01 0.200E+02
   -.128E+02 0.106E+02 0.350E+03   0.129E+02 -.132E+02 -.371E+03   0.384E+00 0.221E+01 0.208E+02
   0.158E+02 -.132E+01 0.333E+03   -.178E+02 0.346E+01 -.350E+03   0.171E+01 -.227E+01 0.166E+02
   0.330E+01 0.134E+02 0.346E+03   -.262E+01 -.169E+02 -.366E+03   -.288E+00 0.389E+01 0.200E+02
   -.162E+02 -.201E+02 -.392E+03   0.171E+02 0.240E+02 0.412E+03   -.816E+00 -.470E+01 -.209E+02
   -.450E+00 0.245E+02 -.390E+03   -.195E+01 -.288E+02 0.409E+03   0.275E+01 0.340E+01 -.195E+02
   0.186E+02 -.887E+01 -.392E+03   -.186E+02 0.109E+02 0.412E+03   -.400E+00 -.214E+01 -.213E+02
   0.663E+01 0.251E+02 -.400E+03   -.657E+01 -.275E+02 0.417E+03   -.464E+00 0.183E+01 -.170E+02
   -.206E+02 -.289E+02 0.220E+03   0.236E+02 0.300E+02 -.244E+03   -.269E+01 0.150E+00 0.252E+02
   -.310E+02 -.701E+01 0.227E+03   0.348E+02 0.989E+01 -.251E+03   -.360E+01 -.271E+01 0.242E+02
   0.208E+02 -.661E+00 0.216E+03   -.238E+02 0.166E+01 -.232E+03   0.238E+01 -.439E+00 0.156E+02
   0.385E+02 0.157E+02 0.188E+03   -.426E+02 -.161E+02 -.204E+03   0.334E+01 0.100E+01 0.176E+02
 -----------------------------------------------------------------------------------------------
   -.289E+01 0.421E+01 -.552E+01   0.000E+00 -.178E-13 -.512E-12   0.291E+01 -.421E+01 0.557E+01
 
 
 POSITION                                       TOTAL-FORCE (eV/Angst)
 -----------------------------------------------------------------------------------
      0.13111      0.45272     13.95451         0.376971     -0.085173      0.498572
      3.00715      0.15617     14.02301         0.116058     -0.029743      0.372450
      3.99119      0.81827      4.70992         0.465436      0.077714      0.497354
      2.76742      3.13889      4.63425         0.073436      0.025893      0.654579
      2.79831      1.69341      9.32493        -0.045220     -0.182733     -0.047183
      1.20432      4.13410      9.40909         0.220033     -0.285907     -0.726489
      0.06381      1.52815      2.45405         1.439910     -0.428358      0.147887
     -1.28319      3.96365      2.42807         0.724860     -0.065660      0.262324
      2.91937      1.43626      2.42430         0.271658      1.530028     -0.365106
      1.55839      3.93942      2.51495        -0.305821     -0.237227     -1.631212
      2.55130      4.85388      7.15192         0.092513      1.027009     -0.309927
      3.96644      2.42944      7.19073        -0.416996      0.118258     -1.062222
     -0.25897      4.88670      6.90229        -0.383231     -0.184843      2.182800
      1.19346      2.48833      7.12180        -1.475881     -1.487290     -0.052387
      1.74397      0.98333     11.66331         0.476837      1.256743     -0.148761
      0.39669      3.55066     11.70021         0.049215     -1.326698      0.439928
      4.65211      1.06697     11.57481        -0.532805     -0.464088      1.008050
      3.21076      3.43928     11.62361        -0.070920      0.387296      0.851881
     -2.63052      4.83638      3.45590        -0.694998     -0.742642     -0.129671
     -1.30730      2.40923      3.49192        -0.279368     -0.954430     -0.606767
      0.10190      4.80596      3.48301         0.387746     -0.612952     -0.962251
      1.52836      2.29205      3.39847         0.073198      0.470312     -0.092845
      1.55277      0.63851      1.38479        -0.646298     -0.155494      0.427116
      0.08721      3.07558      1.46473         0.439482      1.404358      0.334903
      4.38002      0.62551      1.43978        -0.938728     -0.397575      0.214217
      3.05286      3.09517      1.44108        -1.341066      0.525093      0.549151
      1.11065      0.71705      8.03763         1.247237      1.107127     -0.186832
     -0.30667      3.27962      8.03817         1.808025      0.951695      0.247624
      3.88303      0.74329      8.05026        -0.163404     -0.151072      0.023828
      2.52090      3.33156      8.25126         0.156756     -0.618720     -1.654375
     -0.25264      1.58961      6.19656        -0.293208     -0.209661     -0.150631
     -1.75136      4.05287      6.17520         0.549333     -0.417121     -0.635127
      2.61665      1.68169      6.11416        -0.330029     -0.187594     -0.150068
      1.19611      4.06011      6.05225         0.390343      0.267779      0.171861
      0.36664      1.90009     12.63741         0.105904     -0.700089     -0.648511
     -1.06755      4.38906     12.73781         0.329884     -0.941951     -0.959722
      3.25905      1.82292     12.70251        -0.447584     -0.030530     -1.180611
      1.87896      4.40235     12.59651        -0.480438     -0.643773      0.247620
      0.34207      0.04436     10.55291         0.257301      1.247395      1.158079
     -1.00829      2.68030     10.68821         0.161942      0.132921     -0.093470
      3.22335      0.21347     10.73521        -0.636776      0.488603     -0.309419
      1.84684      2.60190     10.60211        -0.731306      0.523098      1.813365
 -----------------------------------------------------------------------------------
    total drift:                                0.021094     -0.002880      0.051224


--------------------------------------------------------------------------------------------------------



  FREE ENERGIE OF THE ION-ELECTRON SYSTEM (eV)
  ---------------------------------------------------
  free  energy   TOTEN  =      -234.25477747 eV

  energy  without entropy=     -234.25477747  energy(sigma->0) =     -234.25477747
 


--------------------------------------------------------------------------------------------------------


    POTLOK:  cpu time    0.0650: real time    0.0650


--------------------------------------------------------------------------------------------------------


     LOOP+:  cpu time 1857.9076: real time 1864.6723
    4ORBIT:  cpu time    0.0000: real time    0.0000
 


 total charge     
 
# of ion       s       p       d       tot
------------------------------------------
    1        0.084   0.172   0.000   0.257
    2        0.077   0.153   0.000   0.230
    3        0.089   0.187   0.000   0.276
    4        0.093   0.195   0.000   0.288
    5        0.106   0.227   0.000   0.333
    6        0.110   0.237   0.000   0.347
    7        0.430   0.675   7.348   8.453
    8        0.461   0.739   7.206   8.407
    9        0.427   0.662   7.364   8.454
   10        0.428   0.642   7.165   8.235
   11        0.480   0.788   7.253   8.521
   12        0.446   0.708   7.403   8.557
   13        0.445   0.689   7.186   8.320
   14        0.413   0.628   7.328   8.369
   15        0.414   0.633   7.341   8.389
   16        0.412   0.627   7.319   8.358
   17        0.465   0.746   7.230   8.441
   18        0.452   0.715   7.192   8.359
   19        1.570   3.410   0.000   4.980
   20        1.564   3.427   0.000   4.991
   21        1.572   3.404   0.000   4.977
   22        1.570   3.420   0.000   4.990
   23        1.563   3.418   0.000   4.980
   24        1.579   3.361   0.000   4.939
   25        1.561   3.442   0.000   5.003
   26        1.582   3.341   0.000   4.923
   27        1.579   3.361   0.000   4.940
   28        1.574   3.394   0.000   4.968
   29        1.564   3.460   0.000   5.024
   30        1.567   3.442   0.000   5.009
   31        1.572   3.386   0.000   4.958
   32        1.573   3.425   0.000   4.998
   33        1.562   3.452   0.000   5.014
   34        1.568   3.422   0.000   4.991
   35        1.569   3.415   0.000   4.983
   36        1.565   3.421   0.000   4.986
   37        1.575   3.349   0.000   4.924
   38        1.566   3.435   0.000   5.001
   39        1.584   3.334   0.000   4.919
   40        1.578   3.391   0.000   4.969
   41        1.562   3.494   0.000   5.056
   42        1.567   3.429   0.000   4.995
--------------------------------------------------
tot         43.517  91.260  87.337 222.114
 


 magnetization (x)
 
# of ion       s       p       d       tot
------------------------------------------
    1        0.001   0.000   0.000   0.001
    2        0.000  -0.002   0.000  -0.002
    3       -0.000  -0.002   0.000  -0.002
    4        0.001  -0.000   0.000   0.000
    5        0.000  -0.001   0.000  -0.001
    6        0.001   0.001   0.000   0.001
    7        0.003   0.004  -0.023  -0.016
    8        0.011   0.013   1.310   1.334
    9        0.004   0.005  -0.010  -0.001
   10        0.016   0.017   1.578   1.611
   11        0.010   0.014   1.242   1.266
   12        0.003   0.005  -0.027  -0.019
   13        0.013   0.017   1.493   1.524
   14        0.004   0.005   0.006   0.015
   15        0.004   0.004   0.012   0.020
   16        0.003   0.004   0.007   0.014
   17        0.012   0.016   1.323   1.350
   18        0.011   0.013   1.349   1.373
   19        0.001  -0.105   0.000  -0.104
   20       -0.000  -0.052   0.000  -0.052
   21        0.001  -0.102   0.000  -0.102
   22        0.000  -0.082   0.000  -0.082
   23       -0.000  -0.058   0.000  -0.059
   24        0.000  -0.170   0.000  -0.170
   25        0.000  -0.062   0.000  -0.062
   26        0.000  -0.167   0.000  -0.167
   27        0.000  -0.153   0.000  -0.153
   28       -0.000  -0.147   0.000  -0.147
   29       -0.000  -0.088   0.000  -0.088
   30        0.001  -0.028   0.000  -0.027
   31       -0.000  -0.074   0.000  -0.075
   32        0.000  -0.103   0.000  -0.103
   33        0.001  -0.039   0.000  -0.039
   34        0.001  -0.072   0.000  -0.071
   35        0.000  -0.057   0.000  -0.056
   36       -0.000  -0.055   0.000  -0.055
   37        0.001  -0.110   0.000  -0.110
   38        0.000  -0.082   0.000  -0.082
   39        0.001  -0.139   0.000  -0.138
   40        0.001  -0.104   0.000  -0.103
   41        0.000  -0.033   0.000  -0.033
   42       -0.000  -0.072   0.000  -0.072
--------------------------------------------------
tot          0.102  -2.040   8.260   6.322
 

 total amount of memory used by VASP MPI-rank0   157702. kBytes
=======================================================================

   base      :      30000. kBytes
   nonlr-proj:       4356. kBytes
   fftplans  :       1687. kBytes
   grid      :       4644. kBytes
   one-center:        342. kBytes
   wavefun   :     116673. kBytes
 
  
  
 General timing and accounting informations for this job:
 ========================================================
  
                  Total CPU time used (sec):     1883.306
                            User time (sec):     1705.082
                          System time (sec):      178.223
                         Elapsed time (sec):     1890.633
  
                   Maximum memory used (kb):      641756.
                   Average memory used (kb):           0.
  
                          Minor page faults:        70611
                          Major page faults:           74
                 Voluntary context switches:          611
