       N       E                     dE             d eps       ncg     rms          ort
DAV:   1     0.346099280345E+04    0.34610E+04   -0.13912E+05  5760   0.217E+03
DAV:   2     0.409557541469E+03   -0.30514E+04   -0.28185E+04  5760   0.528E+02
DAV:   3    -0.218115549078E+03   -0.62767E+03   -0.57273E+03  5760   0.252E+02
DAV:   4    -0.269240816957E+03   -0.51125E+02   -0.50020E+02  5760   0.743E+01
DAV:   5    -0.271090732909E+03   -0.18499E+01   -0.18461E+01  5760   0.140E+01
SDA:   6     0.173465564016E+03    0.44456E+03   -0.18461E+01  5760   0.156E+05 0.000E+00
CGA:   7     0.145044285094E+04    0.12770E+04   -0.10382E+04  5760   0.176E+06-0.286E+05
CGA:   8     0.871976484607E+04    0.72693E+04   -0.14290E+05  5760   0.217E+06-0.734E+05
CGA:   9     0.694197223326E+04   -0.17778E+04   -0.11385E+05  5760   0.236E+06-0.209E+05
CGA:  10     0.979105374114E+04    0.28491E+04   -0.18392E+05  5760   0.666E+05-0.140E+05
CGA:  11     0.485675781953E+04   -0.49343E+04   -0.62997E+04  5760   0.104E+06-0.248E+05
CGA:  12     0.412757230828E+04   -0.72919E+03   -0.45860E+04  5760   0.751E+05-0.239E+05
CGA:  13     0.264424015711E+04   -0.14833E+04   -0.47067E+04  5760   0.372E+05-0.962E+04
CGA:  14     0.161993260565E+04   -0.10243E+04   -0.20148E+04  5760   0.753E+04-0.461E+04
CGA:  15     0.124754553121E+04   -0.37239E+03   -0.45874E+03  5760   0.670E+04-0.526E+03
CGA:  16     0.945048484835E+03   -0.30250E+03   -0.41470E+03  5760   0.437E+04-0.602E+03
CGA:  17     0.668135715366E+03   -0.27691E+03   -0.31512E+03  5760   0.338E+04-0.499E+02
CGA:  18     0.482767338639E+03   -0.18537E+03   -0.22485E+03  5760   0.244E+04-0.116E+03
CGA:  19     0.333597936832E+03   -0.14917E+03   -0.15868E+03  5760   0.132E+04-0.773E+01
CGA:  20     0.194698326593E+03   -0.13890E+03   -0.14759E+03  5760   0.208E+04 0.975E+02
CGA:  21     0.106385139250E+03   -0.88313E+02   -0.63576E+02  5760   0.541E+03 0.135E+04
CGA:  22     0.707713444786E+02   -0.35614E+02   -0.35510E+02  5760   0.577E+03 0.157E+01
CGA:  23     0.812021283973E+01   -0.62651E+02   -0.63169E+02  5760   0.841E+03 0.210E+02
CGA:  24    -0.625286555216E+02   -0.70649E+02   -0.54572E+02  5760   0.435E+03 0.181E+03
CGA:  25    -0.111089223314E+03   -0.48561E+02   -0.46924E+02  5760   0.511E+03-0.586E+01
CGA:  26    -0.134531924912E+03   -0.23443E+02   -0.26169E+02  5760   0.272E+03-0.445E+02
CGA:  27    -0.157317323371E+03   -0.22785E+02   -0.22565E+02  5760   0.307E+03-0.720E+01
CGA:  28    -0.171520412059E+03   -0.14203E+02   -0.14372E+02  5760   0.135E+03-0.145E+02
CGA:  29    -0.184812196647E+03   -0.13292E+02   -0.13196E+02  5760   0.167E+03-0.723E+01
CGA:  30    -0.192390025425E+03   -0.75778E+01   -0.76114E+01  5760   0.514E+02-0.628E+01
CGA:  31    -0.196630925526E+03   -0.42409E+01   -0.42170E+01  5760   0.733E+02-0.933E+00
CGA:  32    -0.201858893359E+03   -0.52280E+01   -0.52527E+01  5760   0.433E+02-0.102E+01
CGA:  33    -0.204933257390E+03   -0.30744E+01   -0.30632E+01  5760   0.409E+02-0.956E+00
CGA:  34    -0.208212735926E+03   -0.32795E+01   -0.32299E+01  5760   0.270E+02-0.118E+01
CGA:  35    -0.210315577340E+03   -0.21028E+01   -0.20049E+01  5760   0.343E+02-0.405E+00
CGA:  36    -0.212426425272E+03   -0.21108E+01   -0.20324E+01  5760   0.263E+02 0.231E+01
CGA:  37    -0.213523601818E+03   -0.10972E+01   -0.10822E+01  5760   0.182E+02 0.269E+01
CGA:  38    -0.214984111112E+03   -0.14605E+01   -0.15067E+01  5760   0.289E+02 0.138E+01
CGA:  39    -0.216033690559E+03   -0.10496E+01   -0.10584E+01  5760   0.105E+02 0.174E+01
CGA:  40    -0.216514434755E+03   -0.48074E+00   -0.49680E+00  5760   0.116E+02 0.422E+00
CGA:  41    -0.217228105864E+03   -0.71367E+00   -0.72737E+00  5760   0.118E+02 0.663E+00
CGA:  42    -0.217655501651E+03   -0.42740E+00   -0.49940E+00  5760   0.725E+01-0.192E+00
CGA:  43    -0.218154098945E+03   -0.49860E+00   -0.51250E+00  5760   0.641E+01 0.708E+00
CGA:  44    -0.218502444539E+03   -0.34835E+00   -0.36603E+00  5760   0.469E+01 0.377E+00
CGA:  45    -0.218894850069E+03   -0.39241E+00   -0.39458E+00  5760   0.511E+01 0.462E+00
CGA:  46    -0.219236571790E+03   -0.34172E+00   -0.35078E+00  5760   0.408E+01 0.409E+00
CGA:  47    -0.219547973506E+03   -0.31140E+00   -0.31590E+00  5760   0.446E+01 0.365E+00
CGA:  48    -0.219841340470E+03   -0.29337E+00   -0.30113E+00  5760   0.369E+01 0.308E+00
CGA:  49    -0.220102392114E+03   -0.26105E+00   -0.26823E+00  5760   0.287E+01 0.321E+00
CGA:  50    -0.220358575208E+03   -0.25618E+00   -0.25589E+00  5760   0.287E+01 0.203E+00
CGA:  51    -0.220597302521E+03   -0.23873E+00   -0.23973E+00  5760   0.224E+01 0.199E+00
SDA:  52    -0.220818695191E+03   -0.22139E+00   -0.21921E+00  5760   0.187E+01 0.165E+00
CGA:  53    -0.221140550428E+03   -0.32186E+00   -0.33265E+00  5760   0.249E+01-0.137E+00
CGA:  54    -0.221474364295E+03   -0.33381E+00   -0.32026E+00  5760   0.208E+01 0.202E+00
CGA:  55    -0.221805147332E+03   -0.33078E+00   -0.32366E+00  5760   0.538E+00 0.752E-01
CGA:  56    -0.221957640767E+03   -0.15249E+00   -0.15875E+00  5760   0.130E+01-0.577E-01
CGA:  57    -0.222051229433E+03   -0.93589E-01   -0.92348E-01  5760   0.441E+00-0.179E-01
CGA:  58    -0.222116779088E+03   -0.65550E-01   -0.62796E-01  5760   0.316E+00 0.344E-01
CGA:  59    -0.222154498728E+03   -0.37720E-01   -0.37728E-01  5760   0.547E+00-0.412E-01
CGA:  60    -0.222228832451E+03   -0.74334E-01   -0.70538E-01  5760   0.567E+00 0.922E-01
CGA:  61    -0.222281259747E+03   -0.52427E-01   -0.58543E-01  5760   0.365E+00 0.119E+00
CGA:  62    -0.222364010807E+03   -0.82751E-01   -0.14402E+00  5760   0.941E+00-0.294E+00
CGA:  63    -0.222471130310E+03   -0.10712E+00   -0.10716E+00  5760   0.162E+00 0.138E-01
CGA:  64    -0.222529821633E+03   -0.58691E-01   -0.58982E-01  5760   0.159E+00-0.139E-02
CGA:  65    -0.222572939083E+03   -0.43117E-01   -0.42606E-01  5760   0.940E-01 0.336E-02
CGA:  66    -0.222600754644E+03   -0.27816E-01   -0.27657E-01  5760   0.715E-01 0.983E-03
CGA:  67    -0.222621185593E+03   -0.20431E-01   -0.20562E-01  5760   0.460E-01-0.146E-02
CGA:  68    -0.222635971735E+03   -0.14786E-01   -0.14795E-01  5760   0.454E-01 0.232E-04
CGA:  69    -0.222650722990E+03   -0.14751E-01   -0.14732E-01  5760   0.362E-01 0.108E-03
CGA:  70    -0.222664410566E+03   -0.13688E-01   -0.13730E-01  5760   0.297E-01-0.218E-03
CGA:  71    -0.222673363172E+03   -0.89526E-02   -0.89764E-02  5760   0.256E-01-0.228E-02
CGA:  72    -0.222682071037E+03   -0.87079E-02   -0.88188E-02  5760   0.154E-01-0.529E-03
CGA:  73    -0.222685338875E+03   -0.32678E-02   -0.32662E-02  5760   0.810E-02 0.363E-05
CGA:  74    -0.222687638543E+03   -0.22997E-02   -0.22990E-02  5760   0.556E-02-0.729E-04
CGA:  75    -0.222689507765E+03   -0.18692E-02   -0.18076E-02  5760   0.386E-02 0.327E-03
CGA:  76    -0.222690968504E+03   -0.14607E-02   -0.14614E-02  5760   0.326E-02 0.115E-04
CGA:  77    -0.222692202960E+03   -0.12345E-02   -0.12288E-02  5760   0.387E-02-0.873E-06
CGA:  78    -0.222693532128E+03   -0.13292E-02   -0.12675E-02  5760   0.322E-02 0.357E-03
CGA:  79    -0.222694821806E+03   -0.12897E-02   -0.12873E-02  5760   0.471E-02 0.809E-05
CGA:  80    -0.222697515632E+03   -0.26938E-02   -0.26879E-02  5760   0.640E-02 0.209E-04
CGA:  81    -0.222699632046E+03   -0.21164E-02   -0.21199E-02  5760   0.661E-02-0.368E-04
CGA:  82    -0.222702087947E+03   -0.24559E-02   -0.24562E-02  5760   0.672E-02-0.723E-05
CGA:  83    -0.222704004254E+03   -0.19163E-02   -0.19172E-02  5760   0.369E-02 0.380E-05
CGA:  84    -0.222705164120E+03   -0.11599E-02   -0.11567E-02  5760   0.233E-02-0.306E-05
CGA:  85    -0.222705994417E+03   -0.83030E-03   -0.82852E-03  5760   0.215E-02 0.130E-04
CGA:  86    -0.222706684986E+03   -0.69057E-03   -0.69022E-03  5760   0.171E-02 0.514E-05
CGA:  87    -0.222707321430E+03   -0.63644E-03   -0.63757E-03  5760   0.189E-02-0.117E-04
CGA:  88    -0.222708018403E+03   -0.69697E-03   -0.69497E-03  5760   0.146E-02 0.167E-04
CGA:  89    -0.222708456161E+03   -0.43776E-03   -0.43758E-03  5760   0.118E-02 0.984E-05
CGA:  90    -0.222708839611E+03   -0.38345E-03   -0.38292E-03  5760   0.869E-03 0.124E-04
CGA:  91    -0.222709072637E+03   -0.23303E-03   -0.23345E-03  5760   0.610E-03 0.738E-05
CGA:  92    -0.222709300987E+03   -0.22835E-03   -0.22868E-03  5760   0.471E-03-0.294E-05
SDA:  93    -0.222709459669E+03   -0.15868E-03   -0.15915E-03  5760   0.409E-03-0.372E-05
CGA:  94    -0.222709564672E+03   -0.10500E-03   -0.10495E-03  5760   0.302E-03 0.219E-05
CGA:  95    -0.222709661989E+03   -0.97317E-04   -0.97433E-04  5760   0.248E-03-0.164E-05
CGA:  96    -0.222709733859E+03   -0.71870E-04   -0.71871E-04  5760   0.216E-03-0.493E-06
CGA:  97    -0.222709811731E+03   -0.77872E-04   -0.78296E-04  5760   0.205E-03-0.318E-05
CGA:  98    -0.222709880485E+03   -0.68754E-04   -0.68863E-04  5760   0.216E-03-0.245E-05
CGA:  99    -0.222709961479E+03   -0.80994E-04   -0.80965E-04  5760   0.220E-03 0.568E-06
CGA: 100    -0.222710041229E+03   -0.79750E-04   -0.79765E-04  5760   0.165E-03-0.216E-06
CGA: 101    -0.222710118543E+03   -0.77314E-04   -0.77396E-04  5760   0.163E-03-0.622E-06
CGA: 102    -0.222710179355E+03   -0.60812E-04   -0.60799E-04  5760   0.143E-03 0.106E-05
CGA: 103    -0.222710239723E+03   -0.60368E-04   -0.60325E-04  5760   0.149E-03 0.453E-06
CGA: 104    -0.222710294231E+03   -0.54508E-04   -0.54432E-04  5760   0.151E-03 0.239E-05
CGA: 105    -0.222710336559E+03   -0.42328E-04   -0.42075E-04  5760   0.118E-03 0.156E-06
CGA: 106    -0.222710372788E+03   -0.36229E-04   -0.36230E-04  5760   0.994E-04-0.318E-06
CGA: 107    -0.222710406353E+03   -0.33565E-04   -0.33574E-04  5760   0.606E-04-0.249E-06
CGA: 108    -0.222710426426E+03   -0.20073E-04   -0.20071E-04  5760   0.419E-04 0.200E-06
CGA: 109    -0.222710444971E+03   -0.18545E-04   -0.18624E-04  5760   0.371E-04-0.518E-06
CGA: 110    -0.222710457261E+03   -0.12290E-04   -0.12297E-04  5760   0.327E-04-0.541E-06
CGA: 111    -0.222710466601E+03   -0.93403E-05   -0.93532E-05  5760   0.241E-04 0.335E-06
CGA: 112    -0.222710477572E+03   -0.10971E-04   -0.11072E-04  5760   0.295E-04-0.664E-06
CGA: 113    -0.222710486661E+03   -0.90892E-05   -0.90883E-05  5760   0.289E-04-0.532E-06
CGA: 114    -0.222710495721E+03   -0.90599E-05   -0.90710E-05  5760   0.318E-04 0.614E-06
CGA: 115    -0.222710509169E+03   -0.13447E-04   -0.13444E-04  5760   0.301E-04 0.562E-07
CGA: 116    -0.222710520978E+03   -0.11809E-04   -0.11831E-04  5760   0.261E-04-0.417E-06
CGA: 117    -0.222710532534E+03   -0.11556E-04   -0.11486E-04  5760   0.234E-04 0.584E-06
CGA: 118    -0.222710540302E+03   -0.77683E-05   -0.77668E-05  5760   0.205E-04-0.521E-07
CGA: 119    -0.222710545834E+03   -0.55325E-05   -0.55032E-05  5760   0.151E-04-0.116E-06
CGA: 120    -0.222710550334E+03   -0.45000E-05   -0.45198E-05  5760   0.135E-04 0.508E-06
CGA: 121    -0.222710554529E+03   -0.41944E-05   -0.42153E-05  5760   0.783E-05 0.551E-06
CGA: 122    -0.222710558404E+03   -0.38753E-05   -0.38315E-05  5760   0.908E-05 0.311E-06
CGA: 123    -0.222710561471E+03   -0.30671E-05   -0.30678E-05  5760   0.637E-05 0.222E-07
SDA: 124    -0.222710563732E+03   -0.22608E-05   -0.22594E-05  5760   0.844E-05 0.206E-06
CGA: 125    -0.222710564944E+03   -0.12118E-05   -0.11647E-05  5760   0.324E-05-0.682E-07
CGA: 126    -0.222710566468E+03   -0.15238E-05   -0.15748E-05  5760   0.473E-05-0.324E-06
CGA: 127    -0.222710568080E+03   -0.16122E-05   -0.16183E-05  5760   0.338E-05-0.149E-06
CGA: 128    -0.222710569931E+03   -0.18515E-05   -0.20204E-05  5760   0.753E-05-0.587E-06
CGA: 129    -0.222710571925E+03   -0.19933E-05   -0.19777E-05  5760   0.637E-05-0.315E-06
CGA: 130    -0.222710574165E+03   -0.22402E-05   -0.22407E-05  5760   0.607E-05-0.267E-07
CGA: 131    -0.222710576668E+03   -0.25033E-05   -0.24969E-05  5760   0.684E-05 0.215E-06
CGA: 132    -0.222710579322E+03   -0.26539E-05   -0.26508E-05  5760   0.731E-05 0.201E-06
CGA: 133    -0.222710581504E+03   -0.21821E-05   -0.21873E-05  5760   0.574E-05 0.900E-07
CGA: 134    -0.222710583999E+03   -0.24954E-05   -0.24777E-05  5760   0.505E-05 0.286E-06
CGA: 135    -0.222710585751E+03   -0.17518E-05   -0.17520E-05  5760   0.381E-05 0.360E-07
CGA: 136    -0.222710587198E+03   -0.14466E-05   -0.14462E-05  5760   0.515E-05 0.123E-06
CGA: 137    -0.222710588865E+03   -0.16676E-05   -0.16774E-05  5760   0.320E-05 0.232E-06
CGA: 138    -0.222710590424E+03   -0.15586E-05   -0.15891E-05  5760   0.436E-05-0.164E-06
CGA: 139    -0.222710591866E+03   -0.14423E-05   -0.14374E-05  5760   0.504E-05-0.230E-06
CGA: 140    -0.222710593465E+03   -0.15986E-05   -0.16002E-05  5760   0.496E-05 0.410E-07
CGA: 141    -0.222710595295E+03   -0.18306E-05   -0.18309E-05  5760   0.534E-05-0.561E-07
CGA: 142    -0.222710597564E+03   -0.22688E-05   -0.22721E-05  5760   0.722E-05-0.636E-07
CGA: 143    -0.222710599654E+03   -0.20897E-05   -0.21055E-05  5760   0.591E-05 0.181E-06
CGA: 144    -0.222710601841E+03   -0.21870E-05   -0.21869E-05  5760   0.657E-05-0.169E-06
CGA: 145    -0.222710604304E+03   -0.24628E-05   -0.24775E-05  5760   0.735E-05-0.603E-06
CGA: 146    -0.222710606129E+03   -0.18255E-05   -0.18255E-05  5760   0.714E-05-0.115E-06
CGA: 147    -0.222710609139E+03   -0.30093E-05   -0.30030E-05  5760   0.820E-05-0.142E-07
CGA: 148    -0.222710611413E+03   -0.22741E-05   -0.22993E-05  5760   0.640E-05 0.250E-06
CGA: 149    -0.222710613510E+03   -0.20974E-05   -0.21005E-05  5760   0.652E-05 0.309E-07
CGA: 150    -0.222710615499E+03   -0.19891E-05   -0.19891E-05  5760   0.525E-05-0.179E-08
CGA: 151    -0.222710616967E+03   -0.14673E-05   -0.14857E-05  5760   0.373E-05 0.200E-06
CGA: 152    -0.222710618220E+03   -0.12531E-05   -0.12548E-05  5760   0.358E-05 0.802E-07
CGA: 153    -0.222710619316E+03   -0.10969E-05   -0.10971E-05  5760   0.331E-05 0.177E-07
CGA: 154    -0.222710620518E+03   -0.12018E-05   -0.11982E-05  5760   0.286E-05 0.238E-06
SDA: 155    -0.222710621423E+03   -0.90510E-06   -0.90721E-06  5760   0.331E-05 0.354E-07
   1 F= -.23219187E+03 E0= -.23219148E+03  d E =-.780383E-03  mag=     6.0000
