 running on   64 total cores
 distrk:  each k-point on   64 cores,    1 groups
 distr:  one band on    4 cores,   16 groups
 using from now: INCAR     
 vasp.5.4.4.18Apr17-6-g9f103f2a35 (build Nov 22 2021 14:44:17) complex          
  
 POSCAR found type information on POSCAR  Li Co O 
 POSCAR found :  3 types and      42 ions
 scaLAPACK will be used
 LDA part: xc-table for Pade appr. of Perdew
 generate k-points for:    6    6    2
 POSCAR, INCAR and KPOINTS ok, starting setup
 FFT: planning ...
 WAVECAR not read
 entering main loop
       N       E                     dE             d eps       ncg     rms          ort
DAV:   1     0.354802508773E+04    0.35480E+04   -0.14062E+05  5760   0.226E+03
DAV:   2     0.412080133428E+03   -0.31359E+04   -0.28971E+04  5760   0.556E+02
DAV:   3    -0.218578093755E+03   -0.63066E+03   -0.56269E+03  5760   0.258E+02
DAV:   4    -0.270179524019E+03   -0.51601E+02   -0.50622E+02  5760   0.763E+01
DAV:   5    -0.271814709722E+03   -0.16352E+01   -0.16328E+01  5760   0.134E+01
 gam= 0.000 g(H,U,f)=  0.176E+04 0.154E+04 0.903E+03 ort(H,U,f) = 0.000E+00 0.000E+00 0.000E+00
SDA:   6     0.120867353526E+03    0.39268E+03   -0.16328E+01  5760   0.421E+04 0.000E+00
 gam= 0.000 trial= 0.400  step= 0.104 mean= 0.400
 gam= 1.096 g(H,U,f)=  0.764E+03 0.179E+04 0.206E+04 ort(H,U,f) = 0.702E+03-0.755E+02-0.434E+03
CGA:   7    -0.327656510143E+01   -0.12414E+03   -0.21833E+03  5760   0.461E+04 0.193E+03
 gam= 1.096 trial= 0.385  step= 0.080 mean= 0.385
 gam= 0.789 g(H,U,f)=  0.194E+03 0.176E+04 0.169E+04 ort(H,U,f) = 0.124E+03 0.499E+03-0.144E+03
CGA:   8    -0.139379547888E+03   -0.13610E+03   -0.19370E+03  5760   0.364E+04 0.479E+03
 gam= 0.789 trial= 0.370  step= 0.056 mean= 0.370
 gam= 0.000 g(H,U,f)=  0.257E+03 0.122E+04 0.562E+03 ort(H,U,f) =-0.539E+03-0.103E+04-0.535E+03
CGA:   9    -0.146811886993E+03   -0.74323E+01   -0.11167E+03  5760   0.204E+04-0.211E+04
 gam= 0.000 trial= 0.354  step= 0.055 mean= 0.354
 gam= 0.158 g(H,U,f)=  0.113E+03 0.161E+03 0.498E+02 ort(H,U,f) = 0.108E+03-0.233E+03-0.136E+03
CGA:  10    -0.186353483111E+03   -0.39542E+02   -0.55896E+02  5760   0.324E+03-0.261E+03
 gam= 0.158 trial= 0.339  step= 0.111 mean= 0.339
 gam= 0.604 g(H,U,f)=  0.474E+02 0.103E+03 0.448E+02 ort(H,U,f) = 0.543E+02-0.701E+02-0.166E+02
CGA:  11    -0.199537198029E+03   -0.13184E+02   -0.15662E+02  5760   0.195E+03-0.324E+02
 gam= 0.604 trial= 0.328  step= 0.113 mean= 0.328
 gam= 0.486 g(H,U,f)=  0.253E+02 0.588E+02 0.109E+02 ort(H,U,f) = 0.215E+02-0.379E+02-0.583E+01
CGA:  12    -0.206221343650E+03   -0.66841E+01   -0.99647E+01  5760   0.950E+02-0.222E+02
 gam= 0.486 trial= 0.317  step= 0.163 mean= 0.317
 gam= 0.595 g(H,U,f)=  0.894E+01 0.376E+02 0.101E+02 ort(H,U,f) = 0.954E+00-0.184E+01-0.342E+01
CGA:  13    -0.211847960114E+03   -0.56266E+01   -0.68689E+01  5760   0.566E+02-0.431E+01
 gam= 0.595 trial= 0.309  step= 0.114 mean= 0.309
 gam= 1.083 g(H,U,f)=  0.754E+01 0.392E+02 0.145E+02 ort(H,U,f) =-0.234E+01-0.793E+01-0.967E+01
CGA:  14    -0.213450900375E+03   -0.16029E+01   -0.30731E+01  5760   0.612E+02-0.199E+02
 gam= 1.083 trial= 0.300  step= 0.115 mean= 0.300
 gam= 0.291 g(H,U,f)=  0.461E+01 0.977E+01 0.344E+01 ort(H,U,f) =-0.416E+01 0.284E+01 0.408E+00
CGA:  15    -0.215657207406E+03   -0.22063E+01   -0.22848E+01  5760   0.178E+02-0.913E+00
 gam= 0.291 trial= 0.290  step= 0.070 mean= 0.290
 gam= 0.372 g(H,U,f)=  0.322E+01 0.288E+01 0.536E+00 ort(H,U,f) = 0.157E+01-0.305E+01-0.107E+01
CGA:  16    -0.216134622941E+03   -0.47742E+00   -0.61374E+00  5760   0.663E+01-0.255E+01
 gam= 0.372 trial= 0.279  step= 0.218 mean= 0.279
 gam= 0.713 g(H,U,f)=  0.141E+01 0.304E+01 0.270E+00 ort(H,U,f) = 0.654E+00-0.570E+00-0.587E-01
CGA:  17    -0.216750658103E+03   -0.61604E+00   -0.61837E+00  5760   0.472E+01 0.257E-01
 gam= 0.713 trial= 0.276  step= 0.146 mean= 0.276
 gam= 0.744 g(H,U,f)=  0.830E+00 0.228E+01 0.410E+00 ort(H,U,f) = 0.141E+00-0.654E-02-0.188E+00
CGA:  18    -0.217082872780E+03   -0.33221E+00   -0.34509E+00  5760   0.352E+01-0.529E-01
 gam= 0.744 trial= 0.270  step= 0.138 mean= 0.270
 gam= 0.454 g(H,U,f)=  0.461E+00 0.100E+01 0.134E+00 ort(H,U,f) =-0.293E+00 0.270E+00-0.333E-01
CGA:  19    -0.217306186863E+03   -0.22331E+00   -0.23958E+00  5760   0.160E+01-0.561E-01
 gam= 0.454 trial= 0.263  step= 0.148 mean= 0.263
 gam= 0.622 g(H,U,f)=  0.269E+00 0.639E+00 0.842E-01 ort(H,U,f) =-0.106E+00 0.132E+00-0.891E-01
CGA:  20    -0.217417801685E+03   -0.11161E+00   -0.11643E+00  5760   0.993E+00-0.629E-01
 gam= 0.622 trial= 0.257  step= 0.197 mean= 0.257
 gam= 0.756 g(H,U,f)=  0.225E+00 0.496E+00 0.291E-01 ort(H,U,f) =-0.122E+00 0.131E+00-0.130E-01
CGA:  21    -0.217511097092E+03   -0.93295E-01   -0.94026E-01  5760   0.751E+00-0.405E-02
 gam= 0.756 trial= 0.254  step= 0.258 mean= 0.254
 gam= 1.794 g(H,U,f)=  0.270E+00 0.880E+00 0.197E+00 ort(H,U,f) =-0.733E-01 0.931E-01-0.490E-01
CGA:  22    -0.217607470860E+03   -0.96374E-01   -0.96354E-01  5760   0.135E+01-0.293E-01
 gam= 1.794 trial= 0.255  step= 0.195 mean= 0.255
 gam= 0.494 g(H,U,f)=  0.340E+00 0.318E+00 0.813E-02 ort(H,U,f) =-0.307E+00 0.304E+00 0.251E-01
CGA:  23    -0.217729994251E+03   -0.12252E+00   -0.12581E+00  5760   0.665E+00 0.227E-01
 gam= 0.494 trial= 0.252  step= 0.282 mean= 0.252
 gam= 1.149 g(H,U,f)=  0.275E+00 0.454E+00 0.356E-01 ort(H,U,f) =-0.872E-01 0.106E+00 0.117E-01
CGA:  24    -0.217826231527E+03   -0.96237E-01   -0.95505E-01  5760   0.765E+00 0.304E-01
 gam= 1.149 trial= 0.253  step= 0.200 mean= 0.253
 gam= 0.984 g(H,U,f)=  0.281E+00 0.447E+00 0.244E-01 ort(H,U,f) =-0.100E+00 0.106E+00-0.948E-02
CGA:  25    -0.217905246558E+03   -0.79015E-01   -0.79786E-01  5760   0.752E+00-0.345E-02
 gam= 0.984 trial= 0.250  step= 0.340 mean= 0.250
 gam= 0.889 g(H,U,f)=  0.277E+00 0.373E+00 0.182E-01 ort(H,U,f) =-0.222E+00 0.218E+00 0.754E-02
CGA:  26    -0.218032836023E+03   -0.12759E+00   -0.12739E+00  5760   0.669E+00 0.374E-02
 gam= 0.889 trial= 0.255  step= 0.278 mean= 0.255
 gam= 1.068 g(H,U,f)=  0.253E+00 0.443E+00 0.178E-01 ort(H,U,f) =-0.733E-01 0.131E+00 0.274E-02
CGA:  27    -0.218127481571E+03   -0.94646E-01   -0.93391E-01  5760   0.714E+00 0.604E-01
 gam= 1.068 trial= 0.256  step= 0.256 mean= 0.256
 gam= 0.851 g(H,U,f)=  0.199E+00 0.390E+00 0.190E-01 ort(H,U,f) =-0.118E+00 0.142E+00-0.134E-01
CGA:  28    -0.218227091996E+03   -0.99610E-01   -0.99612E-01  5760   0.607E+00 0.101E-01
 gam= 0.851 trial= 0.256  step= 0.443 mean= 0.256
 gam= 1.413 g(H,U,f)=  0.294E+00 0.533E+00 0.315E-01 ort(H,U,f) =-0.148E+00 0.628E-01-0.392E-01
CGA:  29    -0.218352232036E+03   -0.12514E+00   -0.13633E+00  5760   0.858E+00-0.124E+00
 gam= 1.413 trial= 0.265  step= 0.254 mean= 0.265
 gam= 0.909 g(H,U,f)=  0.345E+00 0.410E+00 0.247E-01 ort(H,U,f) =-0.174E+00 0.150E+00 0.300E-01
CGA:  30    -0.218438983181E+03   -0.86751E-01   -0.86835E-01  5760   0.780E+00 0.599E-02
 gam= 0.909 trial= 0.265  step= 0.365 mean= 0.265
 gam= 0.945 g(H,U,f)=  0.378E+00 0.332E+00 0.271E-01 ort(H,U,f) =-0.191E+00 0.225E+00 0.451E-01
CGA:  31    -0.218588447630E+03   -0.14946E+00   -0.14344E+00  5760   0.737E+00 0.795E-01
 gam= 0.945 trial= 0.270  step= 0.412 mean= 0.270
 gam= 0.878 g(H,U,f)=  0.360E+00 0.284E+00 0.377E-02 ort(H,U,f) =-0.140E+00 0.208E+00 0.833E-02
CGA:  32    -0.218763591671E+03   -0.17514E+00   -0.16716E+00  5760   0.647E+00 0.760E-01
 gam= 0.878 trial= 0.277  step= 0.350 mean= 0.277
 gam= 1.082 g(H,U,f)=  0.256E+00 0.415E+00 0.300E-01 ort(H,U,f) =-0.946E-01 0.312E-01-0.239E-01
CGA:  33    -0.218885519501E+03   -0.12193E+00   -0.12505E+00  5760   0.701E+00-0.873E-01
 gam= 1.082 trial= 0.281  step= 0.248 mean= 0.281
 gam= 0.979 g(H,U,f)=  0.259E+00 0.420E+00 0.697E-02 ort(H,U,f) =-0.971E-01 0.103E+00 0.214E-02
CGA:  34    -0.218960366174E+03   -0.74847E-01   -0.75066E-01  5760   0.686E+00 0.825E-02
 gam= 0.979 trial= 0.279  step= 0.231 mean= 0.279
 gam= 0.889 g(H,U,f)=  0.188E+00 0.325E+00 0.971E-01 ort(H,U,f) =-0.717E-01 0.108E+00-0.760E-01
CGA:  35    -0.219039793477E+03   -0.79427E-01   -0.79989E-01  5760   0.610E+00-0.394E-01
 gam= 0.889 trial= 0.277  step= 0.192 mean= 0.277
 gam= 0.713 g(H,U,f)=  0.182E+00 0.230E+00 0.236E-01 ort(H,U,f) =-0.655E-01 0.824E-01-0.998E-02
CGA:  36    -0.219093585671E+03   -0.53792E-01   -0.55299E-01  5760   0.435E+00 0.696E-02
 gam= 0.713 trial= 0.272  step= 0.255 mean= 0.272
 gam= 1.215 g(H,U,f)=  0.158E+00 0.284E+00 0.871E-01 ort(H,U,f) =-0.385E-01 0.599E-01-0.376E-01
CGA:  37    -0.219149660926E+03   -0.56075E-01   -0.56074E-01  5760   0.528E+00-0.162E-01
 gam= 1.215 trial= 0.271  step= 0.221 mean= 0.271
 gam= 0.844 g(H,U,f)=  0.186E+00 0.232E+00 0.279E-01 ort(H,U,f) =-0.967E-01 0.117E+00-0.210E-01
CGA:  38    -0.219205689237E+03   -0.56028E-01   -0.56331E-01  5760   0.446E+00-0.549E-03
 gam= 0.844 trial= 0.269  step= 0.243 mean= 0.269
 gam= 0.847 g(H,U,f)=  0.161E+00 0.177E+00 0.393E-01 ort(H,U,f) =-0.951E-01 0.948E-01-0.174E-01
CGA:  39    -0.219260013805E+03   -0.54325E-01   -0.54006E-01  5760   0.378E+00-0.177E-01
 gam= 0.847 trial= 0.268  step= 0.206 mean= 0.268
 gam= 0.000 g(H,U,f)=  0.150E+00 0.148E+00 0.178E-01 ort(H,U,f) =-0.358E-01 0.526E-01-0.156E-01
SDA:  40    -0.219297078656E+03   -0.37065E-01   -0.37377E-01  5760   0.316E+00 0.124E-02
 gam= 0.000 trial= 0.265  step= 0.175 mean= 0.265
 gam= 1.151 g(H,U,f)=  0.778E-01 0.209E+00 0.763E-01 ort(H,U,f) = 0.543E-01-0.256E-01-0.302E-01
CGA:  41    -0.219324808751E+03   -0.27730E-01   -0.27649E-01  5760   0.363E+00-0.147E-02
 gam= 1.151 trial= 0.260  step= 0.176 mean= 0.260
 gam= 0.536 g(H,U,f)=  0.846E-01 0.107E+00 0.380E-02 ort(H,U,f) =-0.276E-01 0.362E-01-0.497E-02
CGA:  42    -0.219355744969E+03   -0.30936E-01   -0.31816E-01  5760   0.195E+00 0.363E-02
 gam= 0.536 trial= 0.256  step= 0.507 mean= 0.256
 gam= 0.526 g(H,U,f)=  0.531E-01 0.465E-01 0.298E-02 ort(H,U,f) =-0.610E-01 0.657E-01-0.727E-03
CGA:  43    -0.219406339663E+03   -0.50595E-01   -0.49940E-01  5760   0.103E+00 0.398E-02
 gam= 0.526 trial= 0.268  step= 0.240 mean= 0.268
 gam= 2.173 g(H,U,f)=  0.449E-01 0.127E+00 0.513E-01 ort(H,U,f) =-0.312E-02 0.102E-01-0.768E-02
CGA:  44    -0.219418974161E+03   -0.12634E-01   -0.12584E-01  5760   0.223E+00-0.579E-03
 gam= 2.173 trial= 0.267  step= 0.192 mean= 0.267
 gam= 0.513 g(H,U,f)=  0.588E-01 0.541E-01 0.153E-02 ort(H,U,f) =-0.403E-01 0.415E-01 0.311E-02
CGA:  45    -0.219439399018E+03   -0.20425E-01   -0.21282E-01  5760   0.114E+00 0.431E-02
 gam= 0.513 trial= 0.263  step= 0.280 mean= 0.263
 gam= 1.548 g(H,U,f)=  0.348E-01 0.105E+00 0.375E-01 ort(H,U,f) =-0.106E-01 0.259E-01-0.166E-01
CGA:  46    -0.219455804357E+03   -0.16405E-01   -0.16349E-01  5760   0.177E+00-0.125E-02
 gam= 1.548 trial= 0.264  step= 0.094 mean= 0.264
 gam= 0.241 g(H,U,f)=  0.289E-01 0.137E-01 0.144E-03 ort(H,U,f) =-0.299E-01 0.380E-01-0.561E-03
CGA:  47    -0.219464531651E+03   -0.87273E-02   -0.82563E-02  5760   0.427E-01 0.756E-02
 gam= 0.241 trial= 0.256  step= 0.500 mean= 0.256
 gam= 3.914 g(H,U,f)=  0.249E-01 0.108E+00 0.345E-01 ort(H,U,f) =-0.843E-03 0.180E-02-0.153E-02
CGA:  48    -0.219475565219E+03   -0.11034E-01   -0.11126E-01  5760   0.167E+00-0.576E-03
 gam= 3.914 trial= 0.268  step= 0.104 mean= 0.268
 gam= 0.258 g(H,U,f)=  0.234E-01 0.193E-01 0.425E-03 ort(H,U,f) =-0.481E-01 0.421E-01-0.947E-03
CGA:  49    -0.219483437269E+03   -0.78720E-02   -0.86108E-02  5760   0.431E-01-0.701E-02
 gam= 0.258 trial= 0.260  step= 0.259 mean= 0.260
 gam= 2.184 g(H,U,f)=  0.193E-01 0.555E-01 0.193E-01 ort(H,U,f) =-0.286E-02 0.709E-02-0.458E-02
CGA:  50    -0.219488777966E+03   -0.53407E-02   -0.53409E-02  5760   0.941E-01-0.359E-03
 gam= 2.184 trial= 0.260  step= 0.122 mean= 0.260
 gam= 0.402 g(H,U,f)=  0.184E-01 0.192E-01 0.234E-03 ort(H,U,f) =-0.173E-01 0.175E-01 0.662E-03
CGA:  51    -0.219494251615E+03   -0.54736E-02   -0.56962E-02  5760   0.378E-01 0.864E-03
 gam= 0.402 trial= 0.253  step= 0.275 mean= 0.253
 gam= 2.632 g(H,U,f)=  0.146E-01 0.662E-01 0.187E-01 ort(H,U,f) =-0.317E-02 0.649E-02-0.545E-02
CGA:  52    -0.219499504132E+03   -0.52525E-02   -0.52513E-02  5760   0.996E-01-0.213E-02
 gam= 2.632 trial= 0.254  step= 0.124 mean= 0.254
 gam= 0.354 g(H,U,f)=  0.194E-01 0.151E-01 0.782E-03 ort(H,U,f) =-0.356E-01 0.346E-01 0.109E-02
CGA:  53    -0.219505429875E+03   -0.59257E-02   -0.58430E-02  5760   0.352E-01 0.264E-04
 gam= 0.354 trial= 0.247  step= 0.236 mean= 0.247
 gam= 2.777 g(H,U,f)=  0.193E-01 0.593E-01 0.193E-01 ort(H,U,f) =-0.475E-03 0.504E-02-0.265E-02
CGA:  54    -0.219509587829E+03   -0.41580E-02   -0.41630E-02  5760   0.979E-01 0.192E-02
 gam= 2.777 trial= 0.247  step= 0.161 mean= 0.247
 gam= 0.498 g(H,U,f)=  0.192E-01 0.244E-01 0.519E-02 ort(H,U,f) =-0.223E-01 0.252E-01 0.396E-02
CGA:  55    -0.219517336194E+03   -0.77484E-02   -0.82830E-02  5760   0.488E-01 0.677E-02
 gam= 0.498 trial= 0.243  step= 0.103 mean= 0.243
 gam= 0.995 g(H,U,f)=  0.175E-01 0.264E-01 0.464E-02 ort(H,U,f) = 0.452E-03 0.401E-02-0.767E-02
CGA:  56    -0.219519964365E+03   -0.26282E-02   -0.26924E-02  5760   0.485E-01-0.321E-02
 gam= 0.995 trial= 0.236  step= 0.230 mean= 0.236
 gam= 1.164 g(H,U,f)=  0.113E-01 0.339E-01 0.113E-01 ort(H,U,f) =-0.467E-02 0.517E-02-0.499E-02
CGA:  57    -0.219525190983E+03   -0.52266E-02   -0.52163E-02  5760   0.565E-01-0.449E-02
 gam= 1.164 trial= 0.235  step= 0.072 mean= 0.235
 gam= 0.396 g(H,U,f)=  0.105E-01 0.115E-01 0.313E-03 ort(H,U,f) =-0.452E-02 0.411E-02-0.153E-03
CGA:  58    -0.219527004681E+03   -0.18137E-02   -0.18382E-02  5760   0.223E-01-0.567E-03
 gam= 0.396 trial= 0.227  step= 0.225 mean= 0.227
 gam= 2.048 g(H,U,f)=  0.756E-02 0.297E-01 0.848E-02 ort(H,U,f) = 0.188E-02 0.212E-03-0.129E-02
CGA:  59    -0.219529487204E+03   -0.24825E-02   -0.24831E-02  5760   0.457E-01 0.796E-03
 gam= 2.048 trial= 0.227  step= 0.093 mean= 0.227
 gam= 0.350 g(H,U,f)=  0.611E-02 0.955E-02 0.350E-03 ort(H,U,f) =-0.345E-02 0.282E-02 0.387E-03
CGA:  60    -0.219531514154E+03   -0.20269E-02   -0.21959E-02  5760   0.160E-01-0.245E-03
 gam= 0.350 trial= 0.220  step= 0.159 mean= 0.220
 gam= 1.920 g(H,U,f)=  0.510E-02 0.203E-01 0.539E-02 ort(H,U,f) = 0.971E-03 0.528E-03-0.266E-02
CGA:  61    -0.219532781914E+03   -0.12678E-02   -0.12631E-02  5760   0.307E-01-0.116E-02
 gam= 1.920 trial= 0.217  step= 0.132 mean= 0.217
 gam= 0.601 g(H,U,f)=  0.485E-02 0.114E-01 0.228E-02 ort(H,U,f) =-0.684E-02 0.648E-02 0.107E-03
CGA:  62    -0.219534687564E+03   -0.19056E-02   -0.18853E-02  5760   0.185E-01-0.249E-03
 gam= 0.601 trial= 0.213  step= 0.092 mean= 0.213
 gam= 0.995 g(H,U,f)=  0.635E-02 0.110E-01 0.102E-02 ort(H,U,f) =-0.195E-02 0.292E-02-0.152E-02
CGA:  63    -0.219535495997E+03   -0.80843E-03   -0.84672E-03  5760   0.184E-01-0.550E-03
 gam= 0.995 trial= 0.207  step= 0.258 mean= 0.207
 gam= 1.937 g(H,U,f)=  0.666E-02 0.225E-01 0.645E-02 ort(H,U,f) =-0.322E-02 0.445E-02-0.137E-02
CGA:  64    -0.219537797429E+03   -0.23014E-02   -0.23016E-02  5760   0.356E-01-0.143E-03
 gam= 1.937 trial= 0.209  step= 0.077 mean= 0.209
 gam= 0.433 g(H,U,f)=  0.779E-02 0.749E-02 0.134E-03 ort(H,U,f) =-0.974E-02 0.979E-02-0.291E-04
CGA:  65    -0.219539123407E+03   -0.13260E-02   -0.13583E-02  5760   0.154E-01 0.220E-04
 gam= 0.433 trial= 0.203  step= 0.217 mean= 0.203
 gam= 3.125 g(H,U,f)=  0.787E-02 0.309E-01 0.936E-02 ort(H,U,f) =-0.116E-02 0.232E-02-0.185E-02
CGA:  66    -0.219540791977E+03   -0.16686E-02   -0.16711E-02  5760   0.482E-01-0.688E-03
 gam= 3.125 trial= 0.204  step= 0.114 mean= 0.204
 gam= 0.561 g(H,U,f)=  0.898E-02 0.147E-01 0.330E-02 ort(H,U,f) =-0.177E-01 0.170E-01 0.169E-02
CGA:  67    -0.219543353185E+03   -0.25612E-02   -0.26249E-02  5760   0.270E-01 0.927E-03
 gam= 0.561 trial= 0.199  step= 0.075 mean= 0.199
 gam= 0.795 g(H,U,f)=  0.104E-01 0.101E-01 0.105E-02 ort(H,U,f) =-0.411E-02 0.512E-02-0.255E-02
CGA:  68    -0.219544313156E+03   -0.95997E-03   -0.10346E-02  5760   0.215E-01-0.155E-02
 gam= 0.795 trial= 0.193  step= 0.244 mean= 0.193
 gam= 2.761 g(H,U,f)=  0.101E-01 0.368E-01 0.124E-01 ort(H,U,f) =-0.738E-03 0.264E-02-0.325E-02
CGA:  69    -0.219546766766E+03   -0.24536E-02   -0.24685E-02  5760   0.593E-01-0.135E-02
 gam= 2.761 trial= 0.195  step= 0.077 mean= 0.195
 gam= 0.401 g(H,U,f)=  0.113E-01 0.115E-01 0.932E-03 ort(H,U,f) =-0.160E-01 0.155E-01 0.950E-03
CGA:  70    -0.219548909460E+03   -0.21427E-02   -0.21526E-02  5760   0.238E-01 0.384E-03
 gam= 0.401 trial= 0.190  step= 0.110 mean= 0.190
 gam= 0.000 g(H,U,f)=  0.108E-01 0.239E-01 0.501E-02 ort(H,U,f) =-0.657E-03 0.304E-02-0.299E-02
SDA:  71    -0.219550218392E+03   -0.13089E-02   -0.13160E-02  5760   0.397E-01-0.600E-03
 gam= 0.000 trial= 0.186  step= 0.089 mean= 0.186
 gam= 0.428 g(H,U,f)=  0.512E-02 0.974E-02 0.215E-02 ort(H,U,f) = 0.471E-02-0.281E-02-0.320E-02
CGA:  72    -0.219551890106E+03   -0.16717E-02   -0.17575E-02  5760   0.170E-01-0.131E-02
 gam= 0.428 trial= 0.181  step= 0.238 mean= 0.181
 gam= 0.488 g(H,U,f)=  0.346E-02 0.475E-02 0.884E-04 ort(H,U,f) =-0.460E-03 0.107E-02-0.808E-04
CGA:  73    -0.219553875535E+03   -0.19854E-02   -0.19615E-02  5760   0.830E-02 0.530E-03
 gam= 0.488 trial= 0.184  step= 0.744 mean= 0.184
 gam= 1.230 g(H,U,f)=  0.486E-02 0.525E-02 0.965E-04 ort(H,U,f) =-0.261E-02 0.275E-02-0.675E-05
CGA:  74    -0.219557106698E+03   -0.32312E-02   -0.31834E-02  5760   0.102E-01 0.140E-03
 gam= 1.230 trial= 0.212  step= 0.454 mean= 0.212
 gam= 2.499 g(H,U,f)=  0.576E-02 0.154E-01 0.439E-02 ort(H,U,f) =-0.201E-02 0.228E-02-0.147E-03
CGA:  75    -0.219559463814E+03   -0.23571E-02   -0.23540E-02  5760   0.255E-01 0.120E-03
 gam= 2.499 trial= 0.224  step= 0.118 mean= 0.224
 gam= 0.475 g(H,U,f)=  0.529E-02 0.583E-02 0.990E-03 ort(H,U,f) =-0.592E-02 0.746E-02-0.192E-02
CGA:  76    -0.219560913952E+03   -0.14501E-02   -0.15274E-02  5760   0.121E-01-0.374E-03
 gam= 0.475 trial= 0.218  step= 0.490 mean= 0.218
 gam= 1.037 g(H,U,f)=  0.548E-02 0.695E-02 0.136E-03 ort(H,U,f) =-0.381E-02 0.348E-02-0.223E-04
CGA:  77    -0.219563786967E+03   -0.28730E-02   -0.29270E-02  5760   0.126E-01-0.352E-03
 gam= 1.037 trial= 0.232  step= 0.516 mean= 0.232
 gam= 3.078 g(H,U,f)=  0.812E-02 0.231E-01 0.742E-02 ort(H,U,f) =-0.161E-02 0.189E-02-0.788E-03
CGA:  78    -0.219566888004E+03   -0.31010E-02   -0.31510E-02  5760   0.387E-01-0.510E-03
 gam= 3.078 trial= 0.246  step= 0.135 mean= 0.246
 gam= 0.572 g(H,U,f)=  0.916E-02 0.111E-01 0.186E-02 ort(H,U,f) =-0.998E-02 0.114E-01-0.257E-02
CGA:  79    -0.219569212500E+03   -0.23245E-02   -0.25029E-02  5760   0.221E-01-0.117E-02
 gam= 0.572 trial= 0.241  step= 0.953 mean= 0.241
 gam= 2.700 g(H,U,f)=  0.240E-01 0.307E-01 0.510E-02 ort(H,U,f) =-0.819E-02 0.814E-02-0.237E-02
CGA:  80    -0.219578744779E+03   -0.95323E-02   -0.10238E-01  5760   0.598E-01-0.243E-02
 gam= 2.700 trial= 0.276  step= 0.676 mean= 0.276
 gam= 8.071 g(H,U,f)=  0.957E-01 0.187E+00 0.200E+00 ort(H,U,f) =-0.646E-01-0.132E-01 0.483E-01
CGA:  81    -0.219593526439E+03   -0.14782E-01   -0.17984E-01  5760   0.483E+00-0.294E-01
 gam= 8.071 trial= 0.296  step= 0.000 mean= 0.296
 gam= 0.000 g(H,U,f)=  0.971E-01 0.190E+00 0.203E+00 ort(H,U,f) =-0.427E+00 0.752E-01 0.595E+00
CGA:  82    -0.219593437616E+03    0.88823E-04   -0.12844E-04  5760   0.490E+00 0.243E+00
 gam= 0.000 trial= 0.281  step= 0.132 mean= 0.281
 gam= 0.323 g(H,U,f)=  0.488E-01 0.780E-01 0.312E-01 ort(H,U,f) = 0.198E-01-0.253E-01-0.692E-01
CGA:  83    -0.219615776148E+03   -0.22339E-01   -0.32309E-01  5760   0.158E+00-0.746E-01
 gam= 0.323 trial= 0.274  step= 0.404 mean= 0.274
 gam= 0.981 g(H,U,f)=  0.245E-01 0.634E-01 0.670E-01 ort(H,U,f) =-0.460E-02 0.110E-01-0.143E-01
CGA:  84    -0.219642473804E+03   -0.26698E-01   -0.27032E-01  5760   0.155E+00-0.788E-02
 gam= 0.981 trial= 0.280  step= 0.369 mean= 0.280
 gam= 0.527 g(H,U,f)=  0.302E-01 0.506E-01 0.891E-03 ort(H,U,f) =-0.177E-01 0.578E-01-0.318E-02
CGA:  85    -0.219672590464E+03   -0.30117E-01   -0.27198E-01  5760   0.817E-01 0.369E-01
 gam= 0.527 trial= 0.285  step= 0.576 mean= 0.285
 gam= 5.508 g(H,U,f)=  0.898E-01 0.216E+00 0.144E+00 ort(H,U,f) =-0.256E-01-0.235E-01 0.153E-01
CGA:  86    -0.219687415925E+03   -0.14825E-01   -0.29132E-01  5760   0.450E+00-0.338E-01
 gam= 5.508 trial= 0.299  step= 0.010 mean= 0.299
 gam= 1.078 g(H,U,f)=  0.105E+00 0.244E+00 0.136E+00 ort(H,U,f) =-0.632E-01 0.498E-01 0.200E+00
CGA:  87    -0.219686550812E+03    0.86511E-03   -0.13627E-02  5760   0.485E+00 0.187E+00
 gam= 1.078 trial= 0.285  step= 0.054 mean= 0.285
 gam= 0.900 g(H,U,f)=  0.131E+00 0.271E+00 0.341E-01 ort(H,U,f) =-0.239E-01 0.110E+00 0.167E-01
CGA:  88    -0.219694273651E+03   -0.77228E-02   -0.18636E-01  5760   0.436E+00 0.103E+00
 gam= 0.900 trial= 0.274  step= 0.110 mean= 0.274
 gam= 0.701 g(H,U,f)=  0.121E+00 0.161E+00 0.235E-01 ort(H,U,f) =-0.624E-01 0.479E-01-0.763E-02
CGA:  89    -0.219717639415E+03   -0.23366E-01   -0.29001E-01  5760   0.306E+00-0.221E-01
 gam= 0.701 trial= 0.265  step= 0.108 mean= 0.265
 gam= 0.797 g(H,U,f)=  0.118E+00 0.102E+00 0.246E-01 ort(H,U,f) =-0.439E-01 0.389E-01-0.482E-01
CGA:  90    -0.219731516566E+03   -0.13877E-01   -0.15676E-01  5760   0.244E+00-0.532E-01
 gam= 0.797 trial= 0.257  step= 0.139 mean= 0.257
 gam= 0.687 g(H,U,f)=  0.100E+00 0.631E-01 0.404E-02 ort(H,U,f) =-0.346E-01 0.284E-01-0.553E-02
CGA:  91    -0.219745693716E+03   -0.14177E-01   -0.13992E-01  5760   0.168E+00-0.118E-01
 gam= 0.687 trial= 0.252  step= 0.126 mean= 0.252
 gam= 0.524 g(H,U,f)=  0.605E-01 0.254E-01 0.191E-02 ort(H,U,f) = 0.175E-03 0.107E-01 0.406E-03
CGA:  92    -0.219757779737E+03   -0.12086E-01   -0.10049E-01  5760   0.879E-01 0.112E-01
 gam= 0.524 trial= 0.245  step= 0.181 mean= 0.245
 gam= 1.406 g(H,U,f)=  0.346E-01 0.460E-01 0.429E-01 ort(H,U,f) = 0.859E-02 0.266E-02-0.978E-02
CGA:  93    -0.219766131060E+03   -0.83513E-02   -0.84936E-02  5760   0.124E+00 0.147E-02
 gam= 1.406 trial= 0.242  step= 0.154 mean= 0.242
 gam= 0.726 g(H,U,f)=  0.350E-01 0.427E-01 0.121E-01 ort(H,U,f) =-0.295E-01 0.151E-01 0.127E-01
CGA:  94    -0.219775840359E+03   -0.97093E-02   -0.96995E-02  5760   0.898E-01-0.174E-02
 gam= 0.726 trial= 0.238  step= 0.135 mean= 0.238
 gam= 0.723 g(H,U,f)=  0.335E-01 0.274E-01 0.409E-02 ort(H,U,f) =-0.653E-02 0.183E-01-0.113E-01
CGA:  95    -0.219781566122E+03   -0.57258E-02   -0.59786E-02  5760   0.650E-01 0.448E-03
 gam= 0.723 trial= 0.233  step= 0.203 mean= 0.233
 gam= 0.901 g(H,U,f)=  0.195E-01 0.266E-01 0.124E-01 ort(H,U,f) = 0.118E-02 0.862E-02-0.633E-02
CGA:  96    -0.219788134587E+03   -0.65685E-02   -0.66110E-02  5760   0.585E-01 0.347E-02
 gam= 0.901 trial= 0.231  step= 0.169 mean= 0.231
 gam= 0.612 g(H,U,f)=  0.176E-01 0.178E-01 0.421E-03 ort(H,U,f) =-0.135E-01 0.117E-01 0.659E-03
CGA:  97    -0.219793466132E+03   -0.53315E-02   -0.52095E-02  5760   0.358E-01-0.111E-02
 gam= 0.612 trial= 0.228  step= 0.224 mean= 0.228
 gam= 1.375 g(H,U,f)=  0.220E-01 0.173E-01 0.100E-01 ort(H,U,f) =-0.658E-02 0.117E-01-0.452E-02
CGA:  98    -0.219797411167E+03   -0.39450E-02   -0.39442E-02  5760   0.493E-01 0.649E-03
 gam= 1.375 trial= 0.228  step= 0.206 mean= 0.228
 gam= 0.745 g(H,U,f)=  0.209E-01 0.135E-01 0.237E-02 ort(H,U,f) =-0.143E-01 0.121E-01 0.146E-02
CGA:  99    -0.219802596153E+03   -0.51850E-02   -0.51730E-02  5760   0.367E-01-0.792E-03
 gam= 0.745 trial= 0.227  step= 0.193 mean= 0.227
 gam= 1.018 g(H,U,f)=  0.180E-01 0.152E-01 0.409E-02 ort(H,U,f) =-0.549E-02 0.104E-01-0.411E-02
CGA: 100    -0.219806067923E+03   -0.34718E-02   -0.34813E-02  5760   0.374E-01 0.823E-03
 gam= 1.018 trial= 0.225  step= 0.274 mean= 0.225
 gam= 0.902 g(H,U,f)=  0.157E-01 0.114E-01 0.663E-02 ort(H,U,f) =-0.773E-02 0.743E-02 0.134E-03
CGA: 101    -0.219811306408E+03   -0.52385E-02   -0.52369E-02  5760   0.337E-01-0.161E-03
 gam= 0.902 trial= 0.227  step= 0.163 mean= 0.227
 gam= 0.616 g(H,U,f)=  0.113E-01 0.908E-02 0.365E-03 ort(H,U,f) =-0.179E-03 0.160E-02-0.190E-02
CGA: 102    -0.219814145854E+03   -0.28394E-02   -0.27295E-02  5760   0.208E-01-0.482E-03
 gam= 0.616 trial= 0.224  step= 0.227 mean= 0.224
 gam= 1.044 g(H,U,f)=  0.749E-02 0.925E-02 0.494E-02 ort(H,U,f) = 0.173E-02 0.119E-02-0.276E-02
CGA: 103    -0.219816465281E+03   -0.23194E-02   -0.23194E-02  5760   0.217E-01 0.148E-03
 gam= 1.044 trial= 0.224  step= 0.162 mean= 0.224
 gam= 0.656 g(H,U,f)=  0.665E-02 0.707E-02 0.487E-03 ort(H,U,f) =-0.105E-02 0.453E-03 0.783E-03
CGA: 104    -0.219818221036E+03   -0.17558E-02   -0.17661E-02  5760   0.142E-01 0.188E-03
 gam= 0.656 trial= 0.221  step= 0.230 mean= 0.221
 gam= 1.022 g(H,U,f)=  0.575E-02 0.676E-02 0.201E-02 ort(H,U,f) =-0.924E-03 0.152E-02-0.218E-03
CGA: 105    -0.219819873025E+03   -0.16520E-02   -0.16490E-02  5760   0.145E-01 0.373E-03
 gam= 1.022 trial= 0.222  step= 0.163 mean= 0.222
 gam= 0.565 g(H,U,f)=  0.461E-02 0.340E-02 0.194E-03 ort(H,U,f) =-0.120E-02 0.191E-02-0.817E-03
CGA: 106    -0.219821098856E+03   -0.12258E-02   -0.12119E-02  5760   0.821E-02-0.113E-03
 gam= 0.565 trial= 0.219  step= 0.272 mean= 0.219
 gam= 1.624 g(H,U,f)=  0.393E-02 0.620E-02 0.321E-02 ort(H,U,f) =-0.397E-03 0.138E-02-0.994E-03
CGA: 107    -0.219822203415E+03   -0.11046E-02   -0.11073E-02  5760   0.133E-01-0.982E-05
 gam= 1.624 trial= 0.221  step= 0.203 mean= 0.221
 gam= 0.679 g(H,U,f)=  0.432E-02 0.457E-02 0.154E-03 ort(H,U,f) =-0.498E-02 0.464E-02 0.392E-03
CGA: 108    -0.219823551558E+03   -0.13481E-02   -0.13487E-02  5760   0.905E-02 0.531E-04
 gam= 0.679 trial= 0.220  step= 0.211 mean= 0.220
 gam= 1.054 g(H,U,f)=  0.420E-02 0.337E-02 0.197E-02 ort(H,U,f) =-0.240E-02 0.358E-02-0.917E-03
CGA: 109    -0.219824507583E+03   -0.95602E-03   -0.95719E-03  5760   0.954E-02 0.261E-03
 gam= 1.054 trial= 0.220  step= 0.252 mean= 0.220
 gam= 0.832 g(H,U,f)=  0.410E-02 0.363E-02 0.208E-03 ort(H,U,f) =-0.306E-02 0.243E-02 0.272E-03
CGA: 110    -0.219825736718E+03   -0.12291E-02   -0.12361E-02  5760   0.794E-02-0.357E-03
 gam= 0.832 trial= 0.222  step= 0.253 mean= 0.222
 gam= 1.429 g(H,U,f)=  0.453E-02 0.467E-02 0.215E-02 ort(H,U,f) =-0.131E-02 0.299E-02-0.156E-02
CGA: 111    -0.219826693865E+03   -0.95715E-03   -0.96594E-03  5760   0.113E-01 0.116E-03
 gam= 1.429 trial= 0.223  step= 0.250 mean= 0.223
 gam= 0.860 g(H,U,f)=  0.438E-02 0.433E-02 0.105E-02 ort(H,U,f) =-0.288E-02 0.340E-02-0.120E-03
CGA: 112    -0.219828137652E+03   -0.14438E-02   -0.14381E-02  5760   0.976E-02 0.402E-03
 gam= 0.860 trial= 0.224  step= 0.216 mean= 0.224
 gam= 0.000 g(H,U,f)=  0.452E-02 0.536E-02 0.725E-03 ort(H,U,f) =-0.176E-02 0.257E-02-0.733E-03
SDA: 113    -0.219829232071E+03   -0.10944E-02   -0.10934E-02  5760   0.106E-01 0.746E-04
 gam= 0.000 trial= 0.224  step= 0.225 mean= 0.224
 gam= 0.611 g(H,U,f)=  0.209E-02 0.254E-02 0.185E-02 ort(H,U,f) = 0.167E-02-0.463E-03-0.123E-02
CGA: 114    -0.219830422766E+03   -0.11907E-02   -0.11909E-02  5760   0.648E-02-0.226E-04
 gam= 0.611 trial= 0.224  step= 0.374 mean= 0.224
 gam= 0.783 g(H,U,f)=  0.132E-02 0.323E-02 0.528E-03 ort(H,U,f) = 0.375E-04 0.118E-03-0.569E-03
CGA: 115    -0.219831568047E+03   -0.11453E-02   -0.12087E-02  5760   0.507E-02-0.414E-03
 gam= 0.783 trial= 0.232  step= 0.469 mean= 0.232
 gam= 0.575 g(H,U,f)=  0.128E-02 0.163E-02 0.917E-05 ort(H,U,f) =-0.914E-03 0.851E-03-0.411E-05
CGA: 116    -0.219832669977E+03   -0.11019E-02   -0.11132E-02  5760   0.291E-02-0.669E-04
 gam= 0.575 trial= 0.243  step= 0.622 mean= 0.243
 gam= 0.850 g(H,U,f)=  0.997E-03 0.125E-02 0.226E-03 ort(H,U,f) =-0.615E-03 0.635E-03-0.199E-06
CGA: 117    -0.219833567628E+03   -0.89765E-03   -0.89405E-03  5760   0.248E-02 0.194E-04
 gam= 0.850 trial= 0.262  step= 0.371 mean= 0.262
 gam= 1.523 g(H,U,f)=  0.799E-03 0.146E-02 0.151E-02 ort(H,U,f) =-0.908E-04 0.645E-03-0.605E-03
CGA: 118    -0.219834024927E+03   -0.45730E-03   -0.46237E-03  5760   0.377E-02-0.503E-04
 gam= 1.523 trial= 0.268  step= 0.479 mean= 0.268
 gam= 0.651 g(H,U,f)=  0.119E-02 0.124E-02 0.285E-04 ort(H,U,f) =-0.113E-02 0.119E-02-0.744E-04
CGA: 119    -0.219834907489E+03   -0.88256E-03   -0.88498E-03  5760   0.246E-02-0.721E-05
 gam= 0.651 trial= 0.278  step= 0.661 mean= 0.278
 gam= 1.176 g(H,U,f)=  0.122E-02 0.167E-02 0.851E-06 ort(H,U,f) =-0.526E-03 0.521E-03 0.209E-05
CGA: 120    -0.219835717641E+03   -0.81015E-03   -0.81047E-03  5760   0.289E-02-0.252E-05
 gam= 1.176 trial= 0.297  step= 0.904 mean= 0.297
 gam= 1.496 g(H,U,f)=  0.170E-02 0.245E-02 0.167E-03 ort(H,U,f) =-0.724E-03 0.764E-03-0.581E-04
CGA: 121    -0.219837015745E+03   -0.12981E-02   -0.13034E-02  5760   0.432E-02-0.181E-04
 gam= 1.496 trial= 0.328  step= 0.610 mean= 0.328
 gam= 1.233 g(H,U,f)=  0.222E-02 0.216E-02 0.948E-03 ort(H,U,f) =-0.128E-02 0.140E-02-0.158E-03
CGA: 122    -0.219838318685E+03   -0.13029E-02   -0.13100E-02  5760   0.532E-02-0.323E-04
 gam= 1.233 trial= 0.342  step= 0.341 mean= 0.342
 gam= 1.132 g(H,U,f)=  0.192E-02 0.290E-02 0.121E-02 ort(H,U,f) =-0.482E-03 0.134E-02-0.791E-03
CGA: 123    -0.219839220091E+03   -0.90141E-03   -0.90143E-03  5760   0.603E-02 0.715E-04
 gam= 1.132 trial= 0.342  step= 0.455 mean= 0.342
 gam= 0.685 g(H,U,f)=  0.228E-02 0.179E-02 0.633E-04 ort(H,U,f) =-0.133E-02 0.130E-02-0.884E-04
CGA: 124    -0.219840599559E+03   -0.13795E-02   -0.13905E-02  5760   0.413E-02-0.113E-03
 gam= 0.685 trial= 0.348  step= 0.748 mean= 0.348
 gam= 0.746 g(H,U,f)=  0.162E-02 0.135E-02 0.105E-03 ort(H,U,f) =-0.854E-03 0.871E-03 0.720E-05
CGA: 125    -0.219842119696E+03   -0.15201E-02   -0.15150E-02  5760   0.308E-02 0.241E-04
 gam= 0.746 trial= 0.368  step= 0.626 mean= 0.368
 gam= 1.283 g(H,U,f)=  0.132E-02 0.212E-02 0.507E-03 ort(H,U,f) =-0.218E-03 0.439E-03-0.256E-03
CGA: 126    -0.219843076070E+03   -0.95637E-03   -0.96815E-03  5760   0.395E-02-0.355E-04
 gam= 1.283 trial= 0.380  step= 0.360 mean= 0.380
 gam= 1.006 g(H,U,f)=  0.145E-02 0.191E-02 0.612E-03 ort(H,U,f) =-0.685E-03 0.901E-03-0.192E-03
CGA: 127    -0.219843779623E+03   -0.70355E-03   -0.70325E-03  5760   0.397E-02 0.239E-04
 gam= 1.006 trial= 0.379  step= 0.337 mean= 0.379
 gam= 0.751 g(H,U,f)=  0.102E-02 0.162E-02 0.351E-03 ort(H,U,f) =-0.613E-03 0.919E-03-0.323E-03
CGA: 128    -0.219844457047E+03   -0.67742E-03   -0.67379E-03  5760   0.298E-02-0.170E-04
 gam= 0.751 trial= 0.377  step= 0.632 mean= 0.377
 gam= 0.763 g(H,U,f)=  0.121E-02 0.923E-03 0.141E-03 ort(H,U,f) =-0.684E-03 0.703E-03-0.632E-04
CGA: 129    -0.219845384994E+03   -0.92795E-03   -0.93944E-03  5760   0.228E-02-0.442E-04
 gam= 0.763 trial= 0.390  step= 0.574 mean= 0.390
 gam= 1.390 g(H,U,f)=  0.966E-03 0.156E-02 0.636E-03 ort(H,U,f) =-0.288E-03 0.489E-03-0.204E-03
CGA: 130    -0.219846022714E+03   -0.63772E-03   -0.64366E-03  5760   0.316E-02-0.261E-05
 gam= 1.390 trial= 0.399  step= 0.269 mean= 0.399
 gam= 0.607 g(H,U,f)=  0.627E-03 0.997E-03 0.296E-03 ort(H,U,f) =-0.124E-03 0.395E-03-0.235E-03
CGA: 131    -0.219846455459E+03   -0.43275E-03   -0.42556E-03  5760   0.192E-02 0.369E-04
 gam= 0.607 trial= 0.393  step= 0.442 mean= 0.393
 gam= 0.581 g(H,U,f)=  0.598E-03 0.482E-03 0.351E-04 ort(H,U,f) =-0.230E-03 0.241E-03-0.547E-04
CGA: 132    -0.219846882483E+03   -0.42702E-03   -0.42955E-03  5760   0.111E-02-0.439E-04
 gam= 0.581 trial= 0.395  step= 0.514 mean= 0.395
 gam= 1.033 g(H,U,f)=  0.382E-03 0.552E-03 0.217E-03 ort(H,U,f) =-0.383E-04 0.549E-04-0.791E-05
CGA: 133    -0.219847162444E+03   -0.27996E-03   -0.27993E-03  5760   0.115E-02 0.865E-05
 gam= 1.033 trial= 0.401  step= 0.365 mean= 0.401
 gam= 1.017 g(H,U,f)=  0.365E-03 0.555E-03 0.251E-03 ort(H,U,f) = 0.422E-06 0.234E-03-0.229E-03
CGA: 134    -0.219847375763E+03   -0.21332E-03   -0.21158E-03  5760   0.117E-02 0.524E-05
 gam= 1.017 trial= 0.399  step= 0.296 mean= 0.399
 gam= 0.411 g(H,U,f)=  0.242E-03 0.214E-03 0.254E-04 ort(H,U,f) =-0.187E-03 0.196E-03-0.542E-05
CGA: 135    -0.219847549935E+03   -0.17417E-03   -0.17390E-03  5760   0.481E-03 0.371E-05
 gam= 0.411 trial= 0.394  step= 0.562 mean= 0.394
 gam= 0.902 g(H,U,f)=  0.188E-03 0.228E-03 0.177E-04 ort(H,U,f) =-0.323E-04 0.533E-04-0.195E-04
CGA: 136    -0.219847684946E+03   -0.13501E-03   -0.13563E-03  5760   0.434E-03 0.148E-05
 gam= 0.902 trial= 0.403  step= 0.513 mean= 0.403
 gam= 0.993 g(H,U,f)=  0.141E-03 0.176E-03 0.113E-03 ort(H,U,f) =-0.619E-04 0.666E-04 0.432E-06
CGA: 137    -0.219847796841E+03   -0.11189E-03   -0.11165E-03  5760   0.431E-03 0.513E-05
 gam= 0.993 trial= 0.408  step= 0.216 mean= 0.408
 gam= 0.436 g(H,U,f)=  0.828E-04 0.758E-04 0.293E-04 ort(H,U,f) =-0.263E-04 0.917E-04-0.580E-04
CGA: 138    -0.219847845798E+03   -0.48957E-04   -0.46998E-04  5760   0.188E-03 0.741E-05
 gam= 0.436 trial= 0.399  step= 0.603 mean= 0.399
 gam= 1.129 g(H,U,f)=  0.765E-04 0.126E-03 0.971E-05 ort(H,U,f) =-0.113E-04 0.886E-05-0.216E-05
CGA: 139    -0.219847902807E+03   -0.57008E-04   -0.57657E-04  5760   0.212E-03-0.464E-05
 gam= 1.129 trial= 0.409  step= 0.450 mean= 0.409
 gam= 0.689 g(H,U,f)=  0.534E-04 0.693E-04 0.235E-04 ort(H,U,f) =-0.350E-04 0.457E-04-0.115E-04
CGA: 140    -0.219847949306E+03   -0.46499E-04   -0.46556E-04  5760   0.146E-03-0.733E-06
 gam= 0.689 trial= 0.411  step= 0.277 mean= 0.411
 gam= 0.809 g(H,U,f)=  0.393E-04 0.510E-04 0.280E-04 ort(H,U,f) =-0.654E-05 0.249E-04-0.169E-04
CGA: 141    -0.219847969707E+03   -0.20401E-04   -0.20224E-04  5760   0.118E-03 0.155E-05
 gam= 0.809 trial= 0.404  step= 0.494 mean= 0.404
 gam= 1.060 g(H,U,f)=  0.491E-04 0.669E-04 0.946E-05 ort(H,U,f) =-0.216E-04 0.272E-04-0.816E-05
CGA: 142    -0.219847999025E+03   -0.29318E-04   -0.29540E-04  5760   0.125E-03-0.256E-05
 gam= 1.060 trial= 0.409  step= 0.577 mean= 0.409
 gam= 1.014 g(H,U,f)=  0.529E-04 0.604E-04 0.139E-04 ort(H,U,f) =-0.391E-04 0.371E-04-0.650E-06
CGA: 143    -0.219848034055E+03   -0.35031E-04   -0.35384E-04  5760   0.127E-03-0.269E-05
 gam= 1.014 trial= 0.417  step= 0.375 mean= 0.417
 gam= 0.000 g(H,U,f)=  0.568E-04 0.700E-04 0.395E-04 ort(H,U,f) =-0.185E-04 0.421E-04-0.223E-04
SDA: 144    -0.219848057497E+03   -0.23442E-04   -0.23361E-04  5760   0.166E-03 0.126E-05
 gam= 0.000 trial= 0.415  step= 0.172 mean= 0.415
 gam= 0.473 g(H,U,f)=  0.295E-04 0.354E-04 0.137E-04 ort(H,U,f) = 0.278E-04 0.135E-05-0.231E-04
CGA: 145    -0.219848072407E+03   -0.14910E-04   -0.14327E-04  5760   0.786E-04 0.603E-05
 gam= 0.473 trial= 0.403  step= 0.471 mean= 0.403
 gam= 0.803 g(H,U,f)=  0.201E-04 0.424E-04 0.578E-06 ort(H,U,f) =-0.484E-05 0.678E-05-0.505E-06
CGA: 146    -0.219848091637E+03   -0.19230E-04   -0.19207E-04  5760   0.632E-04 0.143E-05
 gam= 0.803 trial= 0.406  step= 0.640 mean= 0.406
 gam= 0.854 g(H,U,f)=  0.260E-04 0.267E-04 0.119E-05 ort(H,U,f) =-0.214E-04 0.228E-04 0.178E-06
CGA: 147    -0.219848112425E+03   -0.20788E-04   -0.20591E-04  5760   0.539E-04 0.166E-05
 gam= 0.854 trial= 0.418  step= 0.664 mean= 0.418
 gam= 2.306 g(H,U,f)=  0.349E-04 0.605E-04 0.289E-04 ort(H,U,f) =-0.117E-04 0.194E-04-0.604E-05
CGA: 148    -0.219848130696E+03   -0.18271E-04   -0.18370E-04  5760   0.124E-03 0.174E-05
 gam= 2.306 trial= 0.430  step= 0.294 mean= 0.430
 gam= 0.796 g(H,U,f)=  0.352E-04 0.501E-04 0.137E-04 ort(H,U,f) =-0.273E-04 0.403E-04-0.102E-04
CGA: 149    -0.219848149822E+03   -0.19126E-04   -0.18837E-04  5760   0.990E-04 0.283E-05
 gam= 0.796 trial= 0.423  step= 0.536 mean= 0.423
 gam= 0.825 g(H,U,f)=  0.408E-04 0.406E-04 0.309E-06 ort(H,U,f) =-0.277E-04 0.284E-04-0.818E-06
CGA: 150    -0.219848176786E+03   -0.26964E-04   -0.27140E-04  5760   0.817E-04-0.115E-06
 gam= 0.825 trial= 0.429  step= 0.855 mean= 0.429
 gam= 1.056 g(H,U,f)=  0.464E-04 0.395E-04 0.391E-06 ort(H,U,f) =-0.213E-04 0.212E-04-0.236E-06
CGA: 151    -0.219848211632E+03   -0.34846E-04   -0.34881E-04  5760   0.863E-04-0.288E-06
 gam= 1.056 trial= 0.450  step= 0.818 mean= 0.450
 gam= 1.524 g(H,U,f)=  0.501E-04 0.680E-04 0.133E-04 ort(H,U,f) =-0.182E-04 0.125E-04 0.137E-06
CGA: 152    -0.219848245988E+03   -0.34356E-04   -0.35166E-04  5760   0.131E-03-0.553E-05
 gam= 1.524 trial= 0.469  step= 0.319 mean= 0.469
 gam= 1.025 g(H,U,f)=  0.438E-04 0.674E-04 0.235E-04 ort(H,U,f) =-0.584E-05 0.384E-04-0.170E-04
CGA: 153    -0.219848267033E+03   -0.21045E-04   -0.19610E-04  5760   0.135E-03 0.155E-04
 gam= 1.025 trial= 0.461  step= 0.348 mean= 0.461
 gam= 0.560 g(H,U,f)=  0.388E-04 0.351E-04 0.148E-05 ort(H,U,f) =-0.311E-04 0.305E-04-0.138E-05
CGA: 154    -0.219848293671E+03   -0.26638E-04   -0.26234E-04  5760   0.754E-04-0.192E-05
 gam= 0.560 trial= 0.456  step= 0.857 mean= 0.456
 gam= 1.282 g(H,U,f)=  0.413E-04 0.488E-04 0.665E-05 ort(H,U,f) =-0.163E-04 0.160E-04-0.119E-05
CGA: 155    -0.219848324187E+03   -0.30516E-04   -0.31863E-04  5760   0.967E-04-0.142E-05
 gam= 1.282 trial= 0.476  step= 0.334 mean= 0.476
 gam= 1.005 g(H,U,f)=  0.387E-04 0.475E-04 0.110E-04 ort(H,U,f) =-0.771E-05 0.217E-04-0.642E-05
CGA: 156    -0.219848340885E+03   -0.16698E-04   -0.15850E-04  5760   0.972E-04 0.755E-05
 gam= 1.005 trial= 0.469  step= 0.350 mean= 0.469
 gam= 0.571 g(H,U,f)=  0.276E-04 0.246E-04 0.335E-05 ort(H,U,f) =-0.142E-04 0.180E-04-0.237E-05
CGA: 157    -0.219848360281E+03   -0.19396E-04   -0.18348E-04  5760   0.555E-04 0.141E-05
 gam= 0.571 trial= 0.463  step= 0.604 mean= 0.463
 gam= 1.505 g(H,U,f)=  0.261E-04 0.466E-04 0.108E-04 ort(H,U,f) =-0.323E-05 0.747E-05-0.337E-05
CGA: 158    -0.219848376618E+03   -0.16337E-04   -0.17016E-04  5760   0.836E-04 0.867E-06
 gam= 1.505 trial= 0.470  step= 0.257 mean= 0.470
 gam= 0.466 g(H,U,f)=  0.190E-04 0.171E-04 0.279E-05 ort(H,U,f) =-0.113E-04 0.186E-04-0.270E-05
CGA: 159    -0.219848388204E+03   -0.11586E-04   -0.10925E-04  5760   0.389E-04 0.458E-05
 gam= 0.466 trial= 0.459  step= 0.451 mean= 0.459
 gam= 0.667 g(H,U,f)=  0.120E-04 0.124E-04 0.160E-05 ort(H,U,f) =-0.466E-05 0.597E-05-0.120E-05
CGA: 160    -0.219848397475E+03   -0.92709E-05   -0.92548E-05  5760   0.260E-04 0.116E-06
 gam= 0.667 trial= 0.459  step= 0.585 mean= 0.459
 gam= 1.404 g(H,U,f)=  0.108E-04 0.194E-04 0.630E-05 ort(H,U,f) =-0.276E-05 0.496E-05-0.165E-05
CGA: 161    -0.219848404971E+03   -0.74965E-05   -0.76163E-05  5760   0.364E-04 0.546E-06
 gam= 1.404 trial= 0.465  step= 0.239 mean= 0.465
 gam= 0.461 g(H,U,f)=  0.775E-05 0.783E-05 0.122E-05 ort(H,U,f) =-0.539E-05 0.910E-05-0.174E-05
CGA: 162    -0.219848409852E+03   -0.48810E-05   -0.44472E-05  5760   0.168E-04 0.197E-05
 gam= 0.461 trial= 0.454  step= 0.499 mean= 0.454
 gam= 0.787 g(H,U,f)=  0.625E-05 0.636E-05 0.599E-06 ort(H,U,f) =-0.203E-05 0.312E-05-0.285E-06
CGA: 163    -0.219848414276E+03   -0.44234E-05   -0.44175E-05  5760   0.132E-04 0.804E-06
 gam= 0.787 trial= 0.456  step= 0.657 mean= 0.456
 gam= 1.183 g(H,U,f)=  0.619E-05 0.701E-05 0.243E-05 ort(H,U,f) =-0.250E-05 0.284E-05-0.736E-06
CGA: 164    -0.219848418686E+03   -0.44109E-05   -0.45444E-05  5760   0.156E-04-0.395E-06
 gam= 1.183 trial= 0.466  step= 0.282 mean= 0.466
 gam= 0.870 g(H,U,f)=  0.495E-05 0.675E-05 0.189E-05 ort(H,U,f) =-0.116E-05 0.291E-05-0.128E-05
CGA: 165    -0.219848420957E+03   -0.22710E-05   -0.21403E-05  5760   0.136E-04 0.474E-06
 gam= 0.870 trial= 0.457  step= 0.416 mean= 0.457
 gam= 0.527 g(H,U,f)=  0.378E-05 0.332E-05 0.636E-07 ort(H,U,f) =-0.215E-05 0.190E-05-0.127E-06
CGA: 166    -0.219848423890E+03   -0.29325E-05   -0.29143E-05  5760   0.717E-05-0.379E-06
 gam= 0.527 trial= 0.455  step= 0.679 mean= 0.455
 gam= 0.786 g(H,U,f)=  0.278E-05 0.258E-05 0.268E-06 ort(H,U,f) =-0.907E-06 0.136E-05-0.105E-07
CGA: 167    -0.219848426310E+03   -0.24202E-05   -0.23666E-05  5760   0.563E-05 0.447E-06
 gam= 0.786 trial= 0.466  step= 0.591 mean= 0.466
 gam= 1.308 g(H,U,f)=  0.190E-05 0.360E-05 0.186E-05 ort(H,U,f) =-0.603E-06 0.133E-05-0.712E-06
CGA: 168    -0.219848428048E+03   -0.17381E-05   -0.17687E-05  5760   0.737E-05 0.191E-07
 gam= 1.308 trial= 0.472  step= 0.218 mean= 0.472
 gam= 0.553 g(H,U,f)=  0.203E-05 0.180E-05 0.254E-06 ort(H,U,f) =-0.122E-05 0.166E-05-0.319E-06
CGA: 169    -0.219848428895E+03   -0.84668E-06   -0.80528E-06  5760   0.408E-05 0.124E-06
 gam= 0.553 trial= 0.460  step= 0.674 mean= 0.460
 gam= 1.022 g(H,U,f)=  0.185E-05 0.227E-05 0.469E-07 ort(H,U,f) =-0.850E-06 0.658E-06 0.334E-07
CGA: 170    -0.219848430274E+03   -0.13791E-05   -0.13980E-05  5760   0.417E-05-0.158E-06
 gam= 1.022 trial= 0.470  step= 0.524 mean= 0.470
 gam= 1.664 g(H,U,f)=  0.195E-05 0.330E-05 0.168E-05 ort(H,U,f) =-0.713E-06 0.138E-05-0.426E-06
CGA: 171    -0.219848431320E+03   -0.10458E-05   -0.10484E-05  5760   0.693E-05 0.237E-06
 gam= 1.664 trial= 0.473  step= 0.239 mean= 0.473
 gam= 0.478 g(H,U,f)=  0.162E-05 0.142E-05 0.273E-06 ort(H,U,f) =-0.150E-05 0.206E-05-0.363E-06
CGA: 172    -0.219848432246E+03   -0.92598E-06   -0.87720E-06  5760   0.331E-05 0.195E-06
 gam= 0.478 trial= 0.461  step= 1.055 mean= 0.461
 gam= 2.046 g(H,U,f)=  0.291E-05 0.376E-05 0.108E-06 ort(H,U,f) =-0.125E-05 0.830E-06-0.672E-07
CGA: 173    -0.219848433890E+03   -0.16446E-05   -0.17955E-05  5760   0.678E-05-0.483E-06
 gam= 2.046 trial= 0.491  step= 0.708 mean= 0.491
 gam= 0.902 g(H,U,f)=  0.384E-05 0.216E-05 0.115E-06 ort(H,U,f) =-0.307E-05 0.318E-05-0.182E-07
CGA: 174    -0.219848435948E+03   -0.20580E-05   -0.20495E-05  5760   0.611E-05 0.957E-07
 gam= 0.902 trial= 0.502  step= 0.787 mean= 0.502
 gam= 0.000 g(H,U,f)=  0.477E-05 0.378E-05 0.409E-06 ort(H,U,f) =-0.182E-05 0.200E-05-0.157E-06
SDA: 175    -0.219848438390E+03   -0.24413E-05   -0.24375E-05  5760   0.895E-05 0.189E-07
 gam= 0.000 trial= 0.516  step= 0.383 mean= 0.516
 gam= 0.829 g(H,U,f)=  0.217E-05 0.309E-05 0.216E-05 ort(H,U,f) = 0.138E-05-0.597E-06-0.927E-06
CGA: 176    -0.219848440119E+03   -0.17294E-05   -0.17134E-05  5760   0.742E-05-0.139E-06
 gam= 0.829 trial= 0.509  step= 0.241 mean= 0.509
 gam= 0.660 g(H,U,f)=  0.175E-05 0.263E-05 0.510E-06 ort(H,U,f) = 0.948E-06-0.121E-06-0.676E-06
CGA: 177    -0.219848441010E+03   -0.89054E-06   -0.88119E-06  5760   0.490E-05 0.151E-06
 gam= 0.660 trial= 0.496  step= 0.478 mean= 0.496
 gam= 0.458 g(H,U,f)=  0.106E-05 0.117E-05 0.624E-08 ort(H,U,f) =-0.596E-06 0.939E-06 0.774E-08
CGA: 178    -0.219848442201E+03   -0.11914E-05   -0.11946E-05  5760   0.224E-05 0.350E-06
 gam= 0.458 trial= 0.495  step= 0.547 mean= 0.495
 gam= 1.253 g(H,U,f)=  0.808E-06 0.126E-05 0.739E-06 ort(H,U,f) =-0.257E-06 0.362E-06-0.948E-07
CGA: 179    -0.219848442858E+03   -0.65668E-06   -0.65638E-06  5760   0.281E-05 0.102E-07
 gam= 1.253 trial= 0.498  step= 0.241 mean= 0.498
 final diagonalization
   1 F= -.23112003E+03 E0= -.23111683E+03  d E =-.640553E-02  mag=     6.0000
