 vasp.5.4.4.18Apr17-6-g9f103f2a35 (build Nov 22 2021 14:44:17) complex          
  
 executed on             LinuxIFC date 2022.08.05  13:33:18
 running on   64 total cores
 distrk:  each k-point on   64 cores,    1 groups
 distr:  one band on NCORES_PER_BAND=   4 cores,   16 groups


--------------------------------------------------------------------------------------------------------


 INCAR:
 POTCAR:    PAW_PBE Li 17Jan2003                  
 POTCAR:    PAW_PBE Co 02Aug2007                  
 POTCAR:    PAW_PBE O 08Apr2002                   
 POTCAR:    PAW_PBE Li 17Jan2003                  
   VRHFIN =Li: s1p0                                                             
   LEXCH  = PE                                                                  
   EATOM  =     5.3001 eV,    0.3895 Ry                                         
                                                                                
   TITEL  = PAW_PBE Li 17Jan2003                                                
   LULTRA =        F    use ultrasoft PP ?                                      
   IUNSCR =        1    unscreen: 0-lin 1-nonlin 2-no                           
   RPACOR =    1.500    partial core radius                                     
   POMASS =    7.010; ZVAL   =    1.000    mass and valenz                      
   RCORE  =    2.050    outmost cutoff radius                                   
   RWIGS  =    2.600; RWIGS  =    1.376    wigner-seitz radius (au A)           
   ENMAX  =  140.000; ENMIN  =  100.000 eV                                      
   ICORE  =        2    local potential                                         
   LCOR   =        T    correct aug charges                                     
   LPAW   =        T    paw PP                                                  
   EAUG   =  331.638                                                            
   DEXC   =    0.000                                                            
   RMAX   =    2.098    core radius for proj-oper                               
   RAUG   =    1.300    factor for augmentation sphere                          
   RDEP   =    2.094    radius for radial grids                                 
   RDEPT  =    1.810    core radius for aug-charge                              
                                                                                
   Atomic configuration                                                         
    4 entries                                                                   
     n  l   j            E        occ.                                          
     1  0  0.50       -51.8549   2.0000                                         
     2  0  0.50        -2.8742   1.0000                                         
     2  1  0.50        -1.3606   0.0000                                         
     3  2  1.50        -1.3606   0.0000                                         
   Description                                                                  
     l       E           TYP  RCUT    TYP  RCUT                                 
     0     -2.8742052     23  2.050                                             
     0     27.2116520     23  2.050                                             
     1     -1.3605826     23  2.050                                             
     2     -1.3605826     23  2.050                                             
  local pseudopotential read in
  partial core-charges read in
  partial kinetic energy density read in
  atomic valenz-charges read in
  non local Contribution for L=           0  read in
    real space projection operators read in
  non local Contribution for L=           0  read in
    real space projection operators read in
  non local Contribution for L=           1  read in
    real space projection operators read in
    PAW grid and wavefunctions read in
 
   number of l-projection  operators is LMAX  =           3
   number of lm-projection operators is LMMAX =           5
 
 POTCAR:    PAW_PBE Co 02Aug2007                  
   VRHFIN =Co: d8 s1                                                            
   LEXCH  = PE                                                                  
   EATOM  =   813.3670 eV,   59.7808 Ry                                         
                                                                                
   TITEL  = PAW_PBE Co 02Aug2007                                                
   LULTRA =        F    use ultrasoft PP ?                                      
   IUNSCR =        1    unscreen: 0-lin 1-nonlin 2-no                           
   RPACOR =    2.000    partial core radius                                     
   POMASS =   58.933; ZVAL   =    9.000    mass and valenz                      
   RCORE  =    2.300    outmost cutoff radius                                   
   RWIGS  =    2.460; RWIGS  =    1.302    wigner-seitz radius (au A)           
   ENMAX  =  267.968; ENMIN  =  200.976 eV                                      
   RCLOC  =    1.203    cutoff for local pot                                    
   LCOR   =        T    correct aug charges                                     
   LPAW   =        T    paw PP                                                  
   EAUG   =  477.818                                                            
   DEXC   =    0.000                                                            
   RMAX   =    2.360    core radius for proj-oper                               
   RAUG   =    1.300    factor for augmentation sphere                          
   RDEP   =    2.393    radius for radial grids                                 
   RDEPT  =    1.864    core radius for aug-charge                              
                                                                                
   Atomic configuration                                                         
    9 entries                                                                   
     n  l   j            E        occ.                                          
     1  0  0.50     -7587.6674   2.0000                                         
     2  0  0.50      -893.6084   2.0000                                         
     2  1  1.50      -764.5805   6.0000                                         
     3  0  0.50       -97.5973   2.0000                                         
     3  1  1.50       -60.9648   6.0000                                         
     3  2  2.50        -4.2382   8.0000                                         
     4  0  0.50        -4.3746   1.0000                                         
     4  1  1.50        -4.0817   0.0000                                         
     4  3  2.50        -1.3606   0.0000                                         
   Description                                                                  
     l       E           TYP  RCUT    TYP  RCUT                                 
     2     -4.2382362     23  2.300                                             
     2     -5.5988188     23  2.300                                             
     0     -4.3745797     23  2.300                                             
     0      5.7660125     23  2.300                                             
     1     -2.7211652     23  2.300                                             
     1     16.9860234     23  2.300                                             
  local pseudopotential read in
  partial core-charges read in
  partial kinetic energy density read in
  atomic valenz-charges read in
  non local Contribution for L=           2  read in
    real space projection operators read in
  non local Contribution for L=           2  read in
    real space projection operators read in
  non local Contribution for L=           0  read in
    real space projection operators read in
  non local Contribution for L=           0  read in
    real space projection operators read in
  non local Contribution for L=           1  read in
    real space projection operators read in
  non local Contribution for L=           1  read in
    real space projection operators read in
    PAW grid and wavefunctions read in
 
   number of l-projection  operators is LMAX  =           6
   number of lm-projection operators is LMMAX =          18
 
 POTCAR:    PAW_PBE O 08Apr2002                   
   VRHFIN =O: s2p4                                                              
   LEXCH  = PE                                                                  
   EATOM  =   432.3788 eV,   31.7789 Ry                                         
                                                                                
   TITEL  = PAW_PBE O 08Apr2002                                                 
   LULTRA =        F    use ultrasoft PP ?                                      
   IUNSCR =        1    unscreen: 0-lin 1-nonlin 2-no                           
   RPACOR =    1.200    partial core radius                                     
   POMASS =   16.000; ZVAL   =    6.000    mass and valenz                      
   RCORE  =    1.520    outmost cutoff radius                                   
   RWIGS  =    1.550; RWIGS  =    0.820    wigner-seitz radius (au A)           
   ENMAX  =  400.000; ENMIN  =  300.000 eV                                      
   ICORE  =        2    local potential                                         
   LCOR   =        T    correct aug charges                                     
   LPAW   =        T    paw PP                                                  
   EAUG   =  605.392                                                            
   DEXC   =    0.000                                                            
   RMAX   =    1.553    core radius for proj-oper                               
   RAUG   =    1.300    factor for augmentation sphere                          
   RDEP   =    1.550    radius for radial grids                                 
   RDEPT  =    1.329    core radius for aug-charge                              
                                                                                
   Atomic configuration                                                         
    4 entries                                                                   
     n  l   j            E        occ.                                          
     1  0  0.50      -514.6923   2.0000                                         
     2  0  0.50       -23.9615   2.0000                                         
     2  1  0.50        -9.0305   4.0000                                         
     3  2  1.50        -9.5241   0.0000                                         
   Description                                                                  
     l       E           TYP  RCUT    TYP  RCUT                                 
     0    -23.9615318     23  1.200                                             
     0     -9.5240782     23  1.200                                             
     1     -9.0304911     23  1.520                                             
     1      8.1634956     23  1.520                                             
     2     -9.5240782      7  1.500                                             
  local pseudopotential read in
  partial core-charges read in
  partial kinetic energy density read in
  kinetic energy density of atom read in
  atomic valenz-charges read in
  non local Contribution for L=           0  read in
    real space projection operators read in
  non local Contribution for L=           0  read in
    real space projection operators read in
  non local Contribution for L=           1  read in
    real space projection operators read in
  non local Contribution for L=           1  read in
    real space projection operators read in
    PAW grid and wavefunctions read in
 
   number of l-projection  operators is LMAX  =           4
   number of lm-projection operators is LMMAX =           8
 
 Optimization of the real space projectors (new method)

 maximal supplied QI-value         = 18.33
 optimisation between [QCUT,QGAM] = [ 12.46, 24.93] = [ 43.51,174.03] Ry 
 Optimized for a Real-space Cutoff    1.13 Angstroem

   l    n(q)    QCUT    max X(q) W(low)/X(q) W(high)/X(q)  e(spline) 
   0      8    12.465    33.825    0.12E-03    0.29E-03    0.99E-07
   0      8    12.465     8.944    0.86E-04    0.22E-03    0.72E-07
   1      8    12.465     4.214    0.27E-03    0.11E-03    0.82E-07
 Optimization of the real space projectors (new method)

 maximal supplied QI-value         = 16.25
 optimisation between [QCUT,QGAM] = [ 12.51, 25.03] = [ 43.85,175.40] Ry 
 Optimized for a Real-space Cutoff    1.31 Angstroem

   l    n(q)    QCUT    max X(q) W(low)/X(q) W(high)/X(q)  e(spline) 
   2      9    12.514    65.824    0.30E-03    0.46E-03    0.43E-06
   2      9    12.514    61.429    0.31E-03    0.46E-03    0.44E-06
   0     10    12.514    56.174    0.90E-04    0.33E-03    0.30E-06
   0     10    12.514    31.263    0.81E-04    0.30E-03    0.28E-06
   1      9    12.514    19.828    0.38E-03    0.65E-04    0.24E-06
   1      9    12.514    15.139    0.32E-03    0.60E-04    0.20E-06
 Optimization of the real space projectors (new method)

 maximal supplied QI-value         = 24.76
 optimisation between [QCUT,QGAM] = [ 12.38, 25.00] = [ 42.90,175.06] Ry 
 Optimized for a Real-space Cutoff    1.13 Angstroem

   l    n(q)    QCUT    max X(q) W(low)/X(q) W(high)/X(q)  e(spline) 
   0      8    12.378    20.381    0.16E-03    0.54E-05    0.27E-06
   0      8    12.378    15.268    0.17E-03    0.61E-05    0.29E-06
   1      8    12.378     5.964    0.38E-03    0.23E-03    0.28E-06
   1      8    12.378     5.382    0.33E-03    0.20E-03    0.25E-06
  PAW_PBE Li 17Jan2003                  :
 energy of atom  1       EATOM=   -5.3001
 kinetic energy error for atom=    0.0000 (will be added to EATOM!!)
  PAW_PBE Co 02Aug2007                  :
 energy of atom  2       EATOM= -813.3670
 kinetic energy error for atom=    0.0018 (will be added to EATOM!!)
  PAW_PBE O 08Apr2002                   :
 energy of atom  3       EATOM= -432.3788
 kinetic energy error for atom=    0.0168 (will be added to EATOM!!)
 
 
 POSCAR: Li6 Co12 O24                            
  positions in cartesian coordinates
  No initial velocities read in
 exchange correlation table for  LEXCH =        8
   RHO(1)=    0.500       N(1)  =     2000
   RHO(2)=  100.500       N(2)  =     4000
 


--------------------------------------------------------------------------------------------------------


 ion  position               nearest neighbor table
   1  0.376  0.902  0.994-  24 2.09  38 2.16  36 2.23  23 2.23   8 2.76  16 2.88
   2  0.881  0.764  0.324-  19 1.88  22 2.23  32 2.25  34 2.32  20 2.47  10 2.65   8 2.90  11 2.93
                             9 3.14
   3  0.090  0.338  0.662-  29 1.99  40 2.00  28 2.07  39 2.33  27 2.36  42 2.45   5 2.54   4 2.67
                            12 2.71   6 2.73  17 2.87  16 2.89  11 2.91  14 2.92   6 2.96  15 3.08
   4  0.144  0.828  0.676-  39 1.94  40 2.04  41 2.06  28 2.20  27 2.27  30 2.28   3 2.67  16 2.70
                            15 2.72  18 2.81   6 2.82   5 2.82   5 2.88   6 2.90  12 2.99  13 3.04
   5  0.639  0.323  0.655-  27 2.00  30 2.03  41 2.07  29 2.11  42 2.21  40 2.26   3 2.54  12 2.69
                            14 2.78   4 2.82   6 2.83  13 2.84   4 2.88   6 2.90  15 2.98  17 3.09
   6  0.639  0.830  0.663-  29 1.98  30 2.06  39 2.06  28 2.07  42 2.16  41 2.19   3 2.73  14 2.78
                             4 2.82  16 2.83   5 2.83   4 2.90   5 2.90  11 2.93  13 2.94   3 2.96
   7  0.228  0.344  0.170-  22 1.86  25 1.86  19 1.89  23 1.92  20 1.93  24 2.06  10 2.78   9 2.81
                             8 2.86   8 2.88  10 2.89   9 2.90
   8  0.239  0.851  0.172-  21 1.76  24 1.77  26 1.88  23 1.90  19 1.93  20 1.98   9 2.74   1 2.76
                            10 2.83   7 2.86   7 2.88  10 2.88   2 2.90   9 2.94
   9  0.727  0.328  0.172-  20 1.82  25 1.84  23 1.89  22 1.93  26 1.94  21 1.96   8 2.74  10 2.79
                             7 2.81   7 2.90   8 2.94  10 2.94   2 3.14
  10  0.742  0.849  0.168-  26 1.81  21 1.84  22 1.85  25 1.88  19 1.91  24 1.98   2 2.65   7 2.78
                             9 2.79   8 2.83   8 2.88   7 2.89   9 2.94
  11  0.992  1.000  0.504-  31 1.87  29 1.89  27 1.96  34 1.97  32 1.97  30 2.06  14 2.78  13 2.79
                            12 2.86  12 2.88  14 2.90   3 2.91  13 2.92   2 2.93   6 2.93   4 3.12
  12  0.966  0.489  0.511-  31 1.81  32 1.81  33 1.82  30 1.91  28 2.00  29 2.07   5 2.69   3 2.71
                            13 2.81  14 2.82  11 2.86  13 2.86  11 2.88  14 2.89   4 2.99
  13  0.469  0.978  0.503-  34 1.89  33 1.89  32 1.94  27 1.95  28 1.95  29 1.97  11 2.79  14 2.79
                            12 2.81   5 2.84  12 2.86  11 2.92   6 2.94  14 2.95   4 3.04
  14  0.475  0.496  0.512-  31 1.84  28 1.87  34 1.88  30 1.88  27 1.92  33 1.96   5 2.78  11 2.78
                             6 2.78  13 2.79  12 2.82  12 2.89  11 2.90   3 2.92  13 2.95
  15  0.293  0.168  0.820-  35 1.81  36 1.88  41 1.89  42 1.94  37 1.97  39 2.00   4 2.72  18 2.81
                            17 2.83  16 2.85  18 2.87  16 2.88  17 2.88   5 2.98   3 3.08
  16  0.308  0.677  0.818-  36 1.90  40 1.92  38 1.95  42 1.95  35 1.96  41 2.03   4 2.70  17 2.79
                             6 2.83  18 2.84  15 2.85  18 2.88   1 2.88  15 2.88  17 2.89   3 2.89
  17  0.798  0.170  0.827-  35 1.79  38 1.85  37 1.89  41 1.94  40 1.97  39 2.10  16 2.79  15 2.83
                            18 2.86  18 2.87   3 2.87  15 2.88  16 2.89   6 2.98   5 3.09
  18  0.800  0.671  0.827-  36 1.76  39 1.87  42 1.89  37 1.91  40 1.94  38 2.01  15 2.81   4 2.81
                            16 2.84  17 2.86  17 2.87  15 2.87  16 2.88   6 3.01   5 3.09
  19  0.066  0.023  0.236-   2 1.88   7 1.89  10 1.91   8 1.93
  20  0.041  0.502  0.234-   9 1.82   7 1.93   8 1.98   2 2.47
  21  0.545  0.976  0.230-   8 1.76  10 1.84   9 1.96
  22  0.562  0.521  0.225-  10 1.85   7 1.86   9 1.93   2 2.23
  23  0.404  0.177  0.107-   9 1.89   8 1.90   7 1.92   1 2.23
  24  0.395  0.706  0.105-   8 1.77  10 1.98   7 2.06   1 2.09
  25  0.904  0.179  0.109-   9 1.84   7 1.86  10 1.88
  26  0.903  0.677  0.115-  10 1.81   8 1.88   9 1.94
  27  0.321  0.162  0.575-  14 1.92  13 1.95  11 1.96   5 2.00   4 2.27   3 2.36
  28  0.312  0.660  0.578-  14 1.87  13 1.95  12 2.00   3 2.07   6 2.07   4 2.20
  29  0.796  0.123  0.575-  11 1.89  13 1.97   6 1.98   3 1.99  12 2.07   5 2.11
  30  0.798  0.655  0.578-  14 1.88  12 1.91   5 2.03   6 2.06  11 2.06   4 2.28
  31  0.150  0.345  0.455-  12 1.81  14 1.84  11 1.87
  32  0.127  0.783  0.441-  12 1.81  13 1.94  11 1.97   2 2.25
  33  0.651  0.321  0.449-  12 1.82  13 1.89  14 1.96
  34  0.641  0.808  0.444-  14 1.88  13 1.89  11 1.97   2 2.32
  35  0.126  0.328  0.877-  17 1.79  15 1.81  16 1.96
  36  0.120  0.834  0.877-  18 1.76  15 1.88  16 1.90   1 2.23
  37  0.628  0.337  0.889-  17 1.89  18 1.91  15 1.97
  38  0.626  0.856  0.893-  17 1.85  16 1.95  18 2.01   1 2.16
  39  0.951  0.963  0.750-  18 1.87   4 1.94  15 2.00   6 2.06  17 2.10   3 2.33
  40  0.967  0.502  0.757-  16 1.92  18 1.94  17 1.97   3 2.00   4 2.04   5 2.26
  41  0.485  0.032  0.752-  15 1.89  17 1.94  16 2.03   4 2.06   5 2.07   6 2.19
  42  0.488  0.505  0.756-  18 1.89  15 1.94  16 1.95   6 2.16   5 2.21   3 2.45
 

IMPORTANT INFORMATION: All symmetrisations will be switched off!
NOSYMM: (Re-)initialisation of all symmetry stuff for point group C_1.

 
 

Automatic generation of k-mesh.
 generate k-points for:    6    6    2
Space group operators:
 irot       det(A)        alpha          n_x          n_y          n_z        tau_x        tau_y        tau_z
    1     1.000000     0.000001     1.000000     0.000000     0.000000     0.000000     0.000000     0.000000
 
 Subroutine IBZKPT returns following result:
 ===========================================
 
 Found     36 irreducible k-points:
 
 Following reciprocal coordinates:
            Coordinates               Weight
  0.083333  0.083333  0.250000      2.000000
  0.250000  0.083333  0.250000      2.000000
  0.416667  0.083333  0.250000      2.000000
 -0.416667  0.083333  0.250000      2.000000
 -0.250000  0.083333  0.250000      2.000000
 -0.083333  0.083333  0.250000      2.000000
  0.083333  0.250000  0.250000      2.000000
  0.250000  0.250000  0.250000      2.000000
  0.416667  0.250000  0.250000      2.000000
 -0.416667  0.250000  0.250000      2.000000
 -0.250000  0.250000  0.250000      2.000000
 -0.083333  0.250000  0.250000      2.000000
  0.083333  0.416667  0.250000      2.000000
  0.250000  0.416667  0.250000      2.000000
  0.416667  0.416667  0.250000      2.000000
 -0.416667  0.416667  0.250000      2.000000
 -0.250000  0.416667  0.250000      2.000000
 -0.083333  0.416667  0.250000      2.000000
  0.083333 -0.416667  0.250000      2.000000
  0.250000 -0.416667  0.250000      2.000000
  0.416667 -0.416667  0.250000      2.000000
 -0.416667 -0.416667  0.250000      2.000000
 -0.250000 -0.416667  0.250000      2.000000
 -0.083333 -0.416667  0.250000      2.000000
  0.083333 -0.250000  0.250000      2.000000
  0.250000 -0.250000  0.250000      2.000000
  0.416667 -0.250000  0.250000      2.000000
 -0.416667 -0.250000  0.250000      2.000000
 -0.250000 -0.250000  0.250000      2.000000
 -0.083333 -0.250000  0.250000      2.000000
  0.083333 -0.083333  0.250000      2.000000
  0.250000 -0.083333  0.250000      2.000000
  0.416667 -0.083333  0.250000      2.000000
 -0.416667 -0.083333  0.250000      2.000000
 -0.250000 -0.083333  0.250000      2.000000
 -0.083333 -0.083333  0.250000      2.000000
 
 Following cartesian coordinates:
            Coordinates               Weight
  0.014609  0.025501  0.016504      2.000000
  0.043826  0.042732  0.015823      2.000000
  0.073044  0.059963  0.015142      2.000000
 -0.073044 -0.026193  0.018547      2.000000
 -0.043826 -0.008961  0.017866      2.000000
 -0.014609  0.008270  0.017185      2.000000
  0.014609  0.059272  0.017116      2.000000
  0.043826  0.076503  0.016435      2.000000
  0.073044  0.093734  0.015754      2.000000
 -0.073044  0.007578  0.019159      2.000000
 -0.043826  0.024810  0.018478      2.000000
 -0.014609  0.042041  0.017797      2.000000
  0.014609  0.093043  0.017727      2.000000
  0.043826  0.110274  0.017046      2.000000
  0.073044  0.127505  0.016365      2.000000
 -0.073044  0.041349  0.019770      2.000000
 -0.043826  0.058581  0.019089      2.000000
 -0.014609  0.075812  0.018408      2.000000
  0.014609 -0.075812  0.014670      2.000000
  0.043826 -0.058581  0.013989      2.000000
  0.073044 -0.041349  0.013308      2.000000
 -0.073044 -0.127505  0.016714      2.000000
 -0.043826 -0.110274  0.016033      2.000000
 -0.014609 -0.093043  0.015351      2.000000
  0.014609 -0.042041  0.015282      2.000000
  0.043826 -0.024810  0.014601      2.000000
  0.073044 -0.007578  0.013920      2.000000
 -0.073044 -0.093734  0.017325      2.000000
 -0.043826 -0.076503  0.016644      2.000000
 -0.014609 -0.059272  0.015963      2.000000
  0.014609 -0.008270  0.015893      2.000000
  0.043826  0.008961  0.015212      2.000000
  0.073044  0.026193  0.014531      2.000000
 -0.073044 -0.059963  0.017936      2.000000
 -0.043826 -0.042732  0.017255      2.000000
 -0.014609 -0.025501  0.016574      2.000000
 


--------------------------------------------------------------------------------------------------------




 Dimension of arrays:
   k-points           NKPTS =     36   k-points in BZ     NKDIM =     36   number of bands    NBANDS=    160
   number of dos      NEDOS =    301   number of ions     NIONS =     42
   non local maximal  LDIM  =      6   non local SUM 2l+1 LMDIM =     18
   total plane-waves  NPLWV = 124416
   max r-space proj   IRMAX =   2782   max aug-charges    IRDMAX=  11729
   dimension x,y,z NGX =    36 NGY =   36 NGZ =   96
   dimension x,y,z NGXF=    72 NGYF=   72 NGZF=  192
   support grid    NGXF=    72 NGYF=   72 NGZF=  192
   ions per type =               6  12  24
   NGX,Y,Z   is equivalent  to a cutoff of  10.49, 10.45, 10.55 a.u.
   NGXF,Y,Z  is equivalent  to a cutoff of  20.98, 20.89, 21.10 a.u.

 SYSTEM =  LiCoO2                                  
 POSCAR =  Li6 Co12 O24                            

 Startparameter for this run:
   NWRITE =      2    write-flag & timer
   PREC   = normal    normal or accurate (medium, high low for compatibility)
   ISTART =      0    job   : 0-new  1-cont  2-samecut
   ICHARG =      2    charge: 1-file 2-atom 10-const
   ISPIN  =      2    spin polarized calculation?
   LNONCOLLINEAR =      F non collinear calculations
   LSORBIT =      F    spin-orbit coupling
   INIWAV =      1    electr: 0-lowe 1-rand  2-diag
   LASPH  =      F    aspherical Exc in radial PAW
   METAGGA=      F    non-selfconsistent MetaGGA calc.

 Electronic Relaxation 1
   ENCUT  =  600.0 eV  44.10 Ry    6.64 a.u.  11.39 11.44 30.21*2*pi/ulx,y,z
   ENINI  =  600.0     initial cutoff
   ENAUG  =  605.4 eV  augmentation charge cutoff
   NELM   =    600;   NELMIN=  2; NELMDL= -5     # of ELM steps 
   EDIFF  = 0.1E-05   stopping-criterion for ELM
   LREAL  =      T    real-space projection
   NLSPLINE    = F    spline interpolate recip. space projectors
   LCOMPAT=      F    compatible to vasp.4.4
   GGA_COMPAT  = T    GGA compatible to vasp.4.4-vasp.4.6
   LMAXPAW     = -100 max onsite density
   LMAXMIX     =    2 max onsite mixed and CHGCAR
   VOSKOWN=      0    Vosko Wilk Nusair interpolation
   ROPT   =   -0.00050  -0.00050  -0.00050
 Ionic relaxation
   EDIFFG = 0.1E-04   stopping-criterion for IOM
   NSW    =      0    number of steps for IOM
   NBLOCK =      1;   KBLOCK =      1    inner block; outer block 
   IBRION =     -1    ionic relax: 0-MD 1-quasi-New 2-CG
   NFREE  =      0    steps in history (QN), initial steepest desc. (CG)
   ISIF   =      2    stress and relaxation
   IWAVPR =     10    prediction:  0-non 1-charg 2-wave 3-comb
   ISYM   =      0    0-nonsym 1-usesym 2-fastsym
   LCORR  =      T    Harris-Foulkes like correction to forces

   POTIM  = 0.5000    time-step for ionic-motion
   TEIN   =    0.0    initial temperature
   TEBEG  =    0.0;   TEEND  =   0.0 temperature during run
   SMASS  =  -3.00    Nose mass-parameter (am)
   estimated Nose-frequenzy (Omega)   =  0.10E-29 period in steps =****** mass=  -0.744E-27a.u.
   SCALEE = 1.0000    scale energy and forces
   NPACO  =    256;   APACO  = 16.0  distance and # of slots for P.C.
   PSTRESS=    0.0 pullay stress

  Mass of Ions in am
   POMASS =   7.01 58.93 16.00
  Ionic Valenz
   ZVAL   =   1.00  9.00  6.00
  Atomic Wigner-Seitz radii
   RWIGS  =  -1.00 -1.00 -1.00
  virtual crystal weights 
   VCA    =   1.00  1.00  1.00
   NELECT =     258.0000    total number of electrons
   NUPDOWN=       6.0000    fix difference up-down

 DOS related values:
   EMIN   =  10.00;   EMAX   =-10.00  energy-range for DOS
   EFERMI =   0.00
   ISMEAR =     0;   SIGMA  =   0.05  broadening in eV -4-tet -1-fermi 0-gaus

 Electronic relaxation 2 (details)
   IALGO  =     58    algorithm
   LDIAG  =      T    sub-space diagonalisation (order eigenvalues)
   LSUBROT=      F    optimize rotation matrix (better conditioning)
   TURBO    =      0    0=normal 1=particle mesh
   IRESTART =      0    0=no restart 2=restart with 2 vectors
   NREBOOT  =      0    no. of reboots
   NMIN     =      0    reboot dimension
   EREF     =   0.00    reference energy to select bands
   IMIX   =      4    mixing-type and parameters
     AMIX     =   0.40;   BMIX     =  1.00
     AMIX_MAG =   1.60;   BMIX_MAG =  1.00
     AMIN     =   0.10
     WC   =   100.;   INIMIX=   1;  MIXPRE=   1;  MAXMIX= -45

 Intra band minimization:
   WEIMIN = 0.0000     energy-eigenvalue tresh-hold
   EBREAK =  0.16E-08  absolut break condition
   DEPER  =   0.30     relativ break condition  

   TIME   =   0.40     timestep for ELM

  volume/ion in A,a.u.               =      10.13        68.37
  Fermi-wavevector in a.u.,A,eV,Ry     =   1.385594  2.618393 26.121418  1.919870
  Thomas-Fermi vector in A             =   2.509989
 
 Write flags
   LWAVE        =      F    write WAVECAR
   LDOWNSAMPLE  =      F    k-point downsampling of WAVECAR
   LCHARG       =      F    write CHGCAR
   LVTOT        =      F    write LOCPOT, total local potential
   LVHAR        =      F    write LOCPOT, Hartree potential only
   LELF         =      F    write electronic localiz. function (ELF)
   LORBIT       =     11    0 simple, 1 ext, 2 COOP (PROOUT), +10 PAW based schemes


 Dipole corrections
   LMONO  =      F    monopole corrections only (constant potential shift)
   LDIPOL =      F    correct potential (dipole corrections)
   IDIPOL =      0    1-x, 2-y, 3-z, 4-all directions 
   EPSILON=  1.0000000 bulk dielectric constant

 LDA+U is selected, type is set to LDAUTYPE =  2
   angular momentum for each species LDAUL =    -1    2   -1
   U (eV)           for each species LDAUU =   0.0  5.1  0.0
   J (eV)           for each species LDAUJ =   0.0  0.0  0.0
 Exchange correlation treatment:
   GGA     =    --    GGA type
   LEXCH   =     8    internal setting for exchange type
   VOSKOWN=      0    Vosko Wilk Nusair interpolation
   LHFCALC =     F    Hartree Fock is set to
   LHFONE  =     F    Hartree Fock one center treatment
   AEXX    =    0.0000 exact exchange contribution

 Linear response parameters
   LEPSILON=     F    determine dielectric tensor
   LRPA    =     F    only Hartree local field effects (RPA)
   LNABLA  =     F    use nabla operator in PAW spheres
   LVEL    =     F    velocity operator in full k-point grid
   LINTERFAST=   F  fast interpolation
   KINTER  =     0    interpolate to denser k-point grid
   CSHIFT  =0.1000    complex shift for real part using Kramers Kronig
   OMEGAMAX=  -1.0    maximum frequency
   DEG_THRESHOLD= 0.2000000E-02 threshold for treating states as degnerate
   RTIME   =   -0.100 relaxation time in fs
  (WPLASMAI=    0.000 imaginary part of plasma frequency in eV, 0.658/RTIME)
   DFIELD  = 0.0000000 0.0000000 0.0000000 field for delta impulse in time
 
 Orbital magnetization related:
   ORBITALMAG=     F  switch on orbital magnetization
   LCHIMAG   =     F  perturbation theory with respect to B field
   DQ        =  0.001000  dq finite difference perturbation B field
   LLRAUG    =     F  two centre corrections for induced B field



--------------------------------------------------------------------------------------------------------


 Static calculation
 charge density and potential will be updated during run
 spin polarized calculation
 Conjugate gradient for all bands (Freysoldt, et al. PRB 79, 241103 (2009))
 preconditioned conjugated gradient                                        
 perform sub-space diagonalisation
    before iterative eigenvector-optimisation
 modified Broyden-mixing scheme, WC =      100.0
 initial mixing is a Kerker type mixing with AMIX =  0.4000 and BMIX =      1.0000
 Hartree-type preconditioning will be used
 using additional bands           31
 real space projection scheme for non local part
 use partial core corrections
 no Harris-corrections to forces 
 use gradient corrections 
 use of overlap-Matrix (Vanderbilt PP)
 Gauss-broadening in eV      SIGMA  =   0.05


--------------------------------------------------------------------------------------------------------


  energy-cutoff  :      600.00
  volume of cell :      425.54
      direct lattice vectors                 reciprocal lattice vectors
     5.704342365  0.000000000  0.000000000     0.175305046  0.103387254 -0.004086222
    -2.910571575  4.935210705  0.000000000     0.000000000  0.202625594  0.003667796
     0.513697207 -0.273612559 15.115592003     0.000000000  0.000000000  0.066156853

  length of vectors
     5.704342365  5.729548987 15.126793125     0.203561982  0.202658787  0.066156853


 
 k-points in units of 2pi/SCALE and weight: read from INCAR                         
   0.01460875  0.02550107  0.01650434       0.028
   0.04382626  0.04273228  0.01582331       0.028
   0.07304377  0.05996349  0.01514227       0.028
  -0.07304377 -0.02619256  0.01854746       0.028
  -0.04382626 -0.00896135  0.01786642       0.028
  -0.01460875  0.00826986  0.01718538       0.028
   0.01460875  0.05927200  0.01711564       0.028
   0.04382626  0.07650321  0.01643461       0.028
   0.07304377  0.09373442  0.01575357       0.028
  -0.07304377  0.00757838  0.01915875       0.028
  -0.04382626  0.02480958  0.01847772       0.028
  -0.01460875  0.04204079  0.01779668       0.028
   0.01460875  0.09304294  0.01772694       0.028
   0.04382626  0.11027414  0.01704591       0.028
   0.07304377  0.12750535  0.01636487       0.028
  -0.07304377  0.04134931  0.01977005       0.028
  -0.04382626  0.05858052  0.01908902       0.028
  -0.01460875  0.07581173  0.01840798       0.028
   0.01460875 -0.07581173  0.01467045       0.028
   0.04382626 -0.05858052  0.01398941       0.028
   0.07304377 -0.04134931  0.01330837       0.028
  -0.07304377 -0.12750535  0.01671356       0.028
  -0.04382626 -0.11027414  0.01603252       0.028
  -0.01460875 -0.09304294  0.01535148       0.028
   0.01460875 -0.04204079  0.01528175       0.028
   0.04382626 -0.02480958  0.01460071       0.028
   0.07304377 -0.00757838  0.01391967       0.028
  -0.07304377 -0.09373442  0.01732486       0.028
  -0.04382626 -0.07650321  0.01664382       0.028
  -0.01460875 -0.05927200  0.01596278       0.028
   0.01460875 -0.00826986  0.01589305       0.028
   0.04382626  0.00896135  0.01521201       0.028
   0.07304377  0.02619256  0.01453097       0.028
  -0.07304377 -0.05996349  0.01793616       0.028
  -0.04382626 -0.04273228  0.01725512       0.028
  -0.01460875 -0.02550107  0.01657408       0.028
 
 k-points in reciprocal lattice and weights: read from INCAR                         
   0.08333333  0.08333333  0.25000000       0.028
   0.25000000  0.08333333  0.25000000       0.028
   0.41666667  0.08333333  0.25000000       0.028
  -0.41666667  0.08333333  0.25000000       0.028
  -0.25000000  0.08333333  0.25000000       0.028
  -0.08333333  0.08333333  0.25000000       0.028
   0.08333333  0.25000000  0.25000000       0.028
   0.25000000  0.25000000  0.25000000       0.028
   0.41666667  0.25000000  0.25000000       0.028
  -0.41666667  0.25000000  0.25000000       0.028
  -0.25000000  0.25000000  0.25000000       0.028
  -0.08333333  0.25000000  0.25000000       0.028
   0.08333333  0.41666667  0.25000000       0.028
   0.25000000  0.41666667  0.25000000       0.028
   0.41666667  0.41666667  0.25000000       0.028
  -0.41666667  0.41666667  0.25000000       0.028
  -0.25000000  0.41666667  0.25000000       0.028
  -0.08333333  0.41666667  0.25000000       0.028
   0.08333333 -0.41666667  0.25000000       0.028
   0.25000000 -0.41666667  0.25000000       0.028
   0.41666667 -0.41666667  0.25000000       0.028
  -0.41666667 -0.41666667  0.25000000       0.028
  -0.25000000 -0.41666667  0.25000000       0.028
  -0.08333333 -0.41666667  0.25000000       0.028
   0.08333333 -0.25000000  0.25000000       0.028
   0.25000000 -0.25000000  0.25000000       0.028
   0.41666667 -0.25000000  0.25000000       0.028
  -0.41666667 -0.25000000  0.25000000       0.028
  -0.25000000 -0.25000000  0.25000000       0.028
  -0.08333333 -0.25000000  0.25000000       0.028
   0.08333333 -0.08333333  0.25000000       0.028
   0.25000000 -0.08333333  0.25000000       0.028
   0.41666667 -0.08333333  0.25000000       0.028
  -0.41666667 -0.08333333  0.25000000       0.028
  -0.25000000 -0.08333333  0.25000000       0.028
  -0.08333333 -0.08333333  0.25000000       0.028
 
 position of ions in fractional coordinates (direct lattice) 
   0.37609381  0.90243028  0.99430177
   0.88138908  0.76355307  0.32420032
   0.09030209  0.33752722  0.66162147
   0.14364150  0.82847362  0.67621833
   0.63856694  0.32301665  0.65503288
   0.63903956  0.83017065  0.66253176
   0.22818720  0.34407916  0.16992322
   0.23905973  0.85148042  0.17223408
   0.72738267  0.32835272  0.17166579
   0.74210935  0.84897296  0.16823290
   0.99177816  0.99989986  0.50361972
   0.96634396  0.48899960  0.51063433
   0.46875645  0.97796479  0.50272659
   0.47547422  0.49560267  0.51234315
   0.29314728  0.16774479  0.81964766
   0.30755432  0.67731985  0.81782177
   0.79795223  0.16961274  0.82742773
   0.80006164  0.67093928  0.82714325
   0.06616661  0.02318720  0.23611381
   0.04128384  0.50156035  0.23389292
   0.54492450  0.97591173  0.22981435
   0.56196826  0.52078840  0.22513773
   0.40444608  0.17717005  0.10665279
   0.39545694  0.70647147  0.10520594
   0.90351872  0.17922624  0.10880090
   0.90256443  0.67739190  0.11520621
   0.32058341  0.16248951  0.57504662
   0.31243028  0.66019440  0.57781857
   0.79646051  0.12307330  0.57520271
   0.79750622  0.65481704  0.57793435
   0.14963338  0.34450143  0.45479332
   0.12659388  0.78269687  0.44074687
   0.65146449  0.32053523  0.44898869
   0.64089437  0.80816245  0.44351753
   0.12616269  0.32769561  0.87710493
   0.11986828  0.83435220  0.87734967
   0.62754485  0.33744998  0.88916530
   0.62597211  0.85637744  0.89291638
   0.95135549  0.96278657  0.75034838
   0.96722388  0.50164936  0.75729488
   0.48500021  0.03197147  0.75232644
   0.48798603  0.50492170  0.75605108
 
 position of ions in cartesian coordinates  (Angst):
   0.02955000  4.18163013 15.02945995
   2.97191000  3.67958999  4.90047979
  -0.12740999  1.48474002 10.00080013
  -1.24458003  3.90367007 10.22144032
   3.03892994  1.41492999  9.90120983
   1.56937003  3.91579008 10.01455975
   0.38747999  1.65161002  2.56849003
  -1.02613997  4.15510988  2.60342002
   3.28172994  1.57351995  2.59483004
   1.84867001  4.14382982  2.54293990
   3.00587010  4.79691982  7.61251020
   4.35139990  2.27360010  7.71854019
   0.08576000  4.68891001  7.59900999
   1.53296995  2.30572009  7.74436998
   1.60502994  0.60359001 12.38945961
   0.20311999  3.11894989 12.36186028
   4.48317003  0.61067998 12.50706005
   3.03590989  3.08490992 12.50275993
   0.43123999  0.04983000  3.56900001
  -1.10417998  2.41130996  3.53542995
   0.38602999  4.75344992  3.47377992
   1.80552006  2.50860000  3.40309000
   1.84622002  0.84518999  1.61212003
   0.25363001  3.45779991  1.59025002
   4.68822002  0.85474998  1.64459002
   3.23611999  3.31154990  1.74141002
   1.65118003  0.64458001  8.69217014
   0.15749000  3.10010004  8.73406982
   4.48054981  0.45001000  8.69452953
   2.94023991  3.07352996  8.73581982
   0.08449000  1.57574999  6.87447023
  -1.32955003  3.74218011  6.66214991
   3.01388001  1.45905995  6.78672981
   1.53149998  3.86710000  6.70403004
   0.21646000  1.37725997 13.25796032
  -1.29398000  3.87765002 13.26165962
   3.05432010  1.42209995 13.44025993
   1.53690004  3.98209000 13.49695969
   3.01005006  4.54624987 11.34195995
   4.44631004  2.26853991 11.44696045
   3.06001997 -0.04806000 11.37185955
   1.70240998  2.28502989 11.42815971
 


--------------------------------------------------------------------------------------------------------


 k-point  1 :   0.0833 0.0833 0.2500  plane waves:   14234
 k-point  2 :   0.2500 0.0833 0.2500  plane waves:   14203
 k-point  3 :   0.4167 0.0833 0.2500  plane waves:   14212
 k-point  4 :  -0.4167 0.0833 0.2500  plane waves:   14192
 k-point  5 :  -0.2500 0.0833 0.2500  plane waves:   14229
 k-point  6 :  -0.0833 0.0833 0.2500  plane waves:   14232
 k-point  7 :   0.0833 0.2500 0.2500  plane waves:   14191
 k-point  8 :   0.2500 0.2500 0.2500  plane waves:   14198
 k-point  9 :   0.4167 0.2500 0.2500  plane waves:   14186
 k-point 10 :  -0.4167 0.2500 0.2500  plane waves:   14190
 k-point 11 :  -0.2500 0.2500 0.2500  plane waves:   14215
 k-point 12 :  -0.0833 0.2500 0.2500  plane waves:   14234
 k-point 13 :   0.0833 0.4167 0.2500  plane waves:   14187
 k-point 14 :   0.2500 0.4167 0.2500  plane waves:   14186
 k-point 15 :   0.4167 0.4167 0.2500  plane waves:   14182
 k-point 16 :  -0.4167 0.4167 0.2500  plane waves:   14181
 k-point 17 :  -0.2500 0.4167 0.2500  plane waves:   14204
 k-point 18 :  -0.0833 0.4167 0.2500  plane waves:   14192
 k-point 19 :   0.0833-0.4167 0.2500  plane waves:   14198
 k-point 20 :   0.2500-0.4167 0.2500  plane waves:   14188
 k-point 21 :   0.4167-0.4167 0.2500  plane waves:   14166
 k-point 22 :  -0.4167-0.4167 0.2500  plane waves:   14167
 k-point 23 :  -0.2500-0.4167 0.2500  plane waves:   14193
 k-point 24 :  -0.0833-0.4167 0.2500  plane waves:   14193
 k-point 25 :   0.0833-0.2500 0.2500  plane waves:   14221
 k-point 26 :   0.2500-0.2500 0.2500  plane waves:   14225
 k-point 27 :   0.4167-0.2500 0.2500  plane waves:   14187
 k-point 28 :  -0.4167-0.2500 0.2500  plane waves:   14189
 k-point 29 :  -0.2500-0.2500 0.2500  plane waves:   14195
 k-point 30 :  -0.0833-0.2500 0.2500  plane waves:   14207
 k-point 31 :   0.0833-0.0833 0.2500  plane waves:   14211
 k-point 32 :   0.2500-0.0833 0.2500  plane waves:   14219
 k-point 33 :   0.4167-0.0833 0.2500  plane waves:   14186
 k-point 34 :  -0.4167-0.0833 0.2500  plane waves:   14186
 k-point 35 :  -0.2500-0.0833 0.2500  plane waves:   14186
 k-point 36 :  -0.0833-0.0833 0.2500  plane waves:   14237

 maximum and minimum number of plane-waves per node :      3567     3527

 maximum number of plane-waves:     14237
 maximum index in each direction: 
   IXMAX=   11   IYMAX=   11   IZMAX=   29
   IXMIN=  -11   IYMIN=  -11   IZMIN=  -30


 real space projection operators:
  total allocation   :       7426.28 KBytes
  max/ min on nodes  :       1859.99       1850.84


 parallel 3D FFT for wavefunctions:
    minimum data exchange during FFTs selected (reduces bandwidth)
 parallel 3D FFT for charge:
    minimum data exchange during FFTs selected (reduces bandwidth)


 total amount of memory used by VASP MPI-rank0   168530. kBytes
=======================================================================

   base      :      30000. kBytes
   nonlr-proj:       4258. kBytes
   fftplans  :       1799. kBytes
   grid      :       4952. kBytes
   one-center:        342. kBytes
   wavefun   :     127179. kBytes
 
     INWAV:  cpu time    0.0000: real time    0.0002
 Broyden mixing: mesh for mixing (old mesh)
   NGX = 23   NGY = 23   NGZ = 61
  (NGX  = 72   NGY  = 72   NGZ  =192)
  gives a total of  32269 points

 initial charge density was supplied:
 charge density of overlapping atoms calculated
 number of electron     258.0000000 magnetization       6.0000000
 keeping initial charge density in first step


--------------------------------------------------------------------------------------------------------


 Maximum index for non-local projection operator          677
 Maximum index for augmentation-charges         1015 (set IRDMAX)


--------------------------------------------------------------------------------------------------------


 First call to EWALD:  gamma=   0.236
 Maximum number of real-space cells 4x 4x 2
 Maximum number of reciprocal cells 2x 2x 5

    FEWALD:  cpu time    0.0048: real time    0.0053


--------------------------------------- Iteration      1(   1)  ---------------------------------------


    POTLOK:  cpu time    0.0753: real time    0.0794
    SETDIJ:  cpu time    0.0191: real time    0.0201
    TRIAL :  cpu time   24.1615: real time   24.2470
    CORREC:  cpu time    0.0043: real time    0.0043
    --------------------------------------------
      LOOP:  cpu time   24.4712: real time   24.5661

 eigenvalue-minimisations  : 23040
 total energy-change (2. order) : 0.3460282E+04  (-0.1388004E+05)
 number of electron     258.0000000 magnetization       6.0000000
 augmentation part      258.0000000 magnetization       6.0000000

 Free energy of the ion-electron system (eV)
  ---------------------------------------------------
  alpha Z        PSCENC =       688.93502467
  Ewald energy   TEWEN  =    -12107.72843253
  -Hartree energ DENC   =     -8633.49777988
  -exchange      EXHF   =         0.00000000
  -V(xc)+E(xc)   XCENC  =       841.02618132
  PAW double counting   =     17015.18481625   -17491.61297812
  entropy T*S    EENTRO =        -0.00655673
  eigenvalues    EBANDS =      2979.11075697
  atomic energy  EATOM  =     20168.87094289
  ---------------------------------------------------
  free energy    TOTEN  =      3460.28197482 eV

  energy without entropy =     3460.28853156  energy(sigma->0) =     3460.28525319


--------------------------------------------------------------------------------------------------------




--------------------------------------- Iteration      1(   2)  ---------------------------------------


    TRIAL :  cpu time   26.2430: real time   26.3110
    CORREC:  cpu time    0.0045: real time    0.0045
    --------------------------------------------
      LOOP:  cpu time   26.2480: real time   26.3161

 eigenvalue-minimisations  : 24880
 total energy-change (2. order) :-0.3038846E+04  (-0.2803703E+04)
 number of electron     258.0000000 magnetization       6.0000000
 augmentation part      258.0000000 magnetization       6.0000000

 Free energy of the ion-electron system (eV)
  ---------------------------------------------------
  alpha Z        PSCENC =       688.93502467
  Ewald energy   TEWEN  =    -12107.72843253
  -Hartree energ DENC   =     -8633.49777988
  -exchange      EXHF   =         0.00000000
  -V(xc)+E(xc)   XCENC  =       841.02618132
  PAW double counting   =     17015.18481625   -17491.61297812
  entropy T*S    EENTRO =        -0.02295691
  eigenvalues    EBANDS =       -59.71874573
  atomic energy  EATOM  =     20168.87094289
  ---------------------------------------------------
  free energy    TOTEN  =       421.43607194 eV

  energy without entropy =      421.45902885  energy(sigma->0) =      421.44755039


--------------------------------------------------------------------------------------------------------




--------------------------------------- Iteration      1(   3)  ---------------------------------------


    TRIAL :  cpu time   28.4338: real time   28.5534
    CORREC:  cpu time    0.0048: real time    0.0048
    --------------------------------------------
      LOOP:  cpu time   28.4508: real time   28.5705

 eigenvalue-minimisations  : 27088
 total energy-change (2. order) :-0.6388494E+03  (-0.5897760E+03)
 number of electron     258.0000000 magnetization       6.0000000
 augmentation part      258.0000000 magnetization       6.0000000

 Free energy of the ion-electron system (eV)
  ---------------------------------------------------
  alpha Z        PSCENC =       688.93502467
  Ewald energy   TEWEN  =    -12107.72843253
  -Hartree energ DENC   =     -8633.49777988
  -exchange      EXHF   =         0.00000000
  -V(xc)+E(xc)   XCENC  =       841.02618132
  PAW double counting   =     17015.18481625   -17491.61297812
  entropy T*S    EENTRO =        -0.02747082
  eigenvalues    EBANDS =      -698.56365016
  atomic energy  EATOM  =     20168.87094289
  ---------------------------------------------------
  free energy    TOTEN  =      -217.41334640 eV

  energy without entropy =     -217.38587558  energy(sigma->0) =     -217.39961099


--------------------------------------------------------------------------------------------------------




--------------------------------------- Iteration      1(   4)  ---------------------------------------


    TRIAL :  cpu time   26.3215: real time   26.4001
    CORREC:  cpu time    0.0044: real time    0.0044
    --------------------------------------------
      LOOP:  cpu time   26.3637: real time   26.4424

 eigenvalue-minimisations  : 25264
 total energy-change (2. order) :-0.5207612E+02  (-0.5073490E+02)
 number of electron     258.0000000 magnetization       6.0000000
 augmentation part      258.0000000 magnetization       6.0000000

 Free energy of the ion-electron system (eV)
  ---------------------------------------------------
  alpha Z        PSCENC =       688.93502467
  Ewald energy   TEWEN  =    -12107.72843253
  -Hartree energ DENC   =     -8633.49777988
  -exchange      EXHF   =         0.00000000
  -V(xc)+E(xc)   XCENC  =       841.02618132
  PAW double counting   =     17015.18481625   -17491.61297812
  entropy T*S    EENTRO =        -0.01739006
  eigenvalues    EBANDS =      -750.64985535
  atomic energy  EATOM  =     20168.87094289
  ---------------------------------------------------
  free energy    TOTEN  =      -269.48947083 eV

  energy without entropy =     -269.47208077  energy(sigma->0) =     -269.48077580


--------------------------------------------------------------------------------------------------------




--------------------------------------- Iteration      1(   5)  ---------------------------------------


    TRIAL :  cpu time   28.7629: real time   28.8392
    CORREC:  cpu time    0.0049: real time    0.0049
    CHARGE:  cpu time    0.5761: real time    0.5770
    --------------------------------------------
      LOOP:  cpu time   29.3443: real time   29.4216

 eigenvalue-minimisations  : 29328
 total energy-change (2. order) :-0.1941876E+01  (-0.1937583E+01)
 number of electron     257.9999970 magnetization       5.9999998
 augmentation part       68.0173904 magnetization       4.2646615

 Free energy of the ion-electron system (eV)
  ---------------------------------------------------
  alpha Z        PSCENC =       688.93502467
  Ewald energy   TEWEN  =    -12107.72843253
  -Hartree energ DENC   =     -8633.49777988
  -exchange      EXHF   =         0.00000000
  -V(xc)+E(xc)   XCENC  =       841.02618132
  PAW double counting   =     17015.18481625   -17491.61297812
  entropy T*S    EENTRO =        -0.01693709
  eigenvalues    EBANDS =      -752.59218482
  atomic energy  EATOM  =     20168.87094289
  ---------------------------------------------------
  free energy    TOTEN  =      -271.43134733 eV

  energy without entropy =     -271.41441024  energy(sigma->0) =     -271.42287878


--------------------------------------------------------------------------------------------------------




--------------------------------------- Iteration      1(   6)  ---------------------------------------


    POTLOK:  cpu time    0.0518: real time    0.0518
    SETDIJ:  cpu time    0.0126: real time    0.0126
    TRIAL :  cpu time   13.9619: real time   13.9938
    CORREC:  cpu time    4.8613: real time    4.8672
    CHARGE:  cpu time    0.5360: real time    0.5363
    --------------------------------------------
      LOOP:  cpu time   19.4241: real time   19.4623

 eigenvalue-minimisations  :     0
 total energy-change (2. order) : 0.4177632E+03  (-0.5521592E+03)
 number of electron     257.9999978 magnetization       5.9999997
 augmentation part       71.2684781 magnetization       4.4266790

 Free energy of the ion-electron system (eV)
  ---------------------------------------------------
  alpha Z        PSCENC =       688.93502467
  Ewald energy   TEWEN  =    -12107.72843253
  -Hartree energ DENC   =     -8571.44640404
  -exchange      EXHF   =         0.00000000
  -V(xc)+E(xc)   XCENC  =       877.23572197
  PAW double counting   =     23589.81705661   -23799.65450667
  entropy T*S    EENTRO =        -0.08660897
  eigenvalues    EBANDS =      -699.68062395
  atomic energy  EATOM  =     20168.87094289
  ---------------------------------------------------
  free energy    TOTEN  =       146.33184184 eV

  energy without entropy =      146.41845081  energy(sigma->0) =      146.37514633


--------------------------------------------------------------------------------------------------------




--------------------------------------- Iteration      1(   7)  ---------------------------------------


    POTLOK:  cpu time    0.0499: real time    0.0499
    SETDIJ:  cpu time    0.0128: real time    0.0128
    TRIAL :  cpu time   14.0076: real time   14.0501
    CORREC:  cpu time    5.0425: real time    5.0540
    CHARGE:  cpu time    0.5275: real time    0.5284
    --------------------------------------------
      LOOP:  cpu time   19.6408: real time   19.6956

 eigenvalue-minimisations  :     0
 total energy-change (2. order) : 0.4962394E+03  (-0.7957372E+04)
 number of electron     257.9999942 magnetization       6.0000000
 augmentation part       77.4404203 magnetization       3.4005110

 Free energy of the ion-electron system (eV)
  ---------------------------------------------------
  alpha Z        PSCENC =       688.93502467
  Ewald energy   TEWEN  =    -12107.72843253
  -Hartree energ DENC   =     -8489.99662645
  -exchange      EXHF   =         0.00000000
  -V(xc)+E(xc)   XCENC  =       870.16889879
  PAW double counting   =     24285.52217452   -24672.89650173
  entropy T*S    EENTRO =        -0.03955753
  eigenvalues    EBANDS =      -100.21763725
  atomic energy  EATOM  =     20168.87094289
  ---------------------------------------------------
  free energy    TOTEN  =       642.57123393 eV

  energy without entropy =      642.61079146  energy(sigma->0) =      642.59101269


--------------------------------------------------------------------------------------------------------




--------------------------------------- Iteration      1(   8)  ---------------------------------------


    POTLOK:  cpu time    0.0540: real time    0.0540
    SETDIJ:  cpu time    0.0126: real time    0.0126
    TRIAL :  cpu time   14.0287: real time   14.0564
    CORREC:  cpu time    4.8445: real time    4.8485
    CHARGE:  cpu time    0.5596: real time    0.5599
    --------------------------------------------
      LOOP:  cpu time   19.5000: real time   19.5321

 eigenvalue-minimisations  :     0
 total energy-change (2. order) : 0.5577381E+04  (-0.3207235E+05)
 number of electron     258.0000005 magnetization       6.0000003
 augmentation part       71.5237567 magnetization       4.3533593

 Free energy of the ion-electron system (eV)
  ---------------------------------------------------
  alpha Z        PSCENC =       688.93502467
  Ewald energy   TEWEN  =    -12107.72843253
  -Hartree energ DENC   =    -16444.02182341
  -exchange      EXHF   =         0.00000000
  -V(xc)+E(xc)   XCENC  =       909.12229059
  PAW double counting   =     29640.21957491   -30478.72660031
  entropy T*S    EENTRO =        -0.03530043
  eigenvalues    EBANDS =     13843.32069461
  atomic energy  EATOM  =     20168.87094289
  ---------------------------------------------------
  free energy    TOTEN  =      6219.95211388 eV

  energy without entropy =     6219.98741431  energy(sigma->0) =     6219.96976410


--------------------------------------------------------------------------------------------------------




--------------------------------------- Iteration      1(   9)  ---------------------------------------


    POTLOK:  cpu time    0.0503: real time    0.0504
    SETDIJ:  cpu time    0.0126: real time    0.0126
    TRIAL :  cpu time   13.9850: real time   14.0192
    CORREC:  cpu time    4.7146: real time    4.7380
    CHARGE:  cpu time    0.5127: real time    0.5132
    --------------------------------------------
      LOOP:  cpu time   19.2758: real time   19.3356

 eigenvalue-minimisations  :     0
 total energy-change (2. order) :-0.1618863E+04  (-0.1004724E+04)
 number of electron     257.9999946 magnetization       6.0000002
 augmentation part       73.3779028 magnetization       3.8197638

 Free energy of the ion-electron system (eV)
  ---------------------------------------------------
  alpha Z        PSCENC =       688.93502467
  Ewald energy   TEWEN  =    -12107.72843253
  -Hartree energ DENC   =    -10939.88975177
  -exchange      EXHF   =         0.00000000
  -V(xc)+E(xc)   XCENC  =       896.84666685
  PAW double counting   =     33924.39848140   -34675.92550717
  entropy T*S    EENTRO =        -0.01869651
  eigenvalues    EBANDS =      6645.61729079
  atomic energy  EATOM  =     20168.87094289
  ---------------------------------------------------
  free energy    TOTEN  =      4601.08941469 eV

  energy without entropy =     4601.10811119  energy(sigma->0) =     4601.09876294


--------------------------------------------------------------------------------------------------------




--------------------------------------- Iteration      1(  10)  ---------------------------------------


    POTLOK:  cpu time    0.0510: real time    0.0510
    SETDIJ:  cpu time    0.0864: real time    0.0865
    TRIAL :  cpu time   13.5420: real time   13.5617
    CORREC:  cpu time    4.8463: real time    4.8536
    CHARGE:  cpu time    0.5778: real time    0.5782
    --------------------------------------------
      LOOP:  cpu time   19.1040: real time   19.1321

 eigenvalue-minimisations  :     0
 total energy-change (2. order) : 0.7610876E+03  (-0.2304948E+04)
 number of electron     257.9999955 magnetization       6.0000000
 augmentation part       73.4081406 magnetization       1.5263862

 Free energy of the ion-electron system (eV)
  ---------------------------------------------------
  alpha Z        PSCENC =       688.93502467
  Ewald energy   TEWEN  =    -12107.72843253
  -Hartree energ DENC   =    -12141.74488518
  -exchange      EXHF   =         0.00000000
  -V(xc)+E(xc)   XCENC  =       894.91207126
  PAW double counting   =     32799.33104782   -33576.40492709
  entropy T*S    EENTRO =        -0.01869017
  eigenvalues    EBANDS =      8636.02482008
  atomic energy  EATOM  =     20168.87094289
  ---------------------------------------------------
  free energy    TOTEN  =      5362.17696541 eV

  energy without entropy =     5362.19565557  energy(sigma->0) =     5362.18631049


--------------------------------------------------------------------------------------------------------




--------------------------------------- Iteration      1(  11)  ---------------------------------------


    POTLOK:  cpu time    0.0502: real time    0.0502
    SETDIJ:  cpu time    0.0126: real time    0.0126
    TRIAL :  cpu time   13.8973: real time   13.9110
    CORREC:  cpu time    4.9192: real time    4.9240
    CHARGE:  cpu time    0.5193: real time    0.5213
    --------------------------------------------
      LOOP:  cpu time   19.3993: real time   19.4196

 eigenvalue-minimisations  :     0
 total energy-change (2. order) : 0.4588544E+04  (-0.1046683E+05)
 number of electron     257.9999979 magnetization       6.0000000
 augmentation part       67.4244218 magnetization       3.9166765

 Free energy of the ion-electron system (eV)
  ---------------------------------------------------
  alpha Z        PSCENC =       688.93502467
  Ewald energy   TEWEN  =    -12107.72843253
  -Hartree energ DENC   =    -18638.53695211
  -exchange      EXHF   =         0.00000000
  -V(xc)+E(xc)   XCENC  =       863.28947166
  PAW double counting   =     36587.38242203   -37405.23339546
  entropy T*S    EENTRO =        -0.02773555
  eigenvalues    EBANDS =     19793.76043120
  atomic energy  EATOM  =     20168.87094289
  ---------------------------------------------------
  free energy    TOTEN  =      9950.72082217 eV

  energy without entropy =     9950.74855772  energy(sigma->0) =     9950.73468994


--------------------------------------------------------------------------------------------------------




--------------------------------------- Iteration      1(  12)  ---------------------------------------


    POTLOK:  cpu time    0.0493: real time    0.0495
    SETDIJ:  cpu time    0.0126: real time    0.0126
    TRIAL :  cpu time   13.9322: real time   14.0083
    CORREC:  cpu time    4.7502: real time    4.7713
    CHARGE:  cpu time    0.5126: real time    0.5149
    --------------------------------------------
      LOOP:  cpu time   19.2573: real time   19.3572

 eigenvalue-minimisations  :     0
 total energy-change (2. order) :-0.6144179E+04  (-0.4349511E+04)
 number of electron     257.9999967 magnetization       6.0000000
 augmentation part       65.8956101 magnetization       2.5275435

 Free energy of the ion-electron system (eV)
  ---------------------------------------------------
  alpha Z        PSCENC =       688.93502467
  Ewald energy   TEWEN  =    -12107.72843253
  -Hartree energ DENC   =     -7792.33874419
  -exchange      EXHF   =         0.00000000
  -V(xc)+E(xc)   XCENC  =       787.99891228
  PAW double counting   =     40684.17986939   -41338.87951882
  entropy T*S    EENTRO =        -0.01570112
  eigenvalues    EBANDS =      2715.53111071
  atomic energy  EATOM  =     20168.87094289
  ---------------------------------------------------
  free energy    TOTEN  =      3806.54142884 eV

  energy without entropy =     3806.55712996  energy(sigma->0) =     3806.54927940


--------------------------------------------------------------------------------------------------------




--------------------------------------- Iteration      1(  13)  ---------------------------------------


    POTLOK:  cpu time    0.0493: real time    0.0495
    SETDIJ:  cpu time    0.0127: real time    0.0127
    TRIAL :  cpu time   13.7725: real time   13.8463
    CORREC:  cpu time    4.9663: real time    4.9810
    CHARGE:  cpu time    0.5717: real time    0.5720
    --------------------------------------------
      LOOP:  cpu time   19.3730: real time   19.4628

 eigenvalue-minimisations  :     0
 total energy-change (2. order) : 0.5246167E+03  (-0.6658761E+04)
 number of electron     257.9999994 magnetization       5.9999997
 augmentation part       70.5427374 magnetization       2.9933746

 Free energy of the ion-electron system (eV)
  ---------------------------------------------------
  alpha Z        PSCENC =       688.93502467
  Ewald energy   TEWEN  =    -12107.72843253
  -Hartree energ DENC   =     -7866.00936834
  -exchange      EXHF   =         0.00000000
  -V(xc)+E(xc)   XCENC  =       773.32527772
  PAW double counting   =     44992.90219408   -45660.00158785
  entropy T*S    EENTRO =        -0.02216005
  eigenvalues    EBANDS =      3340.87980209
  atomic energy  EATOM  =     20168.87094289
  ---------------------------------------------------
  free energy    TOTEN  =      4331.15815160 eV

  energy without entropy =     4331.18031165  energy(sigma->0) =     4331.16923162


--------------------------------------------------------------------------------------------------------




--------------------------------------- Iteration      1(  14)  ---------------------------------------


    POTLOK:  cpu time    0.0495: real time    0.0495
    SETDIJ:  cpu time    0.0127: real time    0.0127
    TRIAL :  cpu time   13.6398: real time   13.7380
    CORREC:  cpu time    4.8676: real time    4.8925
    CHARGE:  cpu time    0.5075: real time    0.5097
    --------------------------------------------
      LOOP:  cpu time   19.0776: real time   19.2029

 eigenvalue-minimisations  :     0
 total energy-change (2. order) :-0.2311414E+04  (-0.5944336E+03)
 number of electron     257.9999982 magnetization       5.9999998
 augmentation part       72.5361349 magnetization       2.8839210

 Free energy of the ion-electron system (eV)
  ---------------------------------------------------
  alpha Z        PSCENC =       688.93502467
  Ewald energy   TEWEN  =    -12107.72843253
  -Hartree energ DENC   =     -5899.47980177
  -exchange      EXHF   =         0.00000000
  -V(xc)+E(xc)   XCENC  =       742.01439221
  PAW double counting   =     53537.83715002   -54277.11084548
  entropy T*S    EENTRO =        -0.01479834
  eigenvalues    EBANDS =      -833.57202673
  atomic energy  EATOM  =     20168.87094289
  ---------------------------------------------------
  free energy    TOTEN  =      2019.74424324 eV

  energy without entropy =     2019.75904157  energy(sigma->0) =     2019.75164241


--------------------------------------------------------------------------------------------------------




--------------------------------------- Iteration      1(  15)  ---------------------------------------


    POTLOK:  cpu time    0.0496: real time    0.0499
    SETDIJ:  cpu time    0.0126: real time    0.0126
    TRIAL :  cpu time   13.9480: real time   14.0403
    CORREC:  cpu time    4.7058: real time    4.7307
    CHARGE:  cpu time    0.5178: real time    0.5206
    --------------------------------------------
      LOOP:  cpu time   19.2344: real time   19.3546

 eigenvalue-minimisations  :     0
 total energy-change (2. order) :-0.3669755E+03  (-0.6989306E+03)
 number of electron     257.9999969 magnetization       5.9999999
 augmentation part       76.3849026 magnetization       2.9542379

 Free energy of the ion-electron system (eV)
  ---------------------------------------------------
  alpha Z        PSCENC =       688.93502467
  Ewald energy   TEWEN  =    -12107.72843253
  -Hartree energ DENC   =     -6906.86175242
  -exchange      EXHF   =         0.00000000
  -V(xc)+E(xc)   XCENC  =       753.86361713
  PAW double counting   =     50823.63842739   -51552.40785395
  entropy T*S    EENTRO =        -0.01684540
  eigenvalues    EBANDS =      -215.52638268
  atomic energy  EATOM  =     20168.87094289
  ---------------------------------------------------
  free energy    TOTEN  =      1652.76879216 eV

  energy without entropy =     1652.78563756  energy(sigma->0) =     1652.77721486


--------------------------------------------------------------------------------------------------------




--------------------------------------- Iteration      1(  16)  ---------------------------------------


    POTLOK:  cpu time    0.0530: real time    0.0533
    SETDIJ:  cpu time    0.0134: real time    0.0134
    TRIAL :  cpu time   13.7155: real time   13.8002
    CORREC:  cpu time    4.7572: real time    4.7796
    CHARGE:  cpu time    0.5610: real time    0.5632
    --------------------------------------------
      LOOP:  cpu time   19.1007: real time   19.2102

 eigenvalue-minimisations  :     0
 total energy-change (2. order) :-0.5808752E+03  (-0.3176459E+03)
 number of electron     257.9999968 magnetization       5.9999999
 augmentation part       77.2738042 magnetization       3.2464054

 Free energy of the ion-electron system (eV)
  ---------------------------------------------------
  alpha Z        PSCENC =       688.93502467
  Ewald energy   TEWEN  =    -12107.72843253
  -Hartree energ DENC   =     -7822.62570074
  -exchange      EXHF   =         0.00000000
  -V(xc)+E(xc)   XCENC  =       796.55136448
  PAW double counting   =     43371.86055892   -44154.25683783
  entropy T*S    EENTRO =        -0.01624349
  eigenvalues    EBANDS =       130.30348809
  atomic energy  EATOM  =     20168.87094289
  ---------------------------------------------------
  free energy    TOTEN  =      1071.89356254 eV

  energy without entropy =     1071.90980603  energy(sigma->0) =     1071.90168428


--------------------------------------------------------------------------------------------------------




--------------------------------------- Iteration      1(  17)  ---------------------------------------


    POTLOK:  cpu time    0.0494: real time    0.0495
    SETDIJ:  cpu time    0.0125: real time    0.0126
    TRIAL :  cpu time   13.7718: real time   13.8322
    CORREC:  cpu time    4.9335: real time    4.9407
    CHARGE:  cpu time    0.5217: real time    0.5239
    --------------------------------------------
      LOOP:  cpu time   19.2895: real time   19.3601

 eigenvalue-minimisations  :     0
 total energy-change (2. order) :-0.2722286E+03  (-0.3317326E+03)
 number of electron     257.9999976 magnetization       5.9999998
 augmentation part       76.0203878 magnetization       3.7145732

 Free energy of the ion-electron system (eV)
  ---------------------------------------------------
  alpha Z        PSCENC =       688.93502467
  Ewald energy   TEWEN  =    -12107.72843253
  -Hartree energ DENC   =     -7846.34140836
  -exchange      EXHF   =         0.00000000
  -V(xc)+E(xc)   XCENC  =       811.97583615
  PAW double counting   =     38324.62462838   -39077.93563565
  entropy T*S    EENTRO =        -0.01391649
  eigenvalues    EBANDS =      -162.71973899
  atomic energy  EATOM  =     20168.87094289
  ---------------------------------------------------
  free energy    TOTEN  =       799.66497306 eV

  energy without entropy =      799.67888955  energy(sigma->0) =      799.67193131


--------------------------------------------------------------------------------------------------------




--------------------------------------- Iteration      1(  18)  ---------------------------------------


    POTLOK:  cpu time    0.1189: real time    0.1191
    SETDIJ:  cpu time    0.0127: real time    0.0127
    TRIAL :  cpu time   13.7728: real time   13.8468
    CORREC:  cpu time    4.7726: real time    4.7941
    CHARGE:  cpu time    0.5322: real time    0.5345
    --------------------------------------------
      LOOP:  cpu time   19.2097: real time   19.3077

 eigenvalue-minimisations  :     0
 total energy-change (2. order) :-0.2942722E+03  (-0.1181740E+03)
 number of electron     257.9999973 magnetization       5.9999998
 augmentation part       75.6183189 magnetization       3.9084022

 Free energy of the ion-electron system (eV)
  ---------------------------------------------------
  alpha Z        PSCENC =       688.93502467
  Ewald energy   TEWEN  =    -12107.72843253
  -Hartree energ DENC   =     -8110.58762458
  -exchange      EXHF   =         0.00000000
  -V(xc)+E(xc)   XCENC  =       830.29577201
  PAW double counting   =     32027.94147072   -32667.92527775
  entropy T*S    EENTRO =        -0.01853844
  eigenvalues    EBANDS =      -324.39519740
  atomic energy  EATOM  =     20168.87094289
  ---------------------------------------------------
  free energy    TOTEN  =       505.39276154 eV

  energy without entropy =      505.41129999  energy(sigma->0) =      505.40203077


--------------------------------------------------------------------------------------------------------




--------------------------------------- Iteration      1(  19)  ---------------------------------------


    POTLOK:  cpu time    0.0496: real time    0.0497
    SETDIJ:  cpu time    0.0126: real time    0.0127
    TRIAL :  cpu time   14.0529: real time   14.1076
    CORREC:  cpu time    4.7851: real time    4.7894
    CHARGE:  cpu time    0.5413: real time    0.5417
    --------------------------------------------
      LOOP:  cpu time   19.4422: real time   19.5027

 eigenvalue-minimisations  :     0
 total energy-change (2. order) :-0.1171165E+03  (-0.1643087E+03)
 number of electron     257.9999969 magnetization       5.9999999
 augmentation part       75.9617729 magnetization       4.0898029

 Free energy of the ion-electron system (eV)
  ---------------------------------------------------
  alpha Z        PSCENC =       688.93502467
  Ewald energy   TEWEN  =    -12107.72843253
  -Hartree energ DENC   =     -8433.43677059
  -exchange      EXHF   =         0.00000000
  -V(xc)+E(xc)   XCENC  =       836.20009099
  PAW double counting   =     30209.06570730   -30806.47371060
  entropy T*S    EENTRO =        -0.01631426
  eigenvalues    EBANDS =      -167.13802441
  atomic energy  EATOM  =     20168.87094289
  ---------------------------------------------------
  free energy    TOTEN  =       388.27628927 eV

  energy without entropy =      388.29260354  energy(sigma->0) =      388.28444640


--------------------------------------------------------------------------------------------------------




--------------------------------------- Iteration      1(  20)  ---------------------------------------


    POTLOK:  cpu time    0.0502: real time    0.0502
    SETDIJ:  cpu time    0.0127: real time    0.0127
    TRIAL :  cpu time   13.6321: real time   13.6510
    CORREC:  cpu time    4.9264: real time    4.9313
    CHARGE:  cpu time    0.5797: real time    0.5801
    --------------------------------------------
      LOOP:  cpu time   19.2017: real time   19.2258

 eigenvalue-minimisations  :     0
 total energy-change (2. order) :-0.1557172E+03  (-0.1585196E+03)
 number of electron     257.9999965 magnetization       5.9999999
 augmentation part       76.6955259 magnetization       4.2769952

 Free energy of the ion-electron system (eV)
  ---------------------------------------------------
  alpha Z        PSCENC =       688.93502467
  Ewald energy   TEWEN  =    -12107.72843253
  -Hartree energ DENC   =     -8634.44897167
  -exchange      EXHF   =         0.00000000
  -V(xc)+E(xc)   XCENC  =       844.98797158
  PAW double counting   =     28045.61297452   -28608.23290866
  entropy T*S    EENTRO =        -0.01708158
  eigenvalues    EBANDS =      -165.42117950
  atomic energy  EATOM  =     20168.87094289
  ---------------------------------------------------
  free energy    TOTEN  =       232.55910704 eV

  energy without entropy =      232.57618861  energy(sigma->0) =      232.56764783


--------------------------------------------------------------------------------------------------------




--------------------------------------- Iteration      1(  21)  ---------------------------------------


    POTLOK:  cpu time    0.0503: real time    0.0504
    SETDIJ:  cpu time    0.0126: real time    0.0126
    TRIAL :  cpu time   13.6966: real time   13.7186
    CORREC:  cpu time    4.9980: real time    5.0550
    CHARGE:  cpu time    0.5200: real time    0.5269
    --------------------------------------------
      LOOP:  cpu time   19.2781: real time   19.3639

 eigenvalue-minimisations  :     0
 total energy-change (2. order) :-0.1281066E+03  (-0.9134347E+02)
 number of electron     257.9999967 magnetization       5.9999999
 augmentation part       76.7655513 magnetization       4.3184954

 Free energy of the ion-electron system (eV)
  ---------------------------------------------------
  alpha Z        PSCENC =       688.93502467
  Ewald energy   TEWEN  =    -12107.72843253
  -Hartree energ DENC   =     -8623.01959814
  -exchange      EXHF   =         0.00000000
  -V(xc)+E(xc)   XCENC  =       853.81800086
  PAW double counting   =     26911.05685347   -27453.51087237
  entropy T*S    EENTRO =        -0.01364394
  eigenvalues    EBANDS =      -333.95231932
  atomic energy  EATOM  =     20168.87094289
  ---------------------------------------------------
  free energy    TOTEN  =       104.45251795 eV

  energy without entropy =      104.46616188  energy(sigma->0) =      104.45933992


--------------------------------------------------------------------------------------------------------




--------------------------------------- Iteration      1(  22)  ---------------------------------------


    POTLOK:  cpu time    0.0503: real time    0.0503
    SETDIJ:  cpu time    0.0126: real time    0.0126
    TRIAL :  cpu time   13.8599: real time   13.9096
    CORREC:  cpu time    4.6851: real time    4.7182
    CHARGE:  cpu time    0.5364: real time    0.5391
    --------------------------------------------
      LOOP:  cpu time   19.1448: real time   19.2304

 eigenvalue-minimisations  :     0
 total energy-change (2. order) :-0.9819847E+02  (-0.5891212E+02)
 number of electron     257.9999972 magnetization       5.9999998
 augmentation part       76.8094601 magnetization       4.3970547

 Free energy of the ion-electron system (eV)
  ---------------------------------------------------
  alpha Z        PSCENC =       688.93502467
  Ewald energy   TEWEN  =    -12107.72843253
  -Hartree energ DENC   =     -8757.89552922
  -exchange      EXHF   =         0.00000000
  -V(xc)+E(xc)   XCENC  =       854.50771378
  PAW double counting   =     26241.18662370   -26756.81636482
  entropy T*S    EENTRO =        -0.01494021
  eigenvalues    EBANDS =      -324.79228512
  atomic energy  EATOM  =     20168.87094289
  ---------------------------------------------------
  free energy    TOTEN  =         6.25404939 eV

  energy without entropy =        6.26898960  energy(sigma->0) =        6.26151949


--------------------------------------------------------------------------------------------------------




--------------------------------------- Iteration      1(  23)  ---------------------------------------


    POTLOK:  cpu time    0.0503: real time    0.0505
    SETDIJ:  cpu time    0.0126: real time    0.0126
    TRIAL :  cpu time   13.8635: real time   13.9562
    CORREC:  cpu time    4.6895: real time    4.7146
    CHARGE:  cpu time    0.5121: real time    0.5145
    --------------------------------------------
      LOOP:  cpu time   19.1287: real time   19.2507

 eigenvalue-minimisations  :     0
 total energy-change (2. order) :-0.5359701E+02  (-0.3207410E+02)
 number of electron     257.9999972 magnetization       5.9999998
 augmentation part       77.0802604 magnetization       4.4860385

 Free energy of the ion-electron system (eV)
  ---------------------------------------------------
  alpha Z        PSCENC =       688.93502467
  Ewald energy   TEWEN  =    -12107.72843253
  -Hartree energ DENC   =     -8641.12691932
  -exchange      EXHF   =         0.00000000
  -V(xc)+E(xc)   XCENC  =       852.17282485
  PAW double counting   =     26044.64039802   -26555.57620254
  entropy T*S    EENTRO =        -0.01688930
  eigenvalues    EBANDS =      -497.51565862
  atomic energy  EATOM  =     20168.87094289
  ---------------------------------------------------
  free energy    TOTEN  =       -47.34296280 eV

  energy without entropy =      -47.32607350  energy(sigma->0) =      -47.33451815


--------------------------------------------------------------------------------------------------------




--------------------------------------- Iteration      1(  24)  ---------------------------------------


    POTLOK:  cpu time    0.0505: real time    0.0507
    SETDIJ:  cpu time    0.0125: real time    0.0127
    TRIAL :  cpu time   13.8215: real time   13.9101
    CORREC:  cpu time    4.9710: real time    5.0281
    CHARGE:  cpu time    0.5668: real time    0.5734
    --------------------------------------------
      LOOP:  cpu time   19.4231: real time   19.5765

 eigenvalue-minimisations  :     0
 total energy-change (2. order) :-0.3197728E+02  (-0.2231705E+02)
 number of electron     257.9999972 magnetization       5.9999998
 augmentation part       77.2287575 magnetization       4.5021648

 Free energy of the ion-electron system (eV)
  ---------------------------------------------------
  alpha Z        PSCENC =       688.93502467
  Ewald energy   TEWEN  =    -12107.72843253
  -Hartree energ DENC   =     -8616.26209164
  -exchange      EXHF   =         0.00000000
  -V(xc)+E(xc)   XCENC  =       850.07653768
  PAW double counting   =     25723.95024071   -26245.04815654
  entropy T*S    EENTRO =        -0.01384720
  eigenvalues    EBANDS =      -542.09741618
  atomic energy  EATOM  =     20168.87094289
  ---------------------------------------------------
  free energy    TOTEN  =       -79.32024025 eV

  energy without entropy =      -79.30639305  energy(sigma->0) =      -79.31331665


--------------------------------------------------------------------------------------------------------




--------------------------------------- Iteration      1(  25)  ---------------------------------------


    POTLOK:  cpu time    0.0498: real time    0.0503
    SETDIJ:  cpu time    0.0126: real time    0.0127
    TRIAL :  cpu time   13.7098: real time   13.9144
    CORREC:  cpu time    4.7233: real time    4.7477
    CHARGE:  cpu time    0.5268: real time    0.5327
    --------------------------------------------
      LOOP:  cpu time   19.0228: real time   19.2582

 eigenvalue-minimisations  :     0
 total energy-change (2. order) :-0.2320089E+02  (-0.1812074E+02)
 number of electron     257.9999973 magnetization       5.9999997
 augmentation part       77.0031847 magnetization       4.5644170

 Free energy of the ion-electron system (eV)
[...]
   20        1.578   3.366   0.000   4.944
   21        1.584   3.394   0.000   4.978
   22        1.572   3.413   0.000   4.985
   23        1.573   3.391   0.000   4.964
   24        1.574   3.389   0.000   4.962
   25        1.580   3.388   0.000   4.969
   26        1.581   3.383   0.000   4.964
   27        1.558   3.446   0.000   5.004
   28        1.556   3.467   0.000   5.022
   29        1.556   3.459   0.000   5.016
   30        1.556   3.462   0.000   5.018
   31        1.575   3.397   0.000   4.972
   32        1.571   3.384   0.000   4.954
   33        1.576   3.372   0.000   4.948
   34        1.570   3.382   0.000   4.952
   35        1.574   3.393   0.000   4.967
   36        1.567   3.450   0.000   5.016
   37        1.575   3.351   0.000   4.926
   38        1.569   3.373   0.000   4.941
   39        1.560   3.444   0.000   5.004
   40        1.557   3.459   0.000   5.015
   41        1.555   3.461   0.000   5.016
   42        1.560   3.443   0.000   5.002
--------------------------------------------------
tot         43.448  91.169  87.517 222.134
 


 magnetization (x)
 
# of ion       s       p       d       tot
------------------------------------------
    1        0.000  -0.001   0.000  -0.001
    2        0.000  -0.001   0.000  -0.001
    3       -0.001  -0.003   0.000  -0.004
    4        0.000  -0.000   0.000  -0.000
    5        0.000   0.000   0.000   0.000
    6        0.000   0.000   0.000   0.001
    7        0.004   0.006   0.005   0.015
    8        0.013   0.016   1.272   1.300
    9        0.015   0.019   1.424   1.458
   10        0.014   0.018   1.306   1.338
   11        0.001   0.004   0.043   0.048
   12        0.002   0.004   0.084   0.090
   13        0.013   0.011   1.545   1.569
   14        0.002   0.005   0.066   0.074
   15        0.003   0.005   0.069   0.077
   16        0.001   0.004   0.000   0.005
   17        0.002   0.005   0.195   0.202
   18        0.010   0.012   1.288   1.309
   19       -0.000  -0.100   0.000  -0.100
   20        0.001  -0.143   0.000  -0.142
   21        0.002  -0.126   0.000  -0.125
   22        0.001  -0.115   0.000  -0.114
   23        0.001  -0.091   0.000  -0.090
   24       -0.000  -0.125   0.000  -0.125
   25        0.001  -0.111   0.000  -0.110
   26        0.001  -0.161   0.000  -0.161
   27        0.000  -0.057   0.000  -0.057
   28        0.001  -0.033   0.000  -0.032
   29        0.000  -0.054   0.000  -0.054
   30        0.001   0.030   0.000   0.031
   31        0.003   0.175   0.000   0.178
   32       -0.001  -0.101   0.000  -0.102
   33       -0.000  -0.130   0.000  -0.130
   34       -0.000  -0.087   0.000  -0.087
   35        0.003   0.162   0.000   0.165
   36        0.000  -0.014   0.000  -0.014
   37        0.000  -0.062   0.000  -0.062
   38       -0.001  -0.084   0.000  -0.084
   39        0.001  -0.035   0.000  -0.034
   40       -0.000  -0.051   0.000  -0.051
   41        0.001   0.027   0.000   0.028
   42        0.000  -0.028   0.000  -0.028
--------------------------------------------------
tot          0.094  -1.210   7.297   6.181
 
    FORLOC:  cpu time    0.0081: real time    0.0082
    FORNL :  cpu time    4.3530: real time    4.4093
    STRESS:  cpu time   13.0656: real time   13.2013
    FORCOR:  cpu time    0.0524: real time    0.0527
    OFIELD:  cpu time    0.0004: real time    0.0004

  DFT-D2 method for vdW energy calculation
  -------------------------------------------------------------------

  Parameters of vdW forcefield:
         C6(Jnm^6/mol)     R0(A)
   -----------------------------
   Li       1.610          0.825
   Co      10.800          1.562
   O        0.700          1.342

  IVDW =   1
  VDW_RADIUS =    50.000 A
  VDW_S6 =     0.750
  VDW_SR =     1.000
  VDW_D =    20.000
  LVDW_EWALD = F

  Number of pair interactions contributing to vdW energy: 1110928
  Edisp (eV):   -8.96930
    FORVDW:  cpu time    0.1697: real time    0.1707

  FORCE on cell =-STRESS in cart. coord.  units (eV):
  Direction    XX          YY          ZZ          XY          YZ          ZX
  --------------------------------------------------------------------------------------
  Alpha Z   688.93502   688.93502   688.93502
  Ewald     320.45723    73.09316-12501.34953     8.90971    49.15952    22.92977
  Hartree  6214.10414  6115.11991 -3708.42140     5.30845    22.33843     8.90710
  E(xc)   -1282.84600 -1282.92731 -1285.57924    -0.04554    -0.11090     0.04414
  Local  -11410.18710-11075.57001 11255.61636   -12.76890   -76.60523   -29.53729
  n-local  -592.14852  -598.79740  -608.17861     1.01120     1.62726     0.81633
  augment  2013.74971  2017.44575  2014.46967    -1.13929     2.58999    -1.13873
  Kinetic  4047.34372  4058.31975  4150.53205     2.20986     6.45690    -2.78045
  Fock        0.00000     0.00000     0.00000     0.00000     0.00000     0.00000
  vdW        -5.75659    -5.45076   -11.62763    -0.14414    -0.22069     0.15750
  -------------------------------------------------------------------------------------
  Total      -6.34840    -9.83189    -5.60331     3.34135     5.23529    -0.60161
  in kB     -23.90221   -37.01784   -21.09690    12.58046    19.71130    -2.26511
  external pressure =      -27.34 kB  Pullay stress =        0.00 kB


 VOLUME and BASIS-vectors are now :
 -----------------------------------------------------------------------------
  energy-cutoff  :      600.00
  volume of cell :      425.54
      direct lattice vectors                 reciprocal lattice vectors
     5.704342365  0.000000000  0.000000000     0.175305046  0.103387254 -0.004086222
    -2.910571575  4.935210705  0.000000000     0.000000000  0.202625594  0.003667796
     0.513697207 -0.273612559 15.115592003     0.000000000  0.000000000  0.066156853

  length of vectors
     5.704342365  5.729548987 15.126793125     0.203561982  0.202658787  0.066156853


 FORCES acting on ions:
    Electron-Ion                     Ewald-Force                    Non-Local-Force
 -----------------------------------------------------------------------------------------------
   0.396E+01 -.450E-01 -.892E+01   -.354E+01 -.473E-01 0.899E+01   -.318E+00 0.233E+00 -.259E+00
   0.137E+01 0.512E+01 -.783E+01   -.126E+01 -.467E+01 0.771E+01   -.120E+00 -.990E+00 0.108E+01
   -.437E+01 0.208E+01 -.833E+01   0.409E+01 -.200E+01 0.809E+01   0.101E+01 -.311E+00 0.350E+00
   -.207E+01 0.267E+00 0.107E+02   0.172E+01 -.437E-01 -.104E+02   0.267E+00 -.614E-01 -.997E+00
   -.291E+01 -.240E-01 -.108E+02   0.239E+01 -.413E-01 0.108E+02   0.203E+00 0.139E+00 0.514E+00
   0.250E+01 -.154E+00 -.859E+01   -.217E+01 0.255E+00 0.827E+01   -.228E+00 -.320E+00 0.511E+00
   -.128E+02 -.342E+02 0.703E+02   0.128E+02 0.346E+02 -.702E+02   -.288E+00 0.738E+00 -.745E+00
   0.521E+02 0.818E+01 0.122E+02   -.538E+02 -.909E+01 -.120E+02   -.417E+00 -.229E+00 0.197E+00
   0.280E+02 -.279E+01 0.247E+02   -.287E+02 0.397E+01 -.253E+02   -.316E+00 0.109E+00 0.454E+00
   -.564E+01 0.983E+01 0.878E+02   0.454E+01 -.101E+02 -.889E+02   -.522E+00 0.824E-02 0.260E+00
   -.291E+02 0.110E+02 0.251E+03   0.279E+02 -.121E+02 -.251E+03   0.411E+00 -.983E+00 0.102E+01
   0.552E+01 0.219E+02 0.116E+03   -.574E+01 -.217E+02 -.119E+03   0.884E+00 -.991E+00 0.302E+01
   0.232E+02 -.181E+02 0.251E+03   -.225E+02 0.182E+02 -.252E+03   -.111E+00 0.127E+00 0.115E+01
   -.213E+02 0.248E+02 0.188E+03   0.223E+02 -.246E+02 -.189E+03   0.146E+00 -.548E+00 0.604E+00
   0.717E+01 -.149E+02 -.225E+03   -.606E+01 0.157E+02 0.227E+03   -.218E+00 -.274E+00 -.129E+01
   -.254E+02 0.386E+01 -.208E+03   0.257E+02 -.450E+01 0.209E+03   -.183E+00 0.370E+00 -.973E+00
   -.155E+02 0.651E+01 -.245E+03   0.142E+02 -.632E+01 0.247E+03   0.770E+00 -.103E+00 -.292E+01
   0.452E+02 0.171E+02 -.317E+03   -.464E+02 -.183E+02 0.318E+03   -.177E+00 -.282E+00 -.589E+00
   -.754E+01 -.111E+02 -.334E+03   0.854E+01 0.155E+02 0.353E+03   -.932E+00 -.487E+01 -.190E+02
   -.150E+02 -.734E+01 -.329E+03   0.189E+02 0.805E+01 0.351E+03   -.321E+01 0.228E-01 -.220E+02
   -.960E+01 -.218E+02 -.352E+03   0.122E+02 0.228E+02 0.378E+03   -.198E+01 0.124E+01 -.243E+02
   0.786E+00 0.183E+02 -.310E+03   -.233E+01 -.208E+02 0.329E+03   0.221E+01 0.243E+01 -.182E+02
   0.195E+02 -.226E+02 0.396E+03   -.217E+02 0.258E+02 -.416E+03   0.225E+01 -.396E+01 0.204E+02
   -.284E+02 0.490E+02 0.402E+03   0.331E+02 -.545E+02 -.421E+03   -.339E+01 0.392E+01 0.186E+02
   -.111E+02 -.980E+01 0.409E+03   0.120E+02 0.108E+02 -.434E+03   -.684E+00 -.167E+01 0.248E+02
   -.412E+01 0.199E+02 0.390E+03   0.572E+01 -.232E+02 -.413E+03   -.804E+00 0.322E+01 0.216E+02
   0.209E+01 0.216E+02 -.222E+03   -.274E+01 -.227E+02 0.236E+03   0.150E+00 0.340E+00 -.144E+02
   0.262E+02 -.767E+01 -.245E+03   -.275E+02 0.897E+01 0.257E+03   0.170E+00 -.982E+00 -.120E+02
   0.620E+01 -.161E+02 -.220E+03   -.674E+01 0.143E+02 0.230E+03   -.998E-01 0.344E+01 -.104E+02
   -.193E+02 -.238E+02 -.226E+03   0.195E+02 0.283E+02 0.239E+03   0.538E+00 -.398E+01 -.129E+02
   -.106E+02 0.225E+02 0.479E+03   0.108E+02 -.206E+02 -.501E+03   0.529E+00 -.335E+01 0.209E+02
   0.553E+01 -.354E+02 0.478E+03   -.426E+01 0.352E+02 -.500E+03   -.155E+01 0.242E+01 0.219E+02
   0.240E+02 0.160E+02 0.479E+03   -.265E+02 -.150E+02 -.502E+03   0.170E+01 -.134E+01 0.230E+02
   -.131E+02 -.130E+02 0.483E+03   0.132E+02 0.118E+02 -.503E+03   0.359E+00 0.175E+01 0.204E+02
   -.126E+02 -.317E+02 -.501E+03   0.141E+02 0.351E+02 0.523E+03   -.158E+01 -.229E+01 -.213E+02
   -.273E+02 -.523E+01 -.512E+03   0.303E+02 0.683E+01 0.533E+03   -.159E+01 -.919E+00 -.189E+02
   0.181E+02 -.381E+01 -.514E+03   -.202E+02 0.355E+01 0.537E+03   0.194E+01 0.442E+00 -.231E+02
   -.305E+01 0.309E+02 -.505E+03   0.493E+01 -.334E+02 0.525E+03   -.175E+01 0.168E+01 -.216E+02
   0.192E+02 -.370E+02 0.200E+03   -.216E+02 0.391E+02 -.213E+03   0.198E+01 -.450E+00 0.141E+02
   -.113E+02 0.174E+02 0.194E+03   0.898E+01 -.195E+02 -.205E+03   0.244E+01 0.185E+01 0.104E+02
   -.145E+02 0.130E+02 0.197E+03   0.163E+02 -.112E+02 -.210E+03   -.131E+01 -.331E+01 0.127E+02
   0.209E+02 0.315E+01 0.186E+03   -.203E+02 -.436E+01 -.201E+03   -.144E+01 0.134E+01 0.151E+02
 -----------------------------------------------------------------------------------------------
   0.530E+01 0.637E+01 -.724E+01   0.426E-13 0.471E-13 -.199E-12   -.527E+01 -.640E+01 0.721E+01
 
 
 POSITION                                       TOTAL-FORCE (eV/Angst)
 -----------------------------------------------------------------------------------
      0.02955      4.18163     15.02946         0.077653      0.166593     -0.194103
      2.97191      3.67959      4.90048         0.030553     -0.432511      0.745095
     -0.12741      1.48474     10.00080         0.665167     -0.250845      0.112781
     -1.24458      3.90367     10.22144        -0.131651      0.149712     -0.586045
      3.03893      1.41493      9.90121        -0.243858      0.107666      0.420552
      1.56937      3.91579     10.01456         0.064648     -0.145951      0.135781
      0.38748      1.65161      2.56849        -0.331026      0.937180     -0.501709
     -1.02614      4.15511      2.60342        -1.831128     -1.069494      0.237818
      3.28173      1.57352      2.59483        -0.830057      1.301503     -0.197901
      1.84867      4.14383      2.54294        -1.465762     -0.309903     -0.595718
      3.00587      4.79692      7.61251        -0.865575     -1.801864      0.811973
      4.35140      2.27360      7.71854         0.583550     -0.639768      0.756969
      0.08576      4.68891      7.59901         0.675393      0.226436      0.226454
      1.53297      2.30572      7.74437         0.920215     -0.309523     -0.874474
      1.60503      0.60359     12.38946         0.825463      0.450436     -0.287519
      0.20312      3.11895     12.36186        -0.001592     -0.233560      0.595396
      4.48317      0.61068     12.50706        -0.598438      0.132165     -1.172718
      3.03591      3.08491     12.50276        -1.098799     -1.364824     -0.365613
      0.43124      0.04983      3.56900         0.078300     -0.471935     -0.084242
     -1.10418      2.41131      3.53543         0.626778      0.762856      0.322362
      0.38603      4.75345      3.47378         0.573498      2.274564      1.358541
      1.80552      2.50860      3.40309         0.657777     -0.147952      1.450617
      1.84622      0.84519      1.61212         0.068163     -0.703845     -0.139669
      0.25363      3.45780      1.59025         1.369745     -1.642390     -0.732214
      4.68822      0.85475      1.64459         0.170161     -0.629027     -0.276056
      3.23612      3.31155      1.74141         0.787003     -0.084423     -1.281509
      1.65118      0.64458      8.69217        -0.615390     -0.797871      0.096662
      0.15749      3.10010      8.73407        -1.119376      0.325846      0.605543
      4.48055      0.45001      8.69453        -0.625028      1.605818      0.153223
      2.94024      3.07353      8.73582         0.818789      0.536527      0.092310
      0.08449      1.57575      6.87447         0.699924     -1.460667     -0.902046
     -1.32955      3.74218      6.66215        -0.271805      2.244815      0.063006
      3.01388      1.45906      6.78673        -0.779482     -0.403815     -0.504375
      1.53150      3.86710      6.70403         0.481215      0.640363     -0.128544
      0.21646      1.37726     13.25796        -0.136035      1.090178      0.621807
     -1.29398      3.87765     13.26166         1.457222      0.679588      1.665408
      3.05432      1.42210     13.44026        -0.197554      0.148700     -0.302559
      1.53690      3.98209     13.49696         0.186258     -0.865499     -1.014387
      3.01005      4.54625     11.34196        -0.378074      1.748723      0.420719
      4.44631      2.26854     11.44696         0.133892     -0.326549     -0.678744
      3.06002     -0.04806     11.37186         0.451366     -1.513040      0.015120
      1.70241      2.28503     11.42816        -0.882104      0.075585     -0.087990
 -----------------------------------------------------------------------------------
    total drift:                                0.025833     -0.035648     -0.034246


--------------------------------------------------------------------------------------------------------



  FREE ENERGIE OF THE ION-ELECTRON SYSTEM (eV)
  ---------------------------------------------------
  free  energy   TOTEN  =      -232.33301324 eV

  energy  without entropy=     -232.32043850  energy(sigma->0) =     -232.32672587
 


--------------------------------------------------------------------------------------------------------


    POTLOK:  cpu time    0.0699: real time    0.0700


--------------------------------------------------------------------------------------------------------


     LOOP+:  cpu time 3766.9693: real time 3805.9813
    4ORBIT:  cpu time    0.0000: real time    0.0000
 


 total charge     
 
# of ion       s       p       d       tot
------------------------------------------
    1        0.055   0.103   0.000   0.158
    2        0.067   0.132   0.000   0.198
    3        0.085   0.173   0.000   0.258
    4        0.092   0.192   0.000   0.284
    5        0.093   0.193   0.000   0.286
    6        0.096   0.200   0.000   0.295
    7        0.422   0.651   7.319   8.392
    8        0.489   0.801   7.276   8.566
    9        0.455   0.722   7.205   8.383
   10        0.476   0.775   7.244   8.495
   11        0.407   0.599   7.303   8.309
   12        0.457   0.708   7.409   8.574
   13        0.427   0.646   7.148   8.222
   14        0.448   0.713   7.387   8.547
   15        0.432   0.673   7.358   8.462
   16        0.407   0.601   7.316   8.324
   17        0.439   0.666   7.344   8.450
   18        0.459   0.739   7.208   8.406
   19        1.569   3.418   0.000   4.986
   20        1.578   3.366   0.000   4.944
   21        1.584   3.394   0.000   4.978
   22        1.572   3.413   0.000   4.985
   23        1.573   3.391   0.000   4.964
   24        1.574   3.389   0.000   4.962
   25        1.580   3.388   0.000   4.969
   26        1.581   3.383   0.000   4.964
   27        1.558   3.446   0.000   5.004
   28        1.556   3.467   0.000   5.022
   29        1.556   3.459   0.000   5.016
   30        1.556   3.462   0.000   5.018
   31        1.575   3.397   0.000   4.972
   32        1.571   3.384   0.000   4.954
   33        1.576   3.372   0.000   4.948
   34        1.570   3.382   0.000   4.952
   35        1.574   3.393   0.000   4.967
   36        1.567   3.450   0.000   5.016
   37        1.575   3.351   0.000   4.926
   38        1.569   3.373   0.000   4.941
   39        1.560   3.444   0.000   5.004
   40        1.557   3.459   0.000   5.015
   41        1.555   3.461   0.000   5.016
   42        1.560   3.443   0.000   5.002
--------------------------------------------------
tot         43.448  91.169  87.517 222.134
 


 magnetization (x)
 
# of ion       s       p       d       tot
------------------------------------------
    1        0.000  -0.001   0.000  -0.001
    2        0.000  -0.001   0.000  -0.001
    3       -0.001  -0.003   0.000  -0.004
    4        0.000  -0.000   0.000  -0.000
    5        0.000   0.000   0.000   0.000
    6        0.000   0.000   0.000   0.001
    7        0.004   0.006   0.005   0.015
    8        0.013   0.016   1.272   1.300
    9        0.015   0.019   1.424   1.458
   10        0.014   0.018   1.306   1.338
   11        0.001   0.004   0.043   0.048
   12        0.002   0.004   0.084   0.090
   13        0.013   0.011   1.545   1.569
   14        0.002   0.005   0.066   0.074
   15        0.003   0.005   0.069   0.077
   16        0.001   0.004   0.000   0.005
   17        0.002   0.005   0.195   0.202
   18        0.010   0.012   1.288   1.309
   19       -0.000  -0.100   0.000  -0.100
   20        0.001  -0.143   0.000  -0.142
   21        0.002  -0.126   0.000  -0.125
   22        0.001  -0.115   0.000  -0.114
   23        0.001  -0.091   0.000  -0.090
   24       -0.000  -0.125   0.000  -0.125
   25        0.001  -0.111   0.000  -0.110
   26        0.001  -0.161   0.000  -0.161
   27        0.000  -0.057   0.000  -0.057
   28        0.001  -0.033   0.000  -0.032
   29        0.000  -0.054   0.000  -0.054
   30        0.001   0.030   0.000   0.031
   31        0.003   0.175   0.000   0.178
   32       -0.001  -0.101   0.000  -0.102
   33       -0.000  -0.130   0.000  -0.130
   34       -0.000  -0.087   0.000  -0.087
   35        0.003   0.162   0.000   0.165
   36        0.000  -0.014   0.000  -0.014
   37        0.000  -0.062   0.000  -0.062
   38       -0.001  -0.084   0.000  -0.084
   39        0.001  -0.035   0.000  -0.034
   40       -0.000  -0.051   0.000  -0.051
   41        0.001   0.027   0.000   0.028
   42        0.000  -0.028   0.000  -0.028
--------------------------------------------------
tot          0.094  -1.210   7.297   6.181
 

 total amount of memory used by VASP MPI-rank0   168530. kBytes
=======================================================================

   base      :      30000. kBytes
   nonlr-proj:       4258. kBytes
   fftplans  :       1799. kBytes
   grid      :       4952. kBytes
   one-center:        342. kBytes
   wavefun   :     127179. kBytes
 
  
  
 General timing and accounting informations for this job:
 ========================================================
  
                  Total CPU time used (sec):     3793.672
                            User time (sec):     3493.200
                          System time (sec):      300.472
                         Elapsed time (sec):     3833.166
  
                   Maximum memory used (kb):      875016.
                   Average memory used (kb):           0.
  
                          Minor page faults:       384521
                          Major page faults:           67
                 Voluntary context switches:          593
