 vasp.5.4.4.18Apr17-6-g9f103f2a35 (build Nov 22 2021 14:44:17) complex          
  
 executed on             LinuxIFC date 2022.08.06  11:36:54
 running on   64 total cores
 distrk:  each k-point on   64 cores,    1 groups
 distr:  one band on NCORES_PER_BAND=   4 cores,   16 groups


--------------------------------------------------------------------------------------------------------


 INCAR:
 POTCAR:    PAW_PBE Li 17Jan2003                  
 POTCAR:    PAW_PBE Co 02Aug2007                  
 POTCAR:    PAW_PBE O 08Apr2002                   
 POTCAR:    PAW_PBE Li 17Jan2003                  
   VRHFIN =Li: s1p0                                                             
   LEXCH  = PE                                                                  
   EATOM  =     5.3001 eV,    0.3895 Ry                                         
                                                                                
   TITEL  = PAW_PBE Li 17Jan2003                                                
   LULTRA =        F    use ultrasoft PP ?                                      
   IUNSCR =        1    unscreen: 0-lin 1-nonlin 2-no                           
   RPACOR =    1.500    partial core radius                                     
   POMASS =    7.010; ZVAL   =    1.000    mass and valenz                      
   RCORE  =    2.050    outmost cutoff radius                                   
   RWIGS  =    2.600; RWIGS  =    1.376    wigner-seitz radius (au A)           
   ENMAX  =  140.000; ENMIN  =  100.000 eV                                      
   ICORE  =        2    local potential                                         
   LCOR   =        T    correct aug charges                                     
   LPAW   =        T    paw PP                                                  
   EAUG   =  331.638                                                            
   DEXC   =    0.000                                                            
   RMAX   =    2.098    core radius for proj-oper                               
   RAUG   =    1.300    factor for augmentation sphere                          
   RDEP   =    2.094    radius for radial grids                                 
   RDEPT  =    1.810    core radius for aug-charge                              
                                                                                
   Atomic configuration                                                         
    4 entries                                                                   
     n  l   j            E        occ.                                          
     1  0  0.50       -51.8549   2.0000                                         
     2  0  0.50        -2.8742   1.0000                                         
     2  1  0.50        -1.3606   0.0000                                         
     3  2  1.50        -1.3606   0.0000                                         
   Description                                                                  
     l       E           TYP  RCUT    TYP  RCUT                                 
     0     -2.8742052     23  2.050                                             
     0     27.2116520     23  2.050                                             
     1     -1.3605826     23  2.050                                             
     2     -1.3605826     23  2.050                                             
  local pseudopotential read in
  partial core-charges read in
  partial kinetic energy density read in
  atomic valenz-charges read in
  non local Contribution for L=           0  read in
    real space projection operators read in
  non local Contribution for L=           0  read in
    real space projection operators read in
  non local Contribution for L=           1  read in
    real space projection operators read in
    PAW grid and wavefunctions read in
 
   number of l-projection  operators is LMAX  =           3
   number of lm-projection operators is LMMAX =           5
 
 POTCAR:    PAW_PBE Co 02Aug2007                  
   VRHFIN =Co: d8 s1                                                            
   LEXCH  = PE                                                                  
   EATOM  =   813.3670 eV,   59.7808 Ry                                         
                                                                                
   TITEL  = PAW_PBE Co 02Aug2007                                                
   LULTRA =        F    use ultrasoft PP ?                                      
   IUNSCR =        1    unscreen: 0-lin 1-nonlin 2-no                           
   RPACOR =    2.000    partial core radius                                     
   POMASS =   58.933; ZVAL   =    9.000    mass and valenz                      
   RCORE  =    2.300    outmost cutoff radius                                   
   RWIGS  =    2.460; RWIGS  =    1.302    wigner-seitz radius (au A)           
   ENMAX  =  267.968; ENMIN  =  200.976 eV                                      
   RCLOC  =    1.203    cutoff for local pot                                    
   LCOR   =        T    correct aug charges                                     
   LPAW   =        T    paw PP                                                  
   EAUG   =  477.818                                                            
   DEXC   =    0.000                                                            
   RMAX   =    2.360    core radius for proj-oper                               
   RAUG   =    1.300    factor for augmentation sphere                          
   RDEP   =    2.393    radius for radial grids                                 
   RDEPT  =    1.864    core radius for aug-charge                              
                                                                                
   Atomic configuration                                                         
    9 entries                                                                   
     n  l   j            E        occ.                                          
     1  0  0.50     -7587.6674   2.0000                                         
     2  0  0.50      -893.6084   2.0000                                         
     2  1  1.50      -764.5805   6.0000                                         
     3  0  0.50       -97.5973   2.0000                                         
     3  1  1.50       -60.9648   6.0000                                         
     3  2  2.50        -4.2382   8.0000                                         
     4  0  0.50        -4.3746   1.0000                                         
     4  1  1.50        -4.0817   0.0000                                         
     4  3  2.50        -1.3606   0.0000                                         
   Description                                                                  
     l       E           TYP  RCUT    TYP  RCUT                                 
     2     -4.2382362     23  2.300                                             
     2     -5.5988188     23  2.300                                             
     0     -4.3745797     23  2.300                                             
     0      5.7660125     23  2.300                                             
     1     -2.7211652     23  2.300                                             
     1     16.9860234     23  2.300                                             
  local pseudopotential read in
  partial core-charges read in
  partial kinetic energy density read in
  atomic valenz-charges read in
  non local Contribution for L=           2  read in
    real space projection operators read in
  non local Contribution for L=           2  read in
    real space projection operators read in
  non local Contribution for L=           0  read in
    real space projection operators read in
  non local Contribution for L=           0  read in
    real space projection operators read in
  non local Contribution for L=           1  read in
    real space projection operators read in
  non local Contribution for L=           1  read in
    real space projection operators read in
    PAW grid and wavefunctions read in
 
   number of l-projection  operators is LMAX  =           6
   number of lm-projection operators is LMMAX =          18
 
 POTCAR:    PAW_PBE O 08Apr2002                   
   VRHFIN =O: s2p4                                                              
   LEXCH  = PE                                                                  
   EATOM  =   432.3788 eV,   31.7789 Ry                                         
                                                                                
   TITEL  = PAW_PBE O 08Apr2002                                                 
   LULTRA =        F    use ultrasoft PP ?                                      
   IUNSCR =        1    unscreen: 0-lin 1-nonlin 2-no                           
   RPACOR =    1.200    partial core radius                                     
   POMASS =   16.000; ZVAL   =    6.000    mass and valenz                      
   RCORE  =    1.520    outmost cutoff radius                                   
   RWIGS  =    1.550; RWIGS  =    0.820    wigner-seitz radius (au A)           
   ENMAX  =  400.000; ENMIN  =  300.000 eV                                      
   ICORE  =        2    local potential                                         
   LCOR   =        T    correct aug charges                                     
   LPAW   =        T    paw PP                                                  
   EAUG   =  605.392                                                            
   DEXC   =    0.000                                                            
   RMAX   =    1.553    core radius for proj-oper                               
   RAUG   =    1.300    factor for augmentation sphere                          
   RDEP   =    1.550    radius for radial grids                                 
   RDEPT  =    1.329    core radius for aug-charge                              
                                                                                
   Atomic configuration                                                         
    4 entries                                                                   
     n  l   j            E        occ.                                          
     1  0  0.50      -514.6923   2.0000                                         
     2  0  0.50       -23.9615   2.0000                                         
     2  1  0.50        -9.0305   4.0000                                         
     3  2  1.50        -9.5241   0.0000                                         
   Description                                                                  
     l       E           TYP  RCUT    TYP  RCUT                                 
     0    -23.9615318     23  1.200                                             
     0     -9.5240782     23  1.200                                             
     1     -9.0304911     23  1.520                                             
     1      8.1634956     23  1.520                                             
     2     -9.5240782      7  1.500                                             
  local pseudopotential read in
  partial core-charges read in
  partial kinetic energy density read in
  kinetic energy density of atom read in
  atomic valenz-charges read in
  non local Contribution for L=           0  read in
    real space projection operators read in
  non local Contribution for L=           0  read in
    real space projection operators read in
  non local Contribution for L=           1  read in
    real space projection operators read in
  non local Contribution for L=           1  read in
    real space projection operators read in
    PAW grid and wavefunctions read in
 
   number of l-projection  operators is LMAX  =           4
   number of lm-projection operators is LMMAX =           8
 
 Optimization of the real space projectors (new method)

 maximal supplied QI-value         = 18.33
 optimisation between [QCUT,QGAM] = [ 12.46, 24.93] = [ 43.51,174.03] Ry 
 Optimized for a Real-space Cutoff    1.13 Angstroem

   l    n(q)    QCUT    max X(q) W(low)/X(q) W(high)/X(q)  e(spline) 
   0      8    12.465    33.825    0.12E-03    0.29E-03    0.99E-07
   0      8    12.465     8.944    0.86E-04    0.22E-03    0.72E-07
   1      8    12.465     4.214    0.27E-03    0.11E-03    0.82E-07
 Optimization of the real space projectors (new method)

 maximal supplied QI-value         = 16.25
 optimisation between [QCUT,QGAM] = [ 12.51, 25.03] = [ 43.85,175.40] Ry 
 Optimized for a Real-space Cutoff    1.31 Angstroem

   l    n(q)    QCUT    max X(q) W(low)/X(q) W(high)/X(q)  e(spline) 
   2      9    12.514    65.824    0.30E-03    0.46E-03    0.43E-06
   2      9    12.514    61.429    0.31E-03    0.46E-03    0.44E-06
   0     10    12.514    56.174    0.90E-04    0.33E-03    0.30E-06
   0     10    12.514    31.263    0.81E-04    0.30E-03    0.28E-06
   1      9    12.514    19.828    0.38E-03    0.65E-04    0.24E-06
   1      9    12.514    15.139    0.32E-03    0.60E-04    0.20E-06
 Optimization of the real space projectors (new method)

 maximal supplied QI-value         = 24.76
 optimisation between [QCUT,QGAM] = [ 12.38, 25.00] = [ 42.90,175.06] Ry 
 Optimized for a Real-space Cutoff    1.13 Angstroem

   l    n(q)    QCUT    max X(q) W(low)/X(q) W(high)/X(q)  e(spline) 
   0      8    12.378    20.381    0.16E-03    0.54E-05    0.27E-06
   0      8    12.378    15.268    0.17E-03    0.61E-05    0.29E-06
   1      8    12.378     5.964    0.38E-03    0.23E-03    0.28E-06
   1      8    12.378     5.382    0.33E-03    0.20E-03    0.25E-06
  PAW_PBE Li 17Jan2003                  :
 energy of atom  1       EATOM=   -5.3001
 kinetic energy error for atom=    0.0000 (will be added to EATOM!!)
  PAW_PBE Co 02Aug2007                  :
 energy of atom  2       EATOM= -813.3670
 kinetic energy error for atom=    0.0018 (will be added to EATOM!!)
  PAW_PBE O 08Apr2002                   :
 energy of atom  3       EATOM= -432.3788
 kinetic energy error for atom=    0.0168 (will be added to EATOM!!)
 
 
 POSCAR: Li6 Co12 O24                            
  positions in cartesian coordinates
  No initial velocities read in
 exchange correlation table for  LEXCH =        8
   RHO(1)=    0.500       N(1)  =     2000
   RHO(2)=  100.500       N(2)  =     4000
 


--------------------------------------------------------------------------------------------------------


 ion  position               nearest neighbor table
   1  0.044  0.083  0.993-  35 1.94  23 1.98  38 2.05  25 2.09  36 2.19  26 2.31   3 2.45   7 2.72
                            17 2.73   2 2.75  15 2.88   2 2.88   8 2.90  18 3.04  10 3.05   3 3.14
   2  0.502  0.023  0.994-  23 2.01  25 2.01  36 2.06  24 2.08  37 2.14  38 2.24   1 2.75   3 2.77
                             9 2.78   3 2.81  10 2.85   1 2.88  15 2.89  16 2.90  17 2.95   8 2.96
   3  0.486  0.518  0.994-  35 1.88  24 1.89  23 2.01  26 2.05  38 2.26  37 2.36   1 2.45   2 2.77
                            10 2.78   2 2.81  16 2.84   7 2.87  15 2.92   9 2.94  18 2.99   1 3.14
   4  0.741  0.472  0.326-  20 2.01  33 2.11  22 2.18  21 2.59  32 2.62   9 2.63  14 3.08  12 3.13

   5  0.696  0.361  0.688-  42 1.84  40 2.04  41 2.08  30 2.17  29 2.23  27 2.35  18 2.59   6 2.75
                            15 2.75  17 2.79   6 2.85  12 2.94  14 3.13  13 3.20
   6  0.662  0.851  0.672-  41 1.89  29 1.93  28 2.14  39 2.17  30 2.22  42 2.24   5 2.75  11 2.80
                            16 2.80  13 2.83   5 2.85  17 2.86  14 3.00  18 3.06
   7  0.171  0.370  0.155-  19 1.83  20 1.89  22 1.92  24 1.96  25 2.00  23 2.03  10 2.70   8 2.71
                             1 2.72   9 2.75   9 2.86   8 2.87   3 2.87  10 2.89
   8  0.156  0.876  0.155-  19 1.89  26 1.94  21 1.98  23 2.00  20 2.05  24 2.19   7 2.71  10 2.72
                             9 2.77   9 2.83   7 2.87  10 2.89   1 2.90   2 2.96
   9  0.671  0.348  0.152-  23 1.85  25 1.85  21 1.85  22 1.92  20 1.95  26 2.05   4 2.63  10 2.74
                             7 2.75   8 2.77   2 2.78   8 2.83  10 2.83   7 2.86   3 2.94
  10  0.657  0.850  0.151-  26 1.80  25 1.83  22 1.83  21 1.87  19 1.92  24 1.93   7 2.70   8 2.72
                             9 2.74   3 2.78   9 2.83   2 2.85   7 2.89   8 2.89   1 3.05
  11  0.981  0.972  0.519-  31 1.78  34 1.84  30 1.84  32 1.86  29 1.90  27 1.93  12 2.73  14 2.79
                            13 2.80   6 2.80  14 2.80  13 2.81  12 2.85
  12  0.978  0.460  0.516-  32 1.79  31 1.86  30 1.90  29 1.91  28 1.92  33 1.99  11 2.73  13 2.78
                            14 2.79  13 2.81  14 2.82  11 2.85   5 2.94   4 3.13
  13  0.478  0.963  0.511-  33 1.79  34 1.82  28 1.86  29 1.90  27 1.92  32 1.98  14 2.75  12 2.78
                            11 2.80  12 2.81  11 2.81  14 2.82   6 2.83   5 3.20
  14  0.481  0.471  0.508-  28 1.81  33 1.81  34 1.84  27 1.85  31 1.88  30 1.99  13 2.75  12 2.79
                            11 2.79  11 2.80  12 2.82  13 2.82   6 3.00   4 3.08   5 3.13
  15  0.343  0.171  0.829-  35 1.74  39 1.84  42 1.90  36 1.90  37 1.93  41 1.97  17 2.74   5 2.75
                            16 2.79  16 2.79  18 2.79  18 2.80  17 2.87   1 2.88   2 2.89   3 2.92
  16  0.359  0.680  0.830-  40 1.80  41 1.90  42 1.96  35 1.97  36 2.04  38 2.05  17 2.78  15 2.79
                            15 2.79  18 2.80   6 2.80  17 2.81  18 2.81   3 2.84   2 2.90
  17  0.858  0.179  0.836-  37 1.79  38 1.80  40 1.86  39 1.87  35 2.00  41 2.06   1 2.73  18 2.73
                            15 2.74  16 2.78   5 2.79  16 2.81  18 2.84   6 2.86  15 2.87   2 2.95
  18  0.851  0.665  0.836-  42 1.82  40 1.84  36 1.85  37 1.88  38 1.91  39 2.03   5 2.59  17 2.73
                            15 2.79  16 2.80  15 2.80  16 2.81  17 2.84   3 2.99   1 3.04   6 3.06
  19  0.996  0.056  0.219-   7 1.83   8 1.89  10 1.92
  20  0.006  0.527  0.228-   7 1.89   9 1.95   4 2.01   8 2.05
  21  0.515  0.035  0.220-   9 1.85  10 1.87   8 1.98   4 2.59
  22  0.520  0.542  0.218-  10 1.83   9 1.92   7 1.92   4 2.18
  23  0.359  0.206  0.079-   9 1.85   1 1.98   8 2.00   2 2.01   3 2.01   7 2.03
  24  0.334  0.677  0.073-   3 1.89  10 1.93   7 1.96   2 2.08   8 2.19
  25  0.812  0.164  0.086-  10 1.83   9 1.85   7 2.00   2 2.01   1 2.09
  26  0.819  0.703  0.082-  10 1.80   8 1.94   9 2.05   3 2.05   1 2.31
  27  0.340  0.164  0.578-  14 1.85  13 1.92  11 1.93   5 2.35
  28  0.335  0.641  0.574-  14 1.81  13 1.86  12 1.92   6 2.14
  29  0.803  0.133  0.584-  13 1.90  11 1.90  12 1.91   6 1.93   5 2.23
  30  0.830  0.652  0.581-  11 1.84  12 1.90  14 1.99   5 2.17   6 2.22
  31  0.127  0.273  0.453-  11 1.78  12 1.86  14 1.88
  32  0.104  0.768  0.454-  12 1.79  11 1.86  13 1.98   4 2.62
  33  0.616  0.276  0.450-  13 1.79  14 1.81  12 1.99   4 2.11
  34  0.655  0.805  0.453-  13 1.82  11 1.84  14 1.84
  35  0.226  0.344  0.899-  15 1.74   3 1.88   1 1.94  16 1.97  17 2.00
  36  0.177  0.858  0.903-  18 1.85  15 1.90  16 2.04   2 2.06   1 2.19
  37  0.687  0.331  0.896-  17 1.79  18 1.88  15 1.93   2 2.14   3 2.36
  38  0.723  0.875  0.903-  17 1.80  18 1.91   1 2.05  16 2.05   2 2.24   3 2.26
  39  0.015  0.016  0.764-  15 1.84  17 1.87  18 2.03   6 2.17
  40  0.025  0.506  0.775-  16 1.80  18 1.84  17 1.86   5 2.04
  41  0.506  0.992  0.756-   6 1.89  16 1.90  15 1.97  17 2.06   5 2.08
  42  0.537  0.501  0.766-  18 1.82   5 1.84  15 1.90  16 1.96   6 2.24
 

IMPORTANT INFORMATION: All symmetrisations will be switched off!
NOSYMM: (Re-)initialisation of all symmetry stuff for point group C_1.

 
 

Automatic generation of k-mesh.
 generate k-points for:    6    6    2
Space group operators:
 irot       det(A)        alpha          n_x          n_y          n_z        tau_x        tau_y        tau_z
    1     1.000000     0.000000     1.000000     0.000000     0.000000     0.000000     0.000000     0.000000
 
 Subroutine IBZKPT returns following result:
 ===========================================
 
 Found     36 irreducible k-points:
 
 Following reciprocal coordinates:
            Coordinates               Weight
  0.083333  0.083333  0.250000      2.000000
  0.250000  0.083333  0.250000      2.000000
  0.416667  0.083333  0.250000      2.000000
 -0.416667  0.083333  0.250000      2.000000
 -0.250000  0.083333  0.250000      2.000000
 -0.083333  0.083333  0.250000      2.000000
  0.083333  0.250000  0.250000      2.000000
  0.250000  0.250000  0.250000      2.000000
  0.416667  0.250000  0.250000      2.000000
 -0.416667  0.250000  0.250000      2.000000
 -0.250000  0.250000  0.250000      2.000000
 -0.083333  0.250000  0.250000      2.000000
  0.083333  0.416667  0.250000      2.000000
  0.250000  0.416667  0.250000      2.000000
  0.416667  0.416667  0.250000      2.000000
 -0.416667  0.416667  0.250000      2.000000
 -0.250000  0.416667  0.250000      2.000000
 -0.083333  0.416667  0.250000      2.000000
  0.083333 -0.416667  0.250000      2.000000
  0.250000 -0.416667  0.250000      2.000000
  0.416667 -0.416667  0.250000      2.000000
 -0.416667 -0.416667  0.250000      2.000000
 -0.250000 -0.416667  0.250000      2.000000
 -0.083333 -0.416667  0.250000      2.000000
  0.083333 -0.250000  0.250000      2.000000
  0.250000 -0.250000  0.250000      2.000000
  0.416667 -0.250000  0.250000      2.000000
 -0.416667 -0.250000  0.250000      2.000000
 -0.250000 -0.250000  0.250000      2.000000
 -0.083333 -0.250000  0.250000      2.000000
  0.083333 -0.083333  0.250000      2.000000
  0.250000 -0.083333  0.250000      2.000000
  0.416667 -0.083333  0.250000      2.000000
 -0.416667 -0.083333  0.250000      2.000000
 -0.250000 -0.083333  0.250000      2.000000
 -0.083333 -0.083333  0.250000      2.000000
 
 Following cartesian coordinates:
            Coordinates               Weight
  0.014875  0.025867  0.017926      2.000000
  0.044625  0.043065  0.018785      2.000000
  0.074375  0.060263  0.019644      2.000000
 -0.074375 -0.025728  0.015349      2.000000
 -0.044625 -0.008529  0.016208      2.000000
 -0.014875  0.008669  0.017067      2.000000
  0.014875  0.060402  0.019333      2.000000
  0.044625  0.077601  0.020192      2.000000
  0.074375  0.094799  0.021051      2.000000
 -0.074375  0.008808  0.016756      2.000000
 -0.044625  0.026006  0.017615      2.000000
 -0.014875  0.043204  0.018474      2.000000
  0.014875  0.094938  0.020740      2.000000
  0.044625  0.112136  0.021599      2.000000
  0.074375  0.129334  0.022458      2.000000
 -0.074375  0.043344  0.018163      2.000000
 -0.044625  0.060542  0.019022      2.000000
 -0.014875  0.077740  0.019881      2.000000
  0.014875 -0.077740  0.013705      2.000000
  0.044625 -0.060542  0.014564      2.000000
  0.074375 -0.043344  0.015423      2.000000
 -0.074375 -0.129334  0.011128      2.000000
 -0.044625 -0.112136  0.011987      2.000000
 -0.014875 -0.094938  0.012846      2.000000
  0.014875 -0.043204  0.015112      2.000000
  0.044625 -0.026006  0.015971      2.000000
  0.074375 -0.008808  0.016830      2.000000
 -0.074375 -0.094799  0.012535      2.000000
 -0.044625 -0.077601  0.013394      2.000000
 -0.014875 -0.060402  0.014253      2.000000
  0.014875 -0.008669  0.016519      2.000000
  0.044625  0.008529  0.017378      2.000000
  0.074375  0.025728  0.018237      2.000000
 -0.074375 -0.060263  0.013942      2.000000
 -0.044625 -0.043065  0.014801      2.000000
 -0.014875 -0.025867  0.015660      2.000000
 


--------------------------------------------------------------------------------------------------------




 Dimension of arrays:
   k-points           NKPTS =     36   k-points in BZ     NKDIM =     36   number of bands    NBANDS=    160
   number of dos      NEDOS =    301   number of ions     NIONS =     42
   non local maximal  LDIM  =      6   non local SUM 2l+1 LMDIM =     18
   total plane-waves  NPLWV = 116640
   max r-space proj   IRMAX =   2758   max aug-charges    IRDMAX=  11627
   dimension x,y,z NGX =    36 NGY =   36 NGZ =   90
   dimension x,y,z NGXF=    72 NGYF=   72 NGZF=  180
   support grid    NGXF=    72 NGYF=   72 NGZF=  180
   ions per type =               6  12  24
   NGX,Y,Z   is equivalent  to a cutoff of  10.68, 10.74, 10.04 a.u.
   NGXF,Y,Z  is equivalent  to a cutoff of  21.37, 21.47, 20.08 a.u.

 SYSTEM =  LiCoO2                                  
 POSCAR =  Li6 Co12 O24                            

 Startparameter for this run:
   NWRITE =      2    write-flag & timer
   PREC   = normal    normal or accurate (medium, high low for compatibility)
   ISTART =      0    job   : 0-new  1-cont  2-samecut
   ICHARG =      2    charge: 1-file 2-atom 10-const
   ISPIN  =      2    spin polarized calculation?
   LNONCOLLINEAR =      F non collinear calculations
   LSORBIT =      F    spin-orbit coupling
   INIWAV =      1    electr: 0-lowe 1-rand  2-diag
   LASPH  =      F    aspherical Exc in radial PAW
   METAGGA=      F    non-selfconsistent MetaGGA calc.

 Electronic Relaxation 1
   ENCUT  =  600.0 eV  44.10 Ry    6.64 a.u.  11.19 11.13 29.76*2*pi/ulx,y,z
   ENINI  =  600.0     initial cutoff
   ENAUG  =  605.4 eV  augmentation charge cutoff
   NELM   =    600;   NELMIN=  2; NELMDL= -5     # of ELM steps 
   EDIFF  = 0.1E-05   stopping-criterion for ELM
   LREAL  =      T    real-space projection
   NLSPLINE    = F    spline interpolate recip. space projectors
   LCOMPAT=      F    compatible to vasp.4.4
   GGA_COMPAT  = T    GGA compatible to vasp.4.4-vasp.4.6
   LMAXPAW     = -100 max onsite density
   LMAXMIX     =    2 max onsite mixed and CHGCAR
   VOSKOWN=      0    Vosko Wilk Nusair interpolation
   ROPT   =   -0.00050  -0.00050  -0.00050
 Ionic relaxation
   EDIFFG = 0.1E-04   stopping-criterion for IOM
   NSW    =      0    number of steps for IOM
   NBLOCK =      1;   KBLOCK =      1    inner block; outer block 
   IBRION =     -1    ionic relax: 0-MD 1-quasi-New 2-CG
   NFREE  =      0    steps in history (QN), initial steepest desc. (CG)
   ISIF   =      2    stress and relaxation
   IWAVPR =     10    prediction:  0-non 1-charg 2-wave 3-comb
   ISYM   =      0    0-nonsym 1-usesym 2-fastsym
   LCORR  =      T    Harris-Foulkes like correction to forces

   POTIM  = 0.5000    time-step for ionic-motion
   TEIN   =    0.0    initial temperature
   TEBEG  =    0.0;   TEEND  =   0.0 temperature during run
   SMASS  =  -3.00    Nose mass-parameter (am)
   estimated Nose-frequenzy (Omega)   =  0.10E-29 period in steps =****** mass=  -0.717E-27a.u.
   SCALEE = 1.0000    scale energy and forces
   NPACO  =    256;   APACO  = 16.0  distance and # of slots for P.C.
   PSTRESS=    0.0 pullay stress

  Mass of Ions in am
   POMASS =   7.01 58.93 16.00
  Ionic Valenz
   ZVAL   =   1.00  9.00  6.00
  Atomic Wigner-Seitz radii
   RWIGS  =  -1.00 -1.00 -1.00
  virtual crystal weights 
   VCA    =   1.00  1.00  1.00
   NELECT =     258.0000    total number of electrons
   NUPDOWN=       6.0000    fix difference up-down

 DOS related values:
   EMIN   =  10.00;   EMAX   =-10.00  energy-range for DOS
   EFERMI =   0.00
   ISMEAR =     0;   SIGMA  =   0.05  broadening in eV -4-tet -1-fermi 0-gaus

 Electronic relaxation 2 (details)
   IALGO  =     58    algorithm
   LDIAG  =      T    sub-space diagonalisation (order eigenvalues)
   LSUBROT=      F    optimize rotation matrix (better conditioning)
   TURBO    =      0    0=normal 1=particle mesh
   IRESTART =      0    0=no restart 2=restart with 2 vectors
   NREBOOT  =      0    no. of reboots
   NMIN     =      0    reboot dimension
   EREF     =   0.00    reference energy to select bands
   IMIX   =      4    mixing-type and parameters
     AMIX     =   0.40;   BMIX     =  1.00
     AMIX_MAG =   1.60;   BMIX_MAG =  1.00
     AMIN     =   0.10
     WC   =   100.;   INIMIX=   1;  MIXPRE=   1;  MAXMIX= -45

 Intra band minimization:
   WEIMIN = 0.0000     energy-eigenvalue tresh-hold
   EBREAK =  0.16E-08  absolut break condition
   DEPER  =   0.30     relativ break condition  

   TIME   =   0.40     timestep for ELM

  volume/ion in A,a.u.               =       9.58        64.67
  Fermi-wavevector in a.u.,A,eV,Ry     =   1.411551  2.667445 27.109303  1.992478
  Thomas-Fermi vector in A             =   2.533391
 
 Write flags
   LWAVE        =      F    write WAVECAR
   LDOWNSAMPLE  =      F    k-point downsampling of WAVECAR
   LCHARG       =      F    write CHGCAR
   LVTOT        =      F    write LOCPOT, total local potential
   LVHAR        =      F    write LOCPOT, Hartree potential only
   LELF         =      F    write electronic localiz. function (ELF)
   LORBIT       =     11    0 simple, 1 ext, 2 COOP (PROOUT), +10 PAW based schemes


 Dipole corrections
   LMONO  =      F    monopole corrections only (constant potential shift)
   LDIPOL =      F    correct potential (dipole corrections)
   IDIPOL =      0    1-x, 2-y, 3-z, 4-all directions 
   EPSILON=  1.0000000 bulk dielectric constant

 LDA+U is selected, type is set to LDAUTYPE =  2
   angular momentum for each species LDAUL =    -1    2   -1
   U (eV)           for each species LDAUU =   0.0  5.1  0.0
   J (eV)           for each species LDAUJ =   0.0  0.0  0.0
 Exchange correlation treatment:
   GGA     =    --    GGA type
   LEXCH   =     8    internal setting for exchange type
   VOSKOWN=      0    Vosko Wilk Nusair interpolation
   LHFCALC =     F    Hartree Fock is set to
   LHFONE  =     F    Hartree Fock one center treatment
   AEXX    =    0.0000 exact exchange contribution

 Linear response parameters
   LEPSILON=     F    determine dielectric tensor
   LRPA    =     F    only Hartree local field effects (RPA)
   LNABLA  =     F    use nabla operator in PAW spheres
   LVEL    =     F    velocity operator in full k-point grid
   LINTERFAST=   F  fast interpolation
   KINTER  =     0    interpolate to denser k-point grid
   CSHIFT  =0.1000    complex shift for real part using Kramers Kronig
   OMEGAMAX=  -1.0    maximum frequency
   DEG_THRESHOLD= 0.2000000E-02 threshold for treating states as degnerate
   RTIME   =   -0.100 relaxation time in fs
  (WPLASMAI=    0.000 imaginary part of plasma frequency in eV, 0.658/RTIME)
   DFIELD  = 0.0000000 0.0000000 0.0000000 field for delta impulse in time
 
 Orbital magnetization related:
   ORBITALMAG=     F  switch on orbital magnetization
   LCHIMAG   =     F  perturbation theory with respect to B field
   DQ        =  0.001000  dq finite difference perturbation B field
   LLRAUG    =     F  two centre corrections for induced B field



--------------------------------------------------------------------------------------------------------


 Static calculation
 charge density and potential will be updated during run
 spin polarized calculation
 Conjugate gradient for all bands (Freysoldt, et al. PRB 79, 241103 (2009))
 preconditioned conjugated gradient                                        
 perform sub-space diagonalisation
    before iterative eigenvector-optimisation
 modified Broyden-mixing scheme, WC =      100.0
 initial mixing is a Kerker type mixing with AMIX =  0.4000 and BMIX =      1.0000
 Hartree-type preconditioning will be used
 using additional bands           31
 real space projection scheme for non local part
 use partial core corrections
 no Harris-corrections to forces 
 use gradient corrections 
 use of overlap-Matrix (Vanderbilt PP)
 Gauss-broadening in eV      SIGMA  =   0.05


--------------------------------------------------------------------------------------------------------


  energy-cutoff  :      600.00
  volume of cell :      402.49
      direct lattice vectors                 reciprocal lattice vectors
     5.602273464  0.000000000  0.000000000     0.178498962  0.103188952  0.005153913
    -2.789839506  4.825937748  0.000000000     0.000000000  0.207213614  0.008442404
    -0.079209059 -0.606535017 14.887028694     0.000000000  0.000000000  0.067172572

  length of vectors
     5.602273464  5.574305304 14.899589999     0.206243550  0.207385525  0.067172572


 
 k-points in units of 2pi/SCALE and weight: read from INCAR                         
   0.01487491  0.02586688  0.01792617       0.028
   0.04462474  0.04306504  0.01878515       0.028
   0.07437457  0.06026320  0.01964414       0.028
  -0.07437457 -0.02572760  0.01534921       0.028
  -0.04462474 -0.00852944  0.01620820       0.028
  -0.01487491  0.00866872  0.01706718       0.028
   0.01487491  0.06040248  0.01933324       0.028
   0.04462474  0.07760064  0.02019222       0.028
   0.07437457  0.09479880  0.02105121       0.028
  -0.07437457  0.00880801  0.01675628       0.028
  -0.04462474  0.02600617  0.01761527       0.028
  -0.01487491  0.04320432  0.01847425       0.028
   0.01487491  0.09493808  0.02074030       0.028
   0.04462474  0.11213624  0.02159929       0.028
   0.07437457  0.12933440  0.02245827       0.028
  -0.07437457  0.04334361  0.01816335       0.028
  -0.04462474  0.06054177  0.01902233       0.028
  -0.01487491  0.07773993  0.01988132       0.028
   0.01487491 -0.07773993  0.01370497       0.028
   0.04462474 -0.06054177  0.01456395       0.028
   0.07437457 -0.04334361  0.01542294       0.028
  -0.07437457 -0.12933440  0.01112801       0.028
  -0.04462474 -0.11213624  0.01198700       0.028
  -0.01487491 -0.09493808  0.01284598       0.028
   0.01487491 -0.04320432  0.01511203       0.028
   0.04462474 -0.02600617  0.01597102       0.028
   0.07437457 -0.00880801  0.01683001       0.028
  -0.07437457 -0.09479880  0.01253508       0.028
  -0.04462474 -0.07760064  0.01339406       0.028
  -0.01487491 -0.06040248  0.01425305       0.028
   0.01487491 -0.00866872  0.01651910       0.028
   0.04462474  0.00852944  0.01737809       0.028
   0.07437457  0.02572760  0.01823707       0.028
  -0.07437457 -0.06026320  0.01394215       0.028
  -0.04462474 -0.04306504  0.01480113       0.028
  -0.01487491 -0.02586688  0.01566012       0.028
 
 k-points in reciprocal lattice and weights: read from INCAR                         
   0.08333333  0.08333333  0.25000000       0.028
   0.25000000  0.08333333  0.25000000       0.028
   0.41666667  0.08333333  0.25000000       0.028
  -0.41666667  0.08333333  0.25000000       0.028
  -0.25000000  0.08333333  0.25000000       0.028
  -0.08333333  0.08333333  0.25000000       0.028
   0.08333333  0.25000000  0.25000000       0.028
   0.25000000  0.25000000  0.25000000       0.028
   0.41666667  0.25000000  0.25000000       0.028
  -0.41666667  0.25000000  0.25000000       0.028
  -0.25000000  0.25000000  0.25000000       0.028
  -0.08333333  0.25000000  0.25000000       0.028
   0.08333333  0.41666667  0.25000000       0.028
   0.25000000  0.41666667  0.25000000       0.028
   0.41666667  0.41666667  0.25000000       0.028
  -0.41666667  0.41666667  0.25000000       0.028
  -0.25000000  0.41666667  0.25000000       0.028
  -0.08333333  0.41666667  0.25000000       0.028
   0.08333333 -0.41666667  0.25000000       0.028
   0.25000000 -0.41666667  0.25000000       0.028
   0.41666667 -0.41666667  0.25000000       0.028
  -0.41666667 -0.41666667  0.25000000       0.028
  -0.25000000 -0.41666667  0.25000000       0.028
  -0.08333333 -0.41666667  0.25000000       0.028
   0.08333333 -0.25000000  0.25000000       0.028
   0.25000000 -0.25000000  0.25000000       0.028
   0.41666667 -0.25000000  0.25000000       0.028
  -0.41666667 -0.25000000  0.25000000       0.028
  -0.25000000 -0.25000000  0.25000000       0.028
  -0.08333333 -0.25000000  0.25000000       0.028
   0.08333333 -0.08333333  0.25000000       0.028
   0.25000000 -0.08333333  0.25000000       0.028
   0.41666667 -0.08333333  0.25000000       0.028
  -0.41666667 -0.08333333  0.25000000       0.028
  -0.25000000 -0.08333333  0.25000000       0.028
  -0.08333333 -0.08333333  0.25000000       0.028
 
 position of ions in fractional coordinates (direct lattice) 
   0.04392371  0.08294825  0.99345145
   0.50161897  0.02274134  0.99410302
   0.48589862  0.51811971  0.99402909
   0.74081389  0.47225254  0.32626524
   0.69619368  0.36065724  0.68807146
   0.66212340  0.85146422  0.67249752
   0.17132306  0.36954279  0.15469910
   0.15558744  0.87581710  0.15496041
   0.67084432  0.34848476  0.15246561
   0.65732139  0.84993021  0.15080780
   0.98120749  0.97244152  0.51896791
   0.97761984  0.45986996  0.51585446
   0.47809228  0.96343359  0.51065596
   0.48123639  0.47132743  0.50827537
   0.34252959  0.17110922  0.82928840
   0.35943489  0.68009024  0.83008102
   0.85801087  0.17860180  0.83640869
   0.85106294  0.66500807  0.83552875
   0.99589591  0.05584994  0.21902826
   0.00582522  0.52697812  0.22800588
   0.51508791  0.03461117  0.21959385
   0.52028393  0.54170540  0.21843177
   0.35868825  0.20616248  0.07915012
   0.33437662  0.67658793  0.07256183
   0.81196088  0.16418630  0.08601784
   0.81880153  0.70288511  0.08172618
   0.33963442  0.16376021  0.57834512
   0.33524193  0.64145856  0.57431006
   0.80250431  0.13326775  0.58443762
   0.82965523  0.65197836  0.58137929
   0.12735321  0.27330122  0.45336986
   0.10445529  0.76780124  0.45354516
   0.61635591  0.27591624  0.45010526
   0.65549256  0.80523015  0.45342895
   0.22566036  0.34373328  0.89939643
   0.17705517  0.85754654  0.90272816
   0.68746526  0.33125931  0.89608481
   0.72307775  0.87484497  0.90282893
   0.01484365  0.01552352  0.76443329
   0.02488637  0.50564971  0.77514732
   0.50551697  0.99182382  0.75616433
   0.53718548  0.50138066  0.76554833
 
 position of ions in cartesian coordinates  (Angst):
  -0.06403000 -0.20226000 14.78954029
   2.66802001 -0.49320999 14.79924011
   1.19792998  1.89750004 14.79813957
   2.80689001  2.08117008  4.85712004
   2.83959007  1.32316995 10.24333954
   1.28067994  3.70122004 10.01148987
  -0.08342000  1.68956006  2.30300999
  -1.58402002  4.13264990  2.30690002
   2.77396011  1.58929002  2.26975989
   1.29937994  4.01024008  2.24507999
   2.74292994  4.37817001  7.72589016
   4.15306997  1.90641999  7.67954016
  -0.04987000  4.33973980  7.60214996
   1.34082997  1.96631002  7.56671000
   1.37589002  0.32277000 12.34564018
   0.05056000  2.77859998 12.35743999
   4.24229002  0.35461000 12.45164013
   2.84644008  2.70251012 12.43854046
   5.40611982  0.13668001  3.26067996
  -1.45561004  2.40487003  3.39433002
   2.77170992  0.03384000  3.26909995
   1.38619995  2.48175001  3.25180006
   1.42804003  0.94691998  1.17831004
  -0.02005000  3.22115994  1.08023000
   4.08396006  0.74018002  1.28055000
   2.61974001  3.34250999  1.21666002
   1.40005004  0.43950999  8.60984039
   0.04306000  2.74729991  8.54977036
   4.07776022  0.28865999  8.70053959
   2.78298998  2.79378009  8.65501022
  -0.08491000  1.04394996  6.74933004
  -1.59277999  3.43026996  6.75193977
   2.64757991  1.05855000  6.70072985
   1.38987005  3.61097002  6.75020981
   0.23401000  1.11331999 13.38934040
  -1.47201002  3.59092999 13.43894005
   2.85623002  1.05513000 13.34004021
   1.53868997  3.67435002 13.44044018
  -0.02070000 -0.38874000 11.38014030
  -1.33265996  1.97008002 11.53964043
   0.00512000  4.32783985 11.25704002
   1.55005002  1.95529997 11.39673996
 


--------------------------------------------------------------------------------------------------------


 k-point  1 :   0.0833 0.0833 0.2500  plane waves:   13417
 k-point  2 :   0.2500 0.0833 0.2500  plane waves:   13436
 k-point  3 :   0.4167 0.0833 0.2500  plane waves:   13416
 k-point  4 :  -0.4167 0.0833 0.2500  plane waves:   13427
 k-point  5 :  -0.2500 0.0833 0.2500  plane waves:   13417
 k-point  6 :  -0.0833 0.0833 0.2500  plane waves:   13431
 k-point  7 :   0.0833 0.2500 0.2500  plane waves:   13419
 k-point  8 :   0.2500 0.2500 0.2500  plane waves:   13444
 k-point  9 :   0.4167 0.2500 0.2500  plane waves:   13446
 k-point 10 :  -0.4167 0.2500 0.2500  plane waves:   13433
 k-point 11 :  -0.2500 0.2500 0.2500  plane waves:   13411
 k-point 12 :  -0.0833 0.2500 0.2500  plane waves:   13398
 k-point 13 :   0.0833 0.4167 0.2500  plane waves:   13446
 k-point 14 :   0.2500 0.4167 0.2500  plane waves:   13451
 k-point 15 :   0.4167 0.4167 0.2500  plane waves:   13438
 k-point 16 :  -0.4167 0.4167 0.2500  plane waves:   13438
 k-point 17 :  -0.2500 0.4167 0.2500  plane waves:   13435
 k-point 18 :  -0.0833 0.4167 0.2500  plane waves:   13452
 k-point 19 :   0.0833-0.4167 0.2500  plane waves:   13434
 k-point 20 :   0.2500-0.4167 0.2500  plane waves:   13430
 k-point 21 :   0.4167-0.4167 0.2500  plane waves:   13435
 k-point 22 :  -0.4167-0.4167 0.2500  plane waves:   13426
 k-point 23 :  -0.2500-0.4167 0.2500  plane waves:   13444
 k-point 24 :  -0.0833-0.4167 0.2500  plane waves:   13443
 k-point 25 :   0.0833-0.2500 0.2500  plane waves:   13429
 k-point 26 :   0.2500-0.2500 0.2500  plane waves:   13424
 k-point 27 :   0.4167-0.2500 0.2500  plane waves:   13424
 k-point 28 :  -0.4167-0.2500 0.2500  plane waves:   13459
 k-point 29 :  -0.2500-0.2500 0.2500  plane waves:   13444
 k-point 30 :  -0.0833-0.2500 0.2500  plane waves:   13438
 k-point 31 :   0.0833-0.0833 0.2500  plane waves:   13429
 k-point 32 :   0.2500-0.0833 0.2500  plane waves:   13401
 k-point 33 :   0.4167-0.0833 0.2500  plane waves:   13421
 k-point 34 :  -0.4167-0.0833 0.2500  plane waves:   13440
 k-point 35 :  -0.2500-0.0833 0.2500  plane waves:   13408
 k-point 36 :  -0.0833-0.0833 0.2500  plane waves:   13403

 maximum and minimum number of plane-waves per node :      3391     3315

 maximum number of plane-waves:     13459
 maximum index in each direction: 
   IXMAX=   11   IYMAX=   11   IZMAX=   29
   IXMIN=  -11   IYMIN=  -11   IZMIN=  -30


 real space projection operators:
  total allocation   :       7357.69 KBytes
  max/ min on nodes  :       1842.73       1837.23


 parallel 3D FFT for wavefunctions:
    minimum data exchange during FFTs selected (reduces bandwidth)
 parallel 3D FFT for charge:
    minimum data exchange during FFTs selected (reduces bandwidth)


 total amount of memory used by VASP MPI-rank0   161980. kBytes
=======================================================================

   base      :      30000. kBytes
   nonlr-proj:       4206. kBytes
   fftplans  :       1690. kBytes
   grid      :       4644. kBytes
   one-center:        342. kBytes
   wavefun   :     121098. kBytes
 
     INWAV:  cpu time    0.0000: real time    0.0002
 Broyden mixing: mesh for mixing (old mesh)
   NGX = 23   NGY = 23   NGZ = 59
  (NGX  = 72   NGY  = 72   NGZ  =180)
  gives a total of  31211 points

 initial charge density was supplied:
 charge density of overlapping atoms calculated
 number of electron     258.0000000 magnetization       6.0000000
 keeping initial charge density in first step


--------------------------------------------------------------------------------------------------------


 Maximum index for non-local projection operator          673
 Maximum index for augmentation-charges          977 (set IRDMAX)


--------------------------------------------------------------------------------------------------------


 First call to EWALD:  gamma=   0.240
 Maximum number of real-space cells 4x 4x 2
 Maximum number of reciprocal cells 2x 2x 5

    FEWALD:  cpu time    0.0048: real time    0.0051


--------------------------------------- Iteration      1(   1)  ---------------------------------------


    POTLOK:  cpu time    0.0698: real time    0.0841
    SETDIJ:  cpu time    0.0195: real time    0.0202
    TRIAL :  cpu time   23.0491: real time   23.3713
    CORREC:  cpu time    0.0042: real time    0.0042
    --------------------------------------------
      LOOP:  cpu time   23.3718: real time   23.7139

 eigenvalue-minimisations  : 23040
 total energy-change (2. order) : 0.3494779E+04  (-0.1392306E+05)
 number of electron     258.0000000 magnetization       6.0000000
 augmentation part      258.0000000 magnetization       6.0000000

 Free energy of the ion-electron system (eV)
  ---------------------------------------------------
  alpha Z        PSCENC =       728.38444512
  Ewald energy   TEWEN  =    -12624.55533108
  -Hartree energ DENC   =     -8283.47288344
  -exchange      EXHF   =         0.00000000
  -V(xc)+E(xc)   XCENC  =       843.62644611
  PAW double counting   =     17015.18481625   -17491.61297812
  entropy T*S    EENTRO =        -0.00617771
  eigenvalues    EBANDS =      3138.35934043
  atomic energy  EATOM  =     20168.87094289
  ---------------------------------------------------
  free energy    TOTEN  =      3494.77862045 eV

  energy without entropy =     3494.78479816  energy(sigma->0) =     3494.78170931


--------------------------------------------------------------------------------------------------------




--------------------------------------- Iteration      1(   2)  ---------------------------------------


    TRIAL :  cpu time   23.5870: real time   24.7512
    CORREC:  cpu time    0.0042: real time    0.0042
    --------------------------------------------
      LOOP:  cpu time   23.5917: real time   24.7599

 eigenvalue-minimisations  : 24864
 total energy-change (2. order) :-0.3076513E+04  (-0.2833879E+04)
 number of electron     258.0000000 magnetization       6.0000000
 augmentation part      258.0000000 magnetization       6.0000000

 Free energy of the ion-electron system (eV)
  ---------------------------------------------------
  alpha Z        PSCENC =       728.38444512
  Ewald energy   TEWEN  =    -12624.55533108
  -Hartree energ DENC   =     -8283.47288344
  -exchange      EXHF   =         0.00000000
  -V(xc)+E(xc)   XCENC  =       843.62644611
  PAW double counting   =     17015.18481625   -17491.61297812
  entropy T*S    EENTRO =        -0.02197683
  eigenvalues    EBANDS =        61.86178169
  atomic energy  EATOM  =     20168.87094289
  ---------------------------------------------------
  free energy    TOTEN  =       418.26526260 eV

  energy without entropy =      418.28723942  energy(sigma->0) =      418.27625101


--------------------------------------------------------------------------------------------------------




--------------------------------------- Iteration      1(   3)  ---------------------------------------


    TRIAL :  cpu time   25.0323: real time   25.5986
    CORREC:  cpu time    0.0045: real time    0.0045
    --------------------------------------------
      LOOP:  cpu time   25.0371: real time   25.6076

 eigenvalue-minimisations  : 26240
 total energy-change (2. order) :-0.6373778E+03  (-0.5851504E+03)
 number of electron     258.0000000 magnetization       6.0000000
 augmentation part      258.0000000 magnetization       6.0000000

 Free energy of the ion-electron system (eV)
  ---------------------------------------------------
  alpha Z        PSCENC =       728.38444512
  Ewald energy   TEWEN  =    -12624.55533108
  -Hartree energ DENC   =     -8283.47288344
  -exchange      EXHF   =         0.00000000
  -V(xc)+E(xc)   XCENC  =       843.62644611
  PAW double counting   =     17015.18481625   -17491.61297812
  entropy T*S    EENTRO =        -0.03816906
  eigenvalues    EBANDS =      -575.49978375
  atomic energy  EATOM  =     20168.87094289
  ---------------------------------------------------
  free energy    TOTEN  =      -219.11249508 eV

  energy without entropy =     -219.07432601  energy(sigma->0) =     -219.09341055


--------------------------------------------------------------------------------------------------------




--------------------------------------- Iteration      1(   4)  ---------------------------------------


    TRIAL :  cpu time   24.0175: real time   24.8987
    CORREC:  cpu time    0.0041: real time    0.0041
    --------------------------------------------
      LOOP:  cpu time   24.0219: real time   24.9074

 eigenvalue-minimisations  : 25280
 total energy-change (2. order) :-0.5150052E+02  (-0.5029379E+02)
 number of electron     258.0000000 magnetization       6.0000000
 augmentation part      258.0000000 magnetization       6.0000000

 Free energy of the ion-electron system (eV)
  ---------------------------------------------------
  alpha Z        PSCENC =       728.38444512
  Ewald energy   TEWEN  =    -12624.55533108
  -Hartree energ DENC   =     -8283.47288344
  -exchange      EXHF   =         0.00000000
  -V(xc)+E(xc)   XCENC  =       843.62644611
  PAW double counting   =     17015.18481625   -17491.61297812
  entropy T*S    EENTRO =        -0.03411002
  eigenvalues    EBANDS =      -627.00436354
  atomic energy  EATOM  =     20168.87094289
  ---------------------------------------------------
  free energy    TOTEN  =      -270.61301583 eV

  energy without entropy =     -270.57890581  energy(sigma->0) =     -270.59596082


--------------------------------------------------------------------------------------------------------




--------------------------------------- Iteration      1(   5)  ---------------------------------------


    TRIAL :  cpu time   26.7561: real time   27.1453
    CORREC:  cpu time    0.0045: real time    0.0045
    CHARGE:  cpu time    0.4334: real time    0.4457
    --------------------------------------------
      LOOP:  cpu time   27.1945: real time   27.6001

 eigenvalue-minimisations  : 28560
 total energy-change (2. order) :-0.1805335E+01  (-0.1801737E+01)
 number of electron     258.0000110 magnetization       5.9999999
 augmentation part       68.1822517 magnetization       4.3083592

 Free energy of the ion-electron system (eV)
  ---------------------------------------------------
  alpha Z        PSCENC =       728.38444512
  Ewald energy   TEWEN  =    -12624.55533108
  -Hartree energ DENC   =     -8283.47288344
  -exchange      EXHF   =         0.00000000
  -V(xc)+E(xc)   XCENC  =       843.62644611
  PAW double counting   =     17015.18481625   -17491.61297812
  entropy T*S    EENTRO =        -0.03431744
  eigenvalues    EBANDS =      -628.80949154
  atomic energy  EATOM  =     20168.87094289
  ---------------------------------------------------
  free energy    TOTEN  =      -272.41835125 eV

  energy without entropy =     -272.38403381  energy(sigma->0) =     -272.40119253


--------------------------------------------------------------------------------------------------------




--------------------------------------- Iteration      1(   6)  ---------------------------------------


    POTLOK:  cpu time    0.0476: real time    0.0477
    SETDIJ:  cpu time    0.0132: real time    0.0133
    TRIAL :  cpu time   12.8702: real time   12.9977
    CORREC:  cpu time    4.2313: real time    4.2793
    CHARGE:  cpu time    0.4248: real time    0.4275
    --------------------------------------------
      LOOP:  cpu time   17.5911: real time   17.7694

 eigenvalue-minimisations  :     0
 total energy-change (2. order) : 0.3643876E+03  (-0.6109824E+02)
 number of electron     258.0000102 magnetization       6.0000006
 augmentation part       69.1533231 magnetization       4.3485884

 Free energy of the ion-electron system (eV)
  ---------------------------------------------------
  alpha Z        PSCENC =       728.38444512
  Ewald energy   TEWEN  =    -12624.55533108
  -Hartree energ DENC   =     -8086.83530433
  -exchange      EXHF   =         0.00000000
  -V(xc)+E(xc)   XCENC  =       878.32917940
  PAW double counting   =     24007.05171840   -24218.19508700
  entropy T*S    EENTRO =        -0.04830463
  eigenvalues    EBANDS =      -761.04703925
  atomic energy  EATOM  =     20168.87094289
  ---------------------------------------------------
  free energy    TOTEN  =        91.96920671 eV

  energy without entropy =       92.01751133  energy(sigma->0) =       91.99335902


--------------------------------------------------------------------------------------------------------




--------------------------------------- Iteration      1(   7)  ---------------------------------------


    POTLOK:  cpu time    0.0469: real time    0.0470
    SETDIJ:  cpu time    0.0124: real time    0.0124
    TRIAL :  cpu time   12.7953: real time   12.9086
    CORREC:  cpu time    4.2252: real time    4.2556
    CHARGE:  cpu time    0.5199: real time    0.5210
    --------------------------------------------
      LOOP:  cpu time   17.6040: real time   17.7488

 eigenvalue-minimisations  :     0
 total energy-change (2. order) :-0.7408149E+02  (-0.1165780E+03)
 number of electron     258.0000093 magnetization       6.0000013
 augmentation part       70.0340068 magnetization       4.0101851

 Free energy of the ion-electron system (eV)
  ---------------------------------------------------
  alpha Z        PSCENC =       728.38444512
  Ewald energy   TEWEN  =    -12624.55533108
  -Hartree energ DENC   =     -7874.72232123
  -exchange      EXHF   =         0.00000000
  -V(xc)+E(xc)   XCENC  =       872.54205272
  PAW double counting   =     23863.14638366   -24112.61343937
  entropy T*S    EENTRO =        -0.02692746
  eigenvalues    EBANDS =     -1003.11670676
  atomic energy  EATOM  =     20168.87094289
  ---------------------------------------------------
  free energy    TOTEN  =        17.88772133 eV

  energy without entropy =       17.91464880  energy(sigma->0) =       17.90118506


--------------------------------------------------------------------------------------------------------




--------------------------------------- Iteration      1(   8)  ---------------------------------------


    POTLOK:  cpu time    0.0476: real time    0.0476
    SETDIJ:  cpu time    0.0125: real time    0.0128
    TRIAL :  cpu time   12.9602: real time   13.0013
    CORREC:  cpu time    4.3819: real time    4.3942
    CHARGE:  cpu time    0.4265: real time    0.4276
    --------------------------------------------
      LOOP:  cpu time   17.8329: real time   17.8877

 eigenvalue-minimisations  :     0
 total energy-change (2. order) : 0.5671292E+00  (-0.3764591E+03)
 number of electron     258.0000097 magnetization       6.0000000
 augmentation part       72.9974194 magnetization       3.8897549

 Free energy of the ion-electron system (eV)
  ---------------------------------------------------
  alpha Z        PSCENC =       728.38444512
  Ewald energy   TEWEN  =    -12624.55533108
  -Hartree energ DENC   =     -7667.58370590
  -exchange      EXHF   =         0.00000000
  -V(xc)+E(xc)   XCENC  =       858.84978439
  PAW double counting   =     23493.32326585   -23787.17053998
  entropy T*S    EENTRO =        -0.05392739
  eigenvalues    EBANDS =     -1151.63708334
  atomic energy  EATOM  =     20168.87094289
  ---------------------------------------------------
  free energy    TOTEN  =        18.45485049 eV

  energy without entropy =       18.50877788  energy(sigma->0) =       18.48181418


--------------------------------------------------------------------------------------------------------




--------------------------------------- Iteration      1(   9)  ---------------------------------------


    POTLOK:  cpu time    0.0473: real time    0.0475
    SETDIJ:  cpu time    0.0125: real time    0.0125
    TRIAL :  cpu time   12.7914: real time   12.8510
    CORREC:  cpu time    4.3791: real time    4.4083
    CHARGE:  cpu time    0.4328: real time    0.4338
    --------------------------------------------
      LOOP:  cpu time   17.6673: real time   17.7574

 eigenvalue-minimisations  :     0
 total energy-change (2. order) : 0.1128689E+02  (-0.9562778E+03)
 number of electron     258.0000092 magnetization       6.0000011
 augmentation part       73.9626323 magnetization       4.0282581

 Free energy of the ion-electron system (eV)
  ---------------------------------------------------
  alpha Z        PSCENC =       728.38444512
  Ewald energy   TEWEN  =    -12624.55533108
  -Hartree energ DENC   =     -8474.44596403
  -exchange      EXHF   =         0.00000000
  -V(xc)+E(xc)   XCENC  =       857.24388920
  PAW double counting   =     23699.30292160   -24107.56612637
  entropy T*S    EENTRO =        -0.01922690
  eigenvalues    EBANDS =      -217.43911219
  atomic energy  EATOM  =     20168.87094289
  ---------------------------------------------------
  free energy    TOTEN  =        29.74173775 eV

  energy without entropy =       29.76096465  energy(sigma->0) =       29.75135120


--------------------------------------------------------------------------------------------------------




--------------------------------------- Iteration      1(  10)  ---------------------------------------


    POTLOK:  cpu time    0.0478: real time    0.0479
    SETDIJ:  cpu time    0.0126: real time    0.0126
    TRIAL :  cpu time   12.8550: real time   12.9030
    CORREC:  cpu time    4.2633: real time    4.2990
    CHARGE:  cpu time    0.4439: real time    0.4447
    --------------------------------------------
      LOOP:  cpu time   17.6269: real time   17.7114

 eigenvalue-minimisations  :     0
 total energy-change (2. order) :-0.1928243E+02  (-0.4573942E+02)
 number of electron     258.0000094 magnetization       6.0000008
 augmentation part       74.5316334 magnetization       3.7580980

 Free energy of the ion-electron system (eV)
  ---------------------------------------------------
  alpha Z        PSCENC =       728.38444512
  Ewald energy   TEWEN  =    -12624.55533108
  -Hartree energ DENC   =     -7902.65292476
  -exchange      EXHF   =         0.00000000
  -V(xc)+E(xc)   XCENC  =       857.64119176
  PAW double counting   =     23753.17022567   -24195.50212203
  entropy T*S    EENTRO =        -0.02954557
  eigenvalues    EBANDS =      -774.87788994
  atomic energy  EATOM  =     20168.87094289
  ---------------------------------------------------
  free energy    TOTEN  =        10.45931073 eV

  energy without entropy =       10.48885631  energy(sigma->0) =       10.47408352


--------------------------------------------------------------------------------------------------------




--------------------------------------- Iteration      1(  11)  ---------------------------------------


    POTLOK:  cpu time    0.0482: real time    0.0482
    SETDIJ:  cpu time    0.0126: real time    0.0126
    TRIAL :  cpu time   12.8238: real time   12.9749
    CORREC:  cpu time    4.2542: real time    4.3020
    CHARGE:  cpu time    0.4370: real time    0.4391
    --------------------------------------------
      LOOP:  cpu time   17.5801: real time   17.7812

 eigenvalue-minimisations  :     0
 total energy-change (2. order) :-0.1688362E+03  (-0.2049902E+02)
 number of electron     258.0000097 magnetization       6.0000005
 augmentation part       74.7435670 magnetization       3.6866749

 Free energy of the ion-electron system (eV)
  ---------------------------------------------------
  alpha Z        PSCENC =       728.38444512
  Ewald energy   TEWEN  =    -12624.55533108
  -Hartree energ DENC   =     -8099.38633624
  -exchange      EXHF   =         0.00000000
  -V(xc)+E(xc)   XCENC  =       854.50496150
  PAW double counting   =     23674.95334695   -24127.08826837
  entropy T*S    EENTRO =        -0.02971406
  eigenvalues    EBANDS =      -734.03109941
  atomic energy  EATOM  =     20168.87094289
  ---------------------------------------------------
  free energy    TOTEN  =      -158.37688421 eV

  energy without entropy =     -158.34717015  energy(sigma->0) =     -158.36202718


--------------------------------------------------------------------------------------------------------




--------------------------------------- Iteration      1(  12)  ---------------------------------------


    POTLOK:  cpu time    0.0472: real time    0.0478
    SETDIJ:  cpu time    0.0127: real time    0.0127
    TRIAL :  cpu time   12.9189: real time   13.0106
    CORREC:  cpu time    4.2912: real time    4.3240
    CHARGE:  cpu time    0.4486: real time    0.4509
    --------------------------------------------
      LOOP:  cpu time   17.7231: real time   17.8504

 eigenvalue-minimisations  :     0
 total energy-change (2. order) :-0.2210969E+02  (-0.3607837E+01)
 number of electron     258.0000096 magnetization       6.0000005
 augmentation part       74.8202075 magnetization       3.6617854

 Free energy of the ion-electron system (eV)
  ---------------------------------------------------
  alpha Z        PSCENC =       728.38444512
  Ewald energy   TEWEN  =    -12624.55533108
  -Hartree energ DENC   =     -8210.91655955
  -exchange      EXHF   =         0.00000000
  -V(xc)+E(xc)   XCENC  =       853.98103661
  PAW double counting   =     23682.97147208   -24140.92681000
  entropy T*S    EENTRO =        -0.03106725
  eigenvalues    EBANDS =      -638.26605385
  atomic energy  EATOM  =     20168.87094289
  ---------------------------------------------------
  free energy    TOTEN  =      -180.48657184 eV

  energy without entropy =     -180.45550459  energy(sigma->0) =     -180.47103821


--------------------------------------------------------------------------------------------------------




--------------------------------------- Iteration      1(  13)  ---------------------------------------


    POTLOK:  cpu time    0.0472: real time    0.0472
    SETDIJ:  cpu time    0.0125: real time    0.0125
    TRIAL :  cpu time   13.0381: real time   13.0818
    CORREC:  cpu time    4.4156: real time    4.4520
    CHARGE:  cpu time    0.4425: real time    0.4434
    --------------------------------------------
      LOOP:  cpu time   17.9604: real time   18.0414

 eigenvalue-minimisations  :     0
 total energy-change (2. order) :-0.1385797E+01  (-0.4917325E+01)
 number of electron     258.0000094 magnetization       6.0000007
 augmentation part       74.9803550 magnetization       3.6483919

 Free energy of the ion-electron system (eV)
  ---------------------------------------------------
  alpha Z        PSCENC =       728.38444512
  Ewald energy   TEWEN  =    -12624.55533108
  -Hartree energ DENC   =     -8223.67096615
  -exchange      EXHF   =         0.00000000
  -V(xc)+E(xc)   XCENC  =       853.75359004
  PAW double counting   =     23693.00573009   -24153.34021804
  entropy T*S    EENTRO =        -0.02873225
  eigenvalues    EBANDS =      -624.28949416
  atomic energy  EATOM  =     20168.87094289
  ---------------------------------------------------
  free energy    TOTEN  =      -181.87236854 eV

  energy without entropy =     -181.84363629  energy(sigma->0) =     -181.85800241


--------------------------------------------------------------------------------------------------------




--------------------------------------- Iteration      1(  14)  ---------------------------------------


    POTLOK:  cpu time    0.0478: real time    0.0480
    SETDIJ:  cpu time    0.0129: real time    0.0129
    TRIAL :  cpu time   12.7805: real time   12.8410
    CORREC:  cpu time    4.4925: real time    4.5078
    CHARGE:  cpu time    0.4328: real time    0.4340
    --------------------------------------------
      LOOP:  cpu time   17.7709: real time   17.8482

 eigenvalue-minimisations  :     0
 total energy-change (2. order) :-0.1814869E+01  (-0.3765322E+01)
 number of electron     258.0000092 magnetization       6.0000009
 augmentation part       74.9541846 magnetization       3.5673533

 Free energy of the ion-electron system (eV)
  ---------------------------------------------------
  alpha Z        PSCENC =       728.38444512
  Ewald energy   TEWEN  =    -12624.55533108
  -Hartree energ DENC   =     -8203.63193927
  -exchange      EXHF   =         0.00000000
  -V(xc)+E(xc)   XCENC  =       853.39626853
  PAW double counting   =     23713.72758656   -24179.35356916
  entropy T*S    EENTRO =        -0.02632056
  eigenvalues    EBANDS =      -640.49690852
  atomic energy  EATOM  =     20168.87094289
  ---------------------------------------------------
  free energy    TOTEN  =      -183.68723717 eV

  energy without entropy =     -183.66091661  energy(sigma->0) =     -183.67407689


--------------------------------------------------------------------------------------------------------




--------------------------------------- Iteration      1(  15)  ---------------------------------------


    POTLOK:  cpu time    0.0480: real time    0.0482
    SETDIJ:  cpu time    0.0125: real time    0.0126
    TRIAL :  cpu time   12.7981: real time   12.8524
    CORREC:  cpu time    4.2689: real time    4.3021
    CHARGE:  cpu time    0.4322: real time    0.4333
    --------------------------------------------
      LOOP:  cpu time   17.5642: real time   17.6538

 eigenvalue-minimisations  :     0
 total energy-change (2. order) : 0.6855261E+01  (-0.1261378E+02)
 number of electron     258.0000090 magnetization       6.0000010
 augmentation part       75.2834551 magnetization       3.5092812

 Free energy of the ion-electron system (eV)
  ---------------------------------------------------
  alpha Z        PSCENC =       728.38444512
  Ewald energy   TEWEN  =    -12624.55533108
  -Hartree energ DENC   =     -8159.48578726
  -exchange      EXHF   =         0.00000000
  -V(xc)+E(xc)   XCENC  =       852.48474195
  PAW double counting   =     23826.22122304   -24290.59382038
  entropy T*S    EENTRO =        -0.02740705
  eigenvalues    EBANDS =      -678.13206940
  atomic energy  EATOM  =     20168.87094289
  ---------------------------------------------------
  free energy    TOTEN  =      -176.83197568 eV

  energy without entropy =     -176.80456863  energy(sigma->0) =     -176.81827216


--------------------------------------------------------------------------------------------------------




--------------------------------------- Iteration      1(  16)  ---------------------------------------


    POTLOK:  cpu time    0.0477: real time    0.0479
    SETDIJ:  cpu time    0.0126: real time    0.0126
    TRIAL :  cpu time   12.7965: real time   12.9379
    CORREC:  cpu time    4.2969: real time    4.3334
    CHARGE:  cpu time    0.4384: real time    0.4410
    --------------------------------------------
      LOOP:  cpu time   17.5965: real time   17.7771

 eigenvalue-minimisations  :     0
 total energy-change (2. order) : 0.9385855E+01  (-0.7496111E+01)
 number of electron     258.0000089 magnetization       6.0000010
 augmentation part       75.8501417 magnetization       3.4086810

 Free energy of the ion-electron system (eV)
  ---------------------------------------------------
  alpha Z        PSCENC =       728.38444512
  Ewald energy   TEWEN  =    -12624.55533108
  -Hartree energ DENC   =     -8097.14750587
  -exchange      EXHF   =         0.00000000
  -V(xc)+E(xc)   XCENC  =       851.41073213
  PAW double counting   =     24090.90292679   -24566.91275643
  entropy T*S    EENTRO =        -0.02949615
  eigenvalues    EBANDS =      -718.37216730
  atomic energy  EATOM  =     20168.87094289
  ---------------------------------------------------
  free energy    TOTEN  =      -167.44612081 eV

  energy without entropy =     -167.41662466  energy(sigma->0) =     -167.43137274


--------------------------------------------------------------------------------------------------------




--------------------------------------- Iteration      1(  17)  ---------------------------------------


    POTLOK:  cpu time    0.0476: real time    0.0476
    SETDIJ:  cpu time    0.0125: real time    0.0125
    TRIAL :  cpu time   13.0274: real time   13.1359
    CORREC:  cpu time    4.2105: real time    4.2880
    CHARGE:  cpu time    0.4360: real time    0.4415
    --------------------------------------------
      LOOP:  cpu time   17.7384: real time   17.9301

 eigenvalue-minimisations  :     0
 total energy-change (2. order) : 0.1019586E+02  (-0.5704748E+01)
 number of electron     258.0000087 magnetization       6.0000009
 augmentation part       76.6540156 magnetization       3.0641278

 Free energy of the ion-electron system (eV)
  ---------------------------------------------------
  alpha Z        PSCENC =       728.38444512
  Ewald energy   TEWEN  =    -12624.55533108
  -Hartree energ DENC   =     -8109.41624962
  -exchange      EXHF   =         0.00000000
  -V(xc)+E(xc)   XCENC  =       850.72330080
  PAW double counting   =     24337.83352715   -24833.46618264
  entropy T*S    EENTRO =        -0.02606123
  eigenvalues    EBANDS =      -675.59522020
  atomic energy  EATOM  =     20168.87094289
  ---------------------------------------------------
  free energy    TOTEN  =      -157.25026374 eV

  energy without entropy =     -157.22420251  energy(sigma->0) =     -157.23723312


--------------------------------------------------------------------------------------------------------




--------------------------------------- Iteration      1(  18)  ---------------------------------------


    POTLOK:  cpu time    0.0481: real time    0.0482
    SETDIJ:  cpu time    0.0127: real time    0.0128
    TRIAL :  cpu time   12.9486: real time   13.0236
    CORREC:  cpu time    4.2692: real time    4.2839
    CHARGE:  cpu time    0.4317: real time    0.4327
    --------------------------------------------
      LOOP:  cpu time   17.7147: real time   17.8056

 eigenvalue-minimisations  :     0
 total energy-change (2. order) : 0.1149257E+03  (-0.4194100E+02)
 number of electron     258.0000085 magnetization       6.0000006
 augmentation part       79.2060868 magnetization       2.3497588

 Free energy of the ion-electron system (eV)
  ---------------------------------------------------
  alpha Z        PSCENC =       728.38444512
  Ewald energy   TEWEN  =    -12624.55533108
  -Hartree energ DENC   =     -8140.81232954
  -exchange      EXHF   =         0.00000000
  -V(xc)+E(xc)   XCENC  =       846.42989452
  PAW double counting   =     28893.23749145   -29415.86764271
  entropy T*S    EENTRO =        -0.02534791
  eigenvalues    EBANDS =      -497.98597213
  atomic energy  EATOM  =     20168.87094289
  ---------------------------------------------------
  free energy    TOTEN  =       -42.32456271 eV

  energy without entropy =      -42.29921479  energy(sigma->0) =      -42.31188875


--------------------------------------------------------------------------------------------------------




--------------------------------------- Iteration      1(  19)  ---------------------------------------


    POTLOK:  cpu time    0.0485: real time    0.0486
    SETDIJ:  cpu time    0.0125: real time    0.0125
    TRIAL :  cpu time   12.8185: real time   12.8869
    CORREC:  cpu time    4.3565: real time    4.3713
    CHARGE:  cpu time    0.4160: real time    0.4345
    --------------------------------------------
      LOOP:  cpu time   17.6562: real time   17.7581

 eigenvalue-minimisations  :     0
 total energy-change (2. order) : 0.1119713E+03  (-0.1908132E+02)
 number of electron     258.0000080 magnetization       6.0000005
 augmentation part       81.1514468 magnetization       2.2304122

 Free energy of the ion-electron system (eV)
  ---------------------------------------------------
  alpha Z        PSCENC =       728.38444512
  Ewald energy   TEWEN  =    -12624.55533108
  -Hartree energ DENC   =     -8486.61369337
  -exchange      EXHF   =         0.00000000
  -V(xc)+E(xc)   XCENC  =       845.91796317
  PAW double counting   =     32056.86272320   -32665.07132184
  entropy T*S    EENTRO =        -0.02303095
  eigenvalues    EBANDS =        45.87633160
  atomic energy  EATOM  =     20168.87094289
  ---------------------------------------------------
  free energy    TOTEN  =        69.64671178 eV

  energy without entropy =       69.66974274  energy(sigma->0) =       69.65822726


--------------------------------------------------------------------------------------------------------




--------------------------------------- Iteration      1(  20)  ---------------------------------------


    POTLOK:  cpu time    0.0472: real time    0.0498
    SETDIJ:  cpu time    0.0126: real time    0.0126
    TRIAL :  cpu time   13.0058: real time   13.0535
    CORREC:  cpu time    4.2408: real time    4.2551
    CHARGE:  cpu time    0.4180: real time    0.4192
    --------------------------------------------
      LOOP:  cpu time   17.7249: real time   17.7907

 eigenvalue-minimisations  :     0
 total energy-change (2. order) : 0.1443284E+03  (-0.8572018E+02)
 number of electron     258.0000071 magnetization       6.0000007
 augmentation part       83.9616190 magnetization       2.1265296

 Free energy of the ion-electron system (eV)
  ---------------------------------------------------
  alpha Z        PSCENC =       728.38444512
  Ewald energy   TEWEN  =    -12624.55533108
  -Hartree energ DENC   =     -8836.14341834
  -exchange      EXHF   =         0.00000000
  -V(xc)+E(xc)   XCENC  =       846.24607280
  PAW double counting   =     34875.46121445   -35551.27449031
  entropy T*S    EENTRO =        -0.02482172
  eigenvalues    EBANDS =       607.00866420
  atomic energy  EATOM  =     20168.87094289
  ---------------------------------------------------
  free energy    TOTEN  =       213.97506878 eV

  energy without entropy =      213.99989049  energy(sigma->0) =      213.98747963


--------------------------------------------------------------------------------------------------------




--------------------------------------- Iteration      1(  21)  ---------------------------------------


    POTLOK:  cpu time    0.0476: real time    0.0476
    SETDIJ:  cpu time    0.0125: real time    0.0125
    TRIAL :  cpu time   12.9200: real time   13.0141
    CORREC:  cpu time    4.2274: real time    4.2901
    CHARGE:  cpu time    0.4318: real time    0.4327
    --------------------------------------------
      LOOP:  cpu time   17.6436: real time   17.8015

 eigenvalue-minimisations  :     0
 total energy-change (2. order) : 0.4164689E+03  (-0.1219749E+03)
 number of electron     258.0000064 magnetization       6.0000007
 augmentation part       84.1333174 magnetization       2.2062135

 Free energy of the ion-electron system (eV)
  ---------------------------------------------------
  alpha Z        PSCENC =       728.38444512
  Ewald energy   TEWEN  =    -12624.55533108
  -Hartree energ DENC   =     -9434.55877410
  -exchange      EXHF   =         0.00000000
  -V(xc)+E(xc)   XCENC  =       840.57512478
  PAW double counting   =     46650.86032085   -47436.09579254
  entropy T*S    EENTRO =        -0.02592579
  eigenvalues    EBANDS =      1736.98782256
  atomic energy  EATOM  =     20168.87094289
  ---------------------------------------------------
  free energy    TOTEN  =       630.44393676 eV

  energy without entropy =      630.46986255  energy(sigma->0) =      630.45689965


--------------------------------------------------------------------------------------------------------




--------------------------------------- Iteration      1(  22)  ---------------------------------------


    POTLOK:  cpu time    0.0476: real time    0.0476
    SETDIJ:  cpu time    0.0126: real time    0.0126
    TRIAL :  cpu time   13.0200: real time   13.0720
    CORREC:  cpu time    4.2721: real time    4.2877
    CHARGE:  cpu time    0.4233: real time    0.4244
    --------------------------------------------
      LOOP:  cpu time   17.7800: real time   17.8488

 eigenvalue-minimisations  :     0
 total energy-change (2. order) : 0.4226952E+03  (-0.1009683E+03)
 number of electron     258.0000064 magnetization       6.0000006
 augmentation part       83.9672512 magnetization       1.8404806

 Free energy of the ion-electron system (eV)
  ---------------------------------------------------
  alpha Z        PSCENC =       728.38444512
  Ewald energy   TEWEN  =    -12624.55533108
  -Hartree energ DENC   =     -9674.32160661
  -exchange      EXHF   =         0.00000000
  -V(xc)+E(xc)   XCENC  =       832.59653074
  PAW double counting   =     63299.35491167   -64110.19852455
  entropy T*S    EENTRO =        -0.02518282
  eigenvalues    EBANDS =      2433.03365308
  atomic energy  EATOM  =     20168.87094289
  ---------------------------------------------------
  free energy    TOTEN  =      1053.13909547 eV

  energy without entropy =     1053.16427829  energy(sigma->0) =     1053.15168688


--------------------------------------------------------------------------------------------------------




--------------------------------------- Iteration      1(  23)  ---------------------------------------


    POTLOK:  cpu time    0.0473: real time    0.0474
    SETDIJ:  cpu time    0.0125: real time    0.0125
    TRIAL :  cpu time   12.9056: real time   12.9538
    CORREC:  cpu time    4.2528: real time    4.2835
    CHARGE:  cpu time    0.4186: real time    0.4197
    --------------------------------------------
      LOOP:  cpu time   17.6412: real time   17.7213

 eigenvalue-minimisations  :     0
 total energy-change (2. order) : 0.7131419E+03  (-0.4008608E+03)
 number of electron     258.0000055 magnetization       6.0000005
 augmentation part       80.3219612 magnetization       1.2007576

 Free energy of the ion-electron system (eV)
  ---------------------------------------------------
  alpha Z        PSCENC =       728.38444512
  Ewald energy   TEWEN  =    -12624.55533108
  -Hartree energ DENC   =     -9650.01792105
  -exchange      EXHF   =         0.00000000
  -V(xc)+E(xc)   XCENC  =       821.63449686
  PAW double counting   =     94381.03252019   -95246.09205583
  entropy T*S    EENTRO =        -0.01442279
  eigenvalues    EBANDS =      3187.04905257
  atomic energy  EATOM  =     20168.87094289
  ---------------------------------------------------
  free energy    TOTEN  =      1766.28096686 eV

  energy without entropy =     1766.29538964  energy(sigma->0) =     1766.28817825


--------------------------------------------------------------------------------------------------------




--------------------------------------- Iteration      1(  24)  ---------------------------------------


    POTLOK:  cpu time    0.0471: real time    0.0471
    SETDIJ:  cpu time    0.0125: real time    0.0125
    TRIAL :  cpu time   12.7864: real time   12.8272
    CORREC:  cpu time    4.4750: real time    4.4815
    CHARGE:  cpu time    0.4286: real time    0.4291
    --------------------------------------------
      LOOP:  cpu time   17.7540: real time   17.8019

 eigenvalue-minimisations  :     0
 total energy-change (2. order) : 0.1211789E+04  (-0.8094098E+03)
 number of electron     258.0000056 magnetization       6.0000004
 augmentation part       77.4132184 magnetization       1.4366089

 Free energy of the ion-electron system (eV)
  ---------------------------------------------------
  alpha Z        PSCENC =       728.38444512
  Ewald energy   TEWEN  =    -12624.55533108
  -Hartree energ DENC   =     -8966.23038992
  -exchange      EXHF   =         0.00000000
  -V(xc)+E(xc)   XCENC  =       788.03094691
  PAW double counting   =    220594.38396340  -221436.76296101
  entropy T*S    EENTRO =        -0.01541428
  eigenvalues    EBANDS =      3725.96315760
  atomic energy  EATOM  =     20168.87094289
  ---------------------------------------------------
  free energy    TOTEN  =      2978.07035113 eV

  energy without entropy =     2978.08576540  energy(sigma->0) =     2978.07805826


--------------------------------------------------------------------------------------------------------




--------------------------------------- Iteration      1(  25)  ---------------------------------------


    POTLOK:  cpu time    0.0473: real time    0.0474
    SETDIJ:  cpu time    0.0125: real time    0.0125
    TRIAL :  cpu time   12.8384: real time   12.8594
    CORREC:  cpu time    4.2845: real time    4.3911
    CHARGE:  cpu time    0.4063: real time    0.4190
    --------------------------------------------
      LOOP:  cpu time   17.5934: real time   17.7337

 eigenvalue-minimisations  :     0
 total energy-change (2. order) :-0.8116862E+03  (-0.9406638E+03)
 number of electron     258.0000056 magnetization       6.0000004
[...]
   20        1.570   3.365   0.000   4.935
   21        1.579   3.367   0.000   4.946
   22        1.567   3.418   0.000   4.985
   23        1.557   3.475   0.000   5.032
   24        1.567   3.400   0.000   4.967
   25        1.564   3.468   0.000   5.032
   26        1.571   3.417   0.000   4.988
   27        1.582   3.372   0.000   4.954
   28        1.576   3.427   0.000   5.002
   29        1.570   3.436   0.000   5.006
   30        1.570   3.422   0.000   4.992
   31        1.582   3.397   0.000   4.979
   32        1.579   3.389   0.000   4.967
   33        1.570   3.450   0.000   5.020
   34        1.581   3.413   0.000   4.994
   35        1.564   3.481   0.000   5.046
   36        1.563   3.435   0.000   4.998
   37        1.566   3.460   0.000   5.025
   38        1.561   3.466   0.000   5.027
   39        1.572   3.398   0.000   4.971
   40        1.568   3.464   0.000   5.032
   41        1.564   3.410   0.000   4.975
   42        1.559   3.480   0.000   5.039
--------------------------------------------------
tot         43.686  91.997  87.792 223.474
 


 magnetization (x)
 
# of ion       s       p       d       tot
------------------------------------------
    1        0.000   0.000   0.000   0.001
    2        0.001   0.001   0.000   0.002
    3        0.001  -0.005   0.000  -0.005
    4        0.001   0.000   0.000   0.001
    5        0.000  -0.000   0.000   0.000
    6        0.001   0.001   0.000   0.002
    7        0.003   0.004  -0.032  -0.025
    8        0.019   0.014   1.968   2.000
    9        0.004   0.005  -0.036  -0.027
   10        0.010   0.014   1.208   1.232
   11        0.011   0.015   1.243   1.269
   12        0.005   0.008  -0.005   0.008
   13        0.013   0.018   1.413   1.444
   14        0.013   0.017   1.291   1.321
   15        0.000   0.000  -0.242  -0.242
   16        0.001   0.001  -0.011  -0.009
   17        0.011   0.008   1.392   1.411
   18        0.005   0.004  -0.049  -0.040
   19        0.000  -0.193   0.000  -0.193
   20       -0.001  -0.172   0.000  -0.173
   21        0.000  -0.164   0.000  -0.164
   22        0.000  -0.026   0.000  -0.026
   23        0.001  -0.054   0.000  -0.053
   24        0.001  -0.104   0.000  -0.103
   25        0.000  -0.031   0.000  -0.031
   26        0.001  -0.098   0.000  -0.098
   27        0.001  -0.157   0.000  -0.156
   28        0.001  -0.088   0.000  -0.087
   29        0.001  -0.096   0.000  -0.094
   30        0.001  -0.079   0.000  -0.079
   31        0.001  -0.101   0.000  -0.100
   32        0.001  -0.134   0.000  -0.133
   33        0.000  -0.048   0.000  -0.048
   34        0.001  -0.110   0.000  -0.109
   35        0.000  -0.081   0.000  -0.080
   36       -0.000  -0.001   0.000  -0.001
   37        0.000  -0.038   0.000  -0.037
   38        0.001  -0.030   0.000  -0.029
   39       -0.000  -0.067   0.000  -0.068
   40        0.000  -0.052   0.000  -0.052
   41       -0.001  -0.139   0.000  -0.140
   42       -0.000  -0.005   0.000  -0.005
--------------------------------------------------
tot          0.110  -1.965   8.140   6.285
 
    FORLOC:  cpu time    0.0083: real time    0.0083
    FORNL :  cpu time    4.6389: real time    4.7240
    STRESS:  cpu time   13.6283: real time   13.6986
    FORCOR:  cpu time    0.0506: real time    0.0506
    OFIELD:  cpu time    0.0004: real time    0.0004

  DFT-D2 method for vdW energy calculation
  -------------------------------------------------------------------

  Parameters of vdW forcefield:
         C6(Jnm^6/mol)     R0(A)
   -----------------------------
   Li       1.610          0.825
   Co      10.800          1.562
   O        0.700          1.342

  IVDW =   1
  VDW_RADIUS =    50.000 A
  VDW_S6 =     0.750
  VDW_SR =     1.000
  VDW_D =    20.000
  LVDW_EWALD = F

  Number of pair interactions contributing to vdW energy: 1174262
  Edisp (eV):   -9.24643
    FORVDW:  cpu time    0.1749: real time    0.1768

  FORCE on cell =-STRESS in cart. coord.  units (eV):
  Direction    XX          YY          ZZ          XY          YZ          ZX
  --------------------------------------------------------------------------------------
  Alpha Z   728.38445   728.38445   728.38445
  Ewald    -400.17021  -236.14797-11988.30886  -133.83635   -67.64463  -110.00689
  Hartree  5767.62985  5838.85097 -3349.55775   -54.62141   -24.96945   -40.30062
  E(xc)   -1286.91102 -1286.62509 -1287.82237    -0.19525    -0.11959    -0.09102
  Local  -10309.37216-10530.29029 10369.53541   174.66201    87.78754   141.27129
  n-local  -592.11043  -586.82363  -596.37454    -4.62757    -2.52343    -4.19518
  augment  2026.25308  2017.95923  1998.10165     7.06179     2.78392     4.53942
  Kinetic  4080.08964  4073.77458  4135.61552     6.86175     0.88322     0.98836
  Fock        0.00000     0.00000     0.00000     0.00000     0.00000     0.00000
  vdW        -5.90460    -6.38908   -12.52976     0.29833    -0.15310     0.32213
  -------------------------------------------------------------------------------------
  Total       7.88860    12.69316    -2.95627    -4.39670    -3.95551    -7.47252
  in kB      31.40192    50.52734   -11.76794   -17.50183   -15.74561   -29.74567
  external pressure =       23.39 kB  Pullay stress =        0.00 kB


 VOLUME and BASIS-vectors are now :
 -----------------------------------------------------------------------------
  energy-cutoff  :      600.00
  volume of cell :      402.49
      direct lattice vectors                 reciprocal lattice vectors
     5.602273464  0.000000000  0.000000000     0.178498962  0.103188952  0.005153913
    -2.789839506  4.825937748  0.000000000     0.000000000  0.207213614  0.008442404
    -0.079209059 -0.606535017 14.887028694     0.000000000  0.000000000  0.067172572

  length of vectors
     5.602273464  5.574305304 14.899589999     0.206243550  0.207385525  0.067172572


 FORCES acting on ions:
    Electron-Ion                     Ewald-Force                    Non-Local-Force
 -----------------------------------------------------------------------------------------------
   0.140E+01 0.128E+01 -.192E+02   -.138E+01 -.144E+01 0.189E+02   -.250E+00 -.593E+00 0.362E+00
   -.230E+00 0.142E+01 -.104E+02   0.315E-02 -.153E+01 0.106E+02   0.239E+00 -.820E-01 -.479E+00
   -.493E+01 -.161E+01 -.941E+01   0.442E+01 0.166E+01 0.985E+01   0.128E+01 0.369E+00 -.570E+00
   0.234E+01 -.196E+01 -.119E+02   -.201E+01 0.188E+01 0.112E+02   -.330E+00 0.110E+00 0.611E+00
   -.390E+01 0.379E+00 0.316E+02   0.347E+01 -.178E+00 -.310E+02   0.716E+00 -.450E+00 -.134E+01
   -.319E+01 0.595E+01 0.121E+02   0.282E+01 -.559E+01 -.116E+02   0.745E+00 -.990E+00 -.135E+00
   0.582E+01 -.332E+02 -.248E+03   -.615E+01 0.343E+02 0.250E+03   0.399E+00 -.919E+00 -.236E+01
   -.413E+02 0.466E+02 -.275E+03   0.422E+02 -.474E+02 0.276E+03   0.111E+01 -.603E+00 -.760E+00
   -.161E+02 -.575E+02 -.260E+03   0.158E+02 0.584E+02 0.261E+03   0.379E-01 0.147E+01 -.229E+00
   0.285E+02 0.192E+02 -.284E+03   -.292E+02 -.190E+02 0.286E+03   0.303E+00 0.640E+00 -.263E+00
   -.327E+02 -.128E+02 0.188E+03   0.338E+02 0.122E+02 -.188E+03   -.206E+00 -.121E+00 0.502E+00
   -.212E+01 0.116E+02 0.224E+03   0.202E+01 -.113E+02 -.224E+03   -.705E+00 -.821E+00 0.491E+00
   0.481E+02 0.232E+02 0.296E+03   -.494E+02 -.232E+02 -.296E+03   -.216E+00 -.309E+00 0.489E+00
   -.404E+01 -.400E+01 0.314E+03   0.416E+01 0.307E+01 -.313E+03   0.336E+00 0.121E+00 0.213E+00
   -.476E+02 0.296E+02 0.762E+02   0.490E+02 -.309E+02 -.780E+02   0.153E+01 0.167E+00 0.297E+00
   -.167E+02 -.242E+02 -.491E+01   0.164E+02 0.243E+02 0.438E+01   0.125E+01 0.297E+00 0.205E+01
   0.918E+01 -.762E+00 0.201E+01   -.827E+01 0.477E+00 -.313E+01   0.219E+00 0.192E+00 -.654E+00
   0.657E+01 -.215E+02 -.525E+01   -.596E+01 0.233E+02 0.619E+01   -.368E+00 0.553E+00 -.586E+00
   -.180E+02 0.144E+02 -.525E+03   0.158E+02 -.148E+02 0.550E+03   0.271E+01 -.473E+00 -.252E+02
   -.315E+01 -.416E+02 -.488E+03   0.578E+01 0.436E+02 0.507E+03   -.328E+01 -.153E+01 -.200E+02
   0.356E+02 0.302E+02 -.519E+03   -.361E+02 -.330E+02 0.543E+03   -.562E+00 0.245E+01 -.240E+02
   0.399E+01 0.138E+02 -.520E+03   -.519E+01 -.150E+02 0.541E+03   0.948E+00 0.622E+00 -.207E+02
   0.214E+02 0.211E+02 0.153E+03   -.222E+02 -.209E+02 -.166E+03   -.643E+00 -.973E+00 0.133E+02
   0.659E+02 0.853E+00 0.150E+03   -.727E+02 -.139E+01 -.165E+03   0.629E+01 0.990E+00 0.172E+02
   -.233E+02 -.455E+02 0.179E+03   0.256E+02 0.492E+02 -.196E+03   -.138E+01 -.281E+01 0.171E+02
   -.640E+02 0.276E+02 0.167E+03   0.688E+02 -.315E+02 -.186E+03   -.352E+01 0.327E+01 0.199E+02
   0.553E+01 0.160E+02 -.202E+03   -.554E+01 -.169E+02 0.225E+03   -.504E+00 -.219E+00 -.231E+02
   0.306E+02 0.769E+01 -.202E+03   -.339E+02 -.945E+01 0.225E+03   0.248E+01 0.201E+01 -.227E+02
   -.287E+01 -.196E+02 -.204E+03   0.275E+01 0.223E+02 0.223E+03   0.421E+00 -.236E+01 -.186E+02
   -.899E+01 0.170E+02 -.204E+03   0.970E+01 -.193E+02 0.223E+03   -.159E+01 0.141E+01 -.186E+02
   0.200E+01 -.153E+02 0.540E+03   -.292E+01 0.160E+02 -.567E+03   0.108E+01 0.413E+00 0.259E+02
   -.200E+02 -.168E+02 0.528E+03   0.206E+02 0.191E+02 -.553E+03   0.655E+00 -.699E+00 0.232E+02
   -.188E+02 -.730E+01 0.535E+03   0.219E+02 0.751E+01 -.556E+03   -.173E+01 0.122E+01 0.194E+02
   0.294E+01 -.299E+00 0.547E+03   -.147E+01 0.264E+01 -.573E+03   -.145E+01 -.274E+01 0.243E+02
   0.394E+02 -.448E+02 -.354E+03   -.432E+02 0.485E+02 0.370E+03   0.142E+01 -.242E+01 -.153E+02
   -.392E+02 0.231E+02 -.350E+03   0.399E+02 -.255E+02 0.368E+03   0.108E+01 0.245E+01 -.182E+02
   0.644E+01 -.225E+00 -.357E+03   -.936E+01 0.153E+01 0.377E+03   0.180E+01 -.112E+01 -.185E+02
   0.300E+02 0.301E+02 -.338E+03   -.298E+02 -.342E+02 0.355E+03   -.179E+01 0.263E+01 -.164E+02
   0.321E+01 0.215E+02 0.379E+03   -.201E+01 -.237E+02 -.400E+03   -.160E+01 0.136E+01 0.215E+02
   -.969E+01 -.365E+01 0.364E+03   0.113E+02 0.472E+01 -.386E+03   -.220E+01 -.206E+01 0.205E+02
   -.205E+01 0.458E-01 0.348E+03   -.111E+01 0.500E+00 -.363E+03   0.351E+01 0.551E-01 0.169E+02
   0.242E+02 -.112E+02 0.366E+03   -.282E+02 0.109E+02 -.383E+03   0.247E+01 0.640E+00 0.166E+02
 -----------------------------------------------------------------------------------------------
   -.107E+02 -.114E+01 0.788E+01   -.675E-13 -.959E-13 -.341E-12   0.107E+02 0.115E+01 -.784E+01
 
 
 POSITION                                       TOTAL-FORCE (eV/Angst)
 -----------------------------------------------------------------------------------
     -0.06403     -0.20226     14.78954        -0.097389     -0.613253      0.068469
      2.66802     -0.49321     14.79924         0.016880     -0.170927     -0.254675
      1.19793      1.89750     14.79814         0.561998      0.297338     -0.187896
      2.80689      2.08117      4.85712         0.025216      0.018769     -0.168690
      2.83959      1.32317     10.24334         0.115726     -0.240527     -0.526970
      1.28068      3.70122     10.01149         0.285249     -0.504626      0.423017
     -0.08342      1.68956      2.30301         0.091412      0.007383     -0.857989
     -1.58402      4.13265      2.30690         1.747904     -1.106414     -0.131183
      2.77396      1.58929      2.26976        -0.290755      1.985902      0.251152
      1.29938      4.01024      2.24508        -0.203699      0.881605      0.585017
      2.74293      4.37817      7.72589         0.713452     -0.692369      0.554546
      4.15307      1.90642      7.67954        -0.785081     -0.345798      0.882455
     -0.04987      4.33974      7.60215        -1.217196     -0.250840      0.760622
      1.34083      1.96631      7.56671         0.402040     -0.798143      1.182601
      1.37589      0.32277     12.34564         2.514057     -0.924988     -1.082310
      0.05056      2.77860     12.35744         0.836835      0.345306      1.346861
      4.24229      0.35461     12.45164         1.012805     -0.142742     -1.633008
      2.84644      2.70251     12.43854         0.238335      2.061308      0.325883
      5.40612      0.13668      3.26068         0.578459     -0.862613      0.217444
     -1.45561      2.40487      3.39433        -0.577059      0.536678     -1.492567
      2.77171      0.03384      3.26910        -1.137564     -0.323939     -0.282887
      1.38620      2.48175      3.25180        -0.309083     -0.637018      0.130552
      1.42804      0.94692      1.17831        -1.462953     -0.823642      0.432808
     -0.02005      3.22116      1.08023        -0.598212      0.370182      2.032533
      4.08396      0.74018      1.28055         0.903581      0.944801     -0.480397
      2.61974      3.34251      1.21666         1.422365     -0.587915      0.381329
      1.40005      0.43951      8.60984        -0.492654     -1.066454      0.129592
      0.04306      2.74730      8.54977        -0.949829      0.209460      0.705177
      4.07776      0.28866      8.70054         0.334632      0.442290     -0.111985
      2.78299      2.79378      8.65501        -0.823886     -0.813091      0.354662
     -0.08491      1.04395      6.74933         0.145372      1.107515     -0.952838
     -1.59278      3.43027      6.75194         1.233733      1.571739     -1.122628
      2.64758      1.05855      6.70073         1.409659      1.375763     -1.290402
      1.38987      3.61097      6.75021         0.001899     -0.440913     -1.580948
      0.23401      1.11332     13.38934        -2.468299      1.343866      0.596817
     -1.47201      3.59093     13.43894         1.707380     -0.017058     -0.452727
      2.85623      1.05513     13.34004        -1.128692      0.281842      1.221120
      1.53869      3.67435     13.44044        -1.624512     -1.526316      0.151625
     -0.02070     -0.38874     11.38014        -0.342604     -0.803397      0.380584
     -1.33266      1.97008     11.53964        -0.521448     -0.961050     -1.469706
      0.00512      4.32784     11.25704         0.301571      0.524055      1.458051
      1.55005      1.95530     11.39674        -1.569649      0.348230     -0.493111
 -----------------------------------------------------------------------------------
    total drift:                                0.042534      0.011046      0.033053


--------------------------------------------------------------------------------------------------------



  FREE ENERGIE OF THE ION-ELECTRON SYSTEM (eV)
  ---------------------------------------------------
  free  energy   TOTEN  =      -232.82988772 eV

  energy  without entropy=     -232.82344356  energy(sigma->0) =     -232.82666564
 


--------------------------------------------------------------------------------------------------------


    POTLOK:  cpu time    0.0651: real time    0.0668


--------------------------------------------------------------------------------------------------------


     LOOP+:  cpu time 5053.0485: real time 5091.9371
    4ORBIT:  cpu time    0.0000: real time    0.0000
 


 total charge     
 
# of ion       s       p       d       tot
------------------------------------------
    1        0.097   0.204   0.000   0.301
    2        0.093   0.194   0.000   0.287
    3        0.110   0.231   0.000   0.341
    4        0.058   0.109   0.000   0.167
    5        0.093   0.198   0.000   0.291
    6        0.095   0.202   0.000   0.298
    7        0.418   0.637   7.332   8.386
    8        0.393   0.548   7.124   8.066
    9        0.441   0.694   7.401   8.536
   10        0.490   0.820   7.277   8.588
   11        0.490   0.818   7.276   8.584
   12        0.445   0.706   7.400   8.551
   13        0.476   0.775   7.256   8.508
   14        0.491   0.814   7.284   8.590
   15        0.471   0.762   7.424   8.658
   16        0.412   0.614   7.323   8.349
   17        0.473   0.769   7.266   8.507
   18        0.453   0.732   7.428   8.614
   19        1.584   3.358   0.000   4.942
   20        1.570   3.365   0.000   4.935
   21        1.579   3.367   0.000   4.946
   22        1.567   3.418   0.000   4.985
   23        1.557   3.475   0.000   5.032
   24        1.567   3.400   0.000   4.967
   25        1.564   3.468   0.000   5.032
   26        1.571   3.417   0.000   4.988
   27        1.582   3.372   0.000   4.954
   28        1.576   3.427   0.000   5.002
   29        1.570   3.436   0.000   5.006
   30        1.570   3.422   0.000   4.992
   31        1.582   3.397   0.000   4.979
   32        1.579   3.389   0.000   4.967
   33        1.570   3.450   0.000   5.020
   34        1.581   3.413   0.000   4.994
   35        1.564   3.481   0.000   5.046
   36        1.563   3.435   0.000   4.998
   37        1.566   3.460   0.000   5.025
   38        1.561   3.466   0.000   5.027
   39        1.572   3.398   0.000   4.971
   40        1.568   3.464   0.000   5.032
   41        1.564   3.410   0.000   4.975
   42        1.559   3.480   0.000   5.039
--------------------------------------------------
tot         43.686  91.997  87.792 223.474
 


 magnetization (x)
 
# of ion       s       p       d       tot
------------------------------------------
    1        0.000   0.000   0.000   0.001
    2        0.001   0.001   0.000   0.002
    3        0.001  -0.005   0.000  -0.005
    4        0.001   0.000   0.000   0.001
    5        0.000  -0.000   0.000   0.000
    6        0.001   0.001   0.000   0.002
    7        0.003   0.004  -0.032  -0.025
    8        0.019   0.014   1.968   2.000
    9        0.004   0.005  -0.036  -0.027
   10        0.010   0.014   1.208   1.232
   11        0.011   0.015   1.243   1.269
   12        0.005   0.008  -0.005   0.008
   13        0.013   0.018   1.413   1.444
   14        0.013   0.017   1.291   1.321
   15        0.000   0.000  -0.242  -0.242
   16        0.001   0.001  -0.011  -0.009
   17        0.011   0.008   1.392   1.411
   18        0.005   0.004  -0.049  -0.040
   19        0.000  -0.193   0.000  -0.193
   20       -0.001  -0.172   0.000  -0.173
   21        0.000  -0.164   0.000  -0.164
   22        0.000  -0.026   0.000  -0.026
   23        0.001  -0.054   0.000  -0.053
   24        0.001  -0.104   0.000  -0.103
   25        0.000  -0.031   0.000  -0.031
   26        0.001  -0.098   0.000  -0.098
   27        0.001  -0.157   0.000  -0.156
   28        0.001  -0.088   0.000  -0.087
   29        0.001  -0.096   0.000  -0.094
   30        0.001  -0.079   0.000  -0.079
   31        0.001  -0.101   0.000  -0.100
   32        0.001  -0.134   0.000  -0.133
   33        0.000  -0.048   0.000  -0.048
   34        0.001  -0.110   0.000  -0.109
   35        0.000  -0.081   0.000  -0.080
   36       -0.000  -0.001   0.000  -0.001
   37        0.000  -0.038   0.000  -0.037
   38        0.001  -0.030   0.000  -0.029
   39       -0.000  -0.067   0.000  -0.068
   40        0.000  -0.052   0.000  -0.052
   41       -0.001  -0.139   0.000  -0.140
   42       -0.000  -0.005   0.000  -0.005
--------------------------------------------------
tot          0.110  -1.965   8.140   6.285
 

 total amount of memory used by VASP MPI-rank0   161980. kBytes
=======================================================================

   base      :      30000. kBytes
   nonlr-proj:       4206. kBytes
   fftplans  :       1690. kBytes
   grid      :       4644. kBytes
   one-center:        342. kBytes
   wavefun   :     121098. kBytes
 
  
  
 General timing and accounting informations for this job:
 ========================================================
  
                  Total CPU time used (sec):     5079.045
                            User time (sec):     4745.981
                          System time (sec):      333.064
                         Elapsed time (sec):     5118.491
  
                   Maximum memory used (kb):     1101460.
                   Average memory used (kb):           0.
  
                          Minor page faults:        71825
                          Major page faults:           81
                 Voluntary context switches:          630
