 running on   64 total cores
 distrk:  each k-point on   64 cores,    1 groups
 distr:  one band on    4 cores,   16 groups
 using from now: INCAR     
 vasp.5.4.4.18Apr17-6-g9f103f2a35 (build Nov 22 2021 14:44:17) complex          
  
 POSCAR found type information on POSCAR  Li Co O 
 POSCAR found :  3 types and      42 ions
 scaLAPACK will be used
 LDA part: xc-table for Pade appr. of Perdew
 generate k-points for:    6    6    2
 POSCAR, INCAR and KPOINTS ok, starting setup
 FFT: planning ...
 WAVECAR not read
 entering main loop
       N       E                     dE             d eps       ncg     rms          ort
DAV:   1     0.346330532560E+04    0.34633E+04   -0.13893E+05  5760   0.214E+03
DAV:   2     0.412034210636E+03   -0.30513E+04   -0.28092E+04  5760   0.521E+02
DAV:   3    -0.219970778883E+03   -0.63200E+03   -0.58061E+03  5760   0.252E+02
DAV:   4    -0.271155800287E+03   -0.51185E+02   -0.50091E+02  5760   0.739E+01
DAV:   5    -0.273043079819E+03   -0.18873E+01   -0.18835E+01  5760   0.142E+01
 gam= 0.000 g(H,U,f)=  0.204E+04 0.174E+04 0.166E+04 ort(H,U,f) = 0.000E+00 0.000E+00 0.000E+00
SDA:   6     0.202333740209E+03    0.47538E+03   -0.18835E+01  5760   0.544E+04 0.000E+00
 gam= 0.000 trial= 0.400  step= 0.072 mean= 0.400
 gam= 0.000 g(H,U,f)=  0.123E+04 0.609E+04 0.169E+05 ort(H,U,f) = 0.818E+03-0.353E+04-0.128E+05
CGA:   7     0.117341900889E+03   -0.84992E+02   -0.19518E+03  5760   0.242E+05-0.155E+05
 gam= 0.000 trial= 0.384  step= 0.094 mean= 0.384
 gam= 0.000 g(H,U,f)=  0.178E+04 0.240E+05 0.687E+05 ort(H,U,f) =-0.454E+03-0.103E+05-0.312E+05
CGA:   8     0.518321745047E+03    0.40098E+03   -0.11367E+04  5760   0.944E+05-0.420E+05
 gam= 0.000 trial= 0.369  step= 0.156 mean= 0.369
 gam= 0.612 g(H,U,f)=  0.900E+04 0.488E+05 0.260E+02 ort(H,U,f) =-0.394E+04-0.915E+04-0.569E+01
CGA:   9     0.455243943349E+04    0.40341E+04   -0.73464E+04  5760   0.578E+05-0.131E+05
 gam= 0.612 trial= 0.358  step= 0.118 mean= 0.358
 gam= 0.000 g(H,U,f)=  0.851E+04 0.925E+04 0.301E+05 ort(H,U,f) =-0.662E+04-0.526E+04-0.284E+05
CGA:  10     0.345048356273E+04   -0.11020E+04   -0.29426E+04  5760   0.478E+05-0.403E+05
 gam= 0.000 trial= 0.346  step= 0.111 mean= 0.346
 gam= 0.000 g(H,U,f)=  0.125E+05 0.243E+05 0.180E+02 ort(H,U,f) =-0.726E+04-0.219E+05-0.129E+02
CGA:  11     0.411351868500E+04    0.66304E+03   -0.26546E+04  5760   0.367E+05-0.292E+05
 gam= 0.000 trial= 0.335  step= 0.094 mean= 0.335
 gam= 0.000 g(H,U,f)=  0.122E+05 0.196E+05 0.131E+04 ort(H,U,f) =-0.658E+04-0.218E+05-0.177E+04
CGA:  12     0.324496654981E+04   -0.86855E+03   -0.17279E+04  5760   0.331E+05-0.301E+05
 gam= 0.000 trial= 0.323  step= 0.084 mean= 0.323
 gam= 0.000 g(H,U,f)=  0.141E+05 0.234E+05 0.656E+04 ort(H,U,f) =-0.635E+04-0.228E+05-0.808E+04
CGA:  13     0.344652688368E+04    0.20156E+03   -0.13872E+04  5760   0.440E+05-0.372E+05
 gam= 0.000 trial= 0.311  step= 0.090 mean= 0.311
 gam= 0.000 g(H,U,f)=  0.170E+05 0.431E+05 0.312E+04 ort(H,U,f) =-0.791E+04-0.328E+05-0.256E+04
CGA:  14     0.454323051208E+04    0.10967E+04   -0.19772E+04  5760   0.632E+05-0.432E+05
 gam= 0.000 trial= 0.300  step= 0.104 mean= 0.300
 gam= 0.000 g(H,U,f)=  0.180E+05 0.311E+05 0.598E+03 ort(H,U,f) =-0.919E+04-0.280E+05-0.616E+03
CGA:  15     0.429926937787E+04   -0.24396E+03   -0.32981E+04  5760   0.497E+05-0.378E+05
 gam= 0.000 trial= 0.290  step= 0.091 mean= 0.290
 gam= 0.000 g(H,U,f)=  0.123E+05 0.303E+05 0.360E+04 ort(H,U,f) =-0.751E+04-0.384E+05-0.604E+04
CGA:  16     0.324701837199E+04   -0.10523E+04   -0.22608E+04  5760   0.462E+05-0.519E+05
 gam= 0.000 trial= 0.280  step= 0.080 mean= 0.280
 gam= 0.000 g(H,U,f)=  0.125E+05 0.660E+05 0.251E+04 ort(H,U,f) =-0.651E+04-0.647E+05-0.259E+04
CGA:  17     0.417377209697E+04    0.92675E+03   -0.18417E+04  5760   0.810E+05-0.738E+05
 gam= 0.000 trial= 0.270  step= 0.097 mean= 0.270
 gam= 0.000 g(H,U,f)=  0.126E+05 0.129E+06 0.281E+05 ort(H,U,f) =-0.910E+04-0.877E+05-0.183E+05
CGA:  18     0.602562642205E+04    0.18519E+04   -0.39252E+04  5760   0.170E+06-0.115E+06
 gam= 0.000 trial= 0.261  step= 0.115 mean= 0.261
 gam= 0.342 g(H,U,f)=  0.107E+05 0.450E+05 0.233E+04 ort(H,U,f) =-0.102E+05-0.415E+05-0.226E+04
CGA:  19     0.531774546894E+04   -0.70788E+03   -0.97875E+04  5760   0.580E+05-0.539E+05
 gam= 0.342 trial= 0.254  step= 0.097 mean= 0.254
 gam= 0.000 g(H,U,f)=  0.509E+04 0.188E+06 0.447E+05 ort(H,U,f) = 0.176E+04 0.100E+06 0.285E+05
CGA:  20     0.222199458100E+04   -0.30958E+04   -0.19146E+04  5760   0.238E+06 0.131E+06
 gam= 0.000 trial= 0.246  step= 0.109 mean= 0.246
 gam= 0.454 g(H,U,f)=  0.617E+04 0.998E+05 0.209E+04 ort(H,U,f) =-0.519E+04-0.361E+05-0.489E+03
CGA:  21     0.347924637176E+04    0.12573E+04   -0.12989E+05  5760   0.108E+06-0.417E+05
 gam= 0.454 trial= 0.239  step= 0.095 mean= 0.239
 gam= 1.083 g(H,U,f)=  0.620E+04 0.988E+05 0.121E+05 ort(H,U,f) =-0.191E+04-0.353E+05-0.432E+04
CGA:  22     0.579247546214E+04    0.23132E+04   -0.42341E+04  5760   0.117E+06-0.415E+05
 gam= 1.083 trial= 0.232  step= 0.087 mean= 0.232
 gam= 0.000 g(H,U,f)=  0.492E+04 0.214E+06 0.387E+05 ort(H,U,f) =-0.358E+04-0.132E+06-0.235E+05
CGA:  23     0.441794480196E+04   -0.13745E+04   -0.31418E+04  5760   0.258E+06-0.159E+06
 gam= 0.000 trial= 0.225  step= 0.112 mean= 0.225
 gam= 0.257 g(H,U,f)=  0.242E+04 0.503E+05 0.136E+05 ort(H,U,f) =-0.375E+04-0.212E+05-0.318E+04
CGA:  24     0.215487737577E+04   -0.22631E+04   -0.14456E+05  5760   0.663E+05-0.281E+05
 gam= 0.257 trial= 0.219  step= 0.084 mean= 0.219
 gam= 1.006 g(H,U,f)=  0.308E+04 0.588E+05 0.491E+04 ort(H,U,f) =-0.158E+03-0.245E+05-0.326E+04
CGA:  25     0.399005581283E+04    0.18352E+04   -0.24782E+04  5760   0.668E+05-0.279E+05
 gam= 1.006 trial= 0.212  step= 0.059 mean= 0.212
 gam= 0.033 g(H,U,f)=  0.144E+03 0.191E+04 0.130E+03 ort(H,U,f) =-0.236E+03-0.127E+05-0.736E+03
CGA:  26    -0.176086330785E+02   -0.40077E+04   -0.11342E+04  5760   0.219E+04-0.137E+05
 gam= 0.033 trial= 0.205  step= 0.073 mean= 0.205
 gam= 0.262 g(H,U,f)=  0.931E+02 0.418E+03 0.629E+02 ort(H,U,f) = 0.939E+02 0.850E+02-0.416E+02
CGA:  27    -0.841602156585E+02   -0.66552E+02   -0.63430E+02  5760   0.574E+03 0.137E+03
 gam= 0.262 trial= 0.198  step= 0.064 mean= 0.198
 gam= 0.432 g(H,U,f)=  0.680E+02 0.159E+03 0.213E+02 ort(H,U,f) = 0.902E+02 0.501E+02-0.326E+02
CGA:  28    -0.107408162960E+03   -0.23248E+02   -0.19561E+02  5760   0.248E+03 0.108E+03
 gam= 0.432 trial= 0.191  step= 0.201 mean= 0.191
 gam= 1.155 g(H,U,f)=  0.304E+02 0.207E+03 0.488E+02 ort(H,U,f) = 0.487E+02-0.207E+02-0.516E+01
CGA:  29    -0.137259549451E+03   -0.29851E+02   -0.29639E+02  5760   0.286E+03 0.229E+02
 gam= 1.155 trial= 0.192  step= 0.084 mean= 0.192
 gam= 0.568 g(H,U,f)=  0.311E+02 0.111E+03 0.206E+02 ort(H,U,f) = 0.522E+02-0.549E+02-0.227E+02
CGA:  30    -0.148683709108E+03   -0.11424E+02   -0.13129E+02  5760   0.163E+03-0.254E+02
 gam= 0.568 trial= 0.187  step= 0.165 mean= 0.187
 gam= 1.374 g(H,U,f)=  0.279E+02 0.146E+03 0.494E+02 ort(H,U,f) = 0.276E+02-0.151E+02-0.128E+02
CGA:  31    -0.160721470675E+03   -0.12038E+02   -0.12227E+02  5760   0.223E+03-0.273E+00
 gam= 1.374 trial= 0.185  step= 0.207 mean= 0.185
 gam= 0.402 g(H,U,f)=  0.261E+02 0.584E+02 0.532E+01 ort(H,U,f) = 0.994E+01 0.393E+02 0.316E+01
CGA:  32    -0.184752125030E+03   -0.24031E+02   -0.23087E+02  5760   0.899E+02 0.524E+02
 gam= 0.402 trial= 0.187  step= 0.192 mean= 0.187
 gam= 1.350 g(H,U,f)=  0.168E+02 0.785E+02 0.260E+02 ort(H,U,f) = 0.160E+02 0.645E+01-0.883E+01
CGA:  33    -0.195475469814E+03   -0.10723E+02   -0.10649E+02  5760   0.121E+03 0.136E+02
 gam= 1.350 trial= 0.187  step= 0.088 mean= 0.187
 gam= 0.180 g(H,U,f)=  0.840E+01 0.126E+02 0.735E+00 ort(H,U,f) = 0.625E+01-0.251E+00-0.624E+00
CGA:  34    -0.202206962871E+03   -0.67315E+01   -0.61561E+01  5760   0.218E+02 0.537E+01
 gam= 0.180 trial= 0.182  step= 0.235 mean= 0.182
 gam= 1.327 g(H,U,f)=  0.795E+01 0.183E+02 0.267E+01 ort(H,U,f) = 0.375E+01-0.361E+01-0.886E+00
CGA:  35    -0.204896046186E+03   -0.26891E+01   -0.26730E+01  5760   0.289E+02-0.746E+00
 gam= 1.327 trial= 0.185  step= 0.161 mean= 0.185
 gam= 1.176 g(H,U,f)=  0.820E+01 0.202E+02 0.554E+01 ort(H,U,f) = 0.658E+01-0.707E+01-0.144E+01
CGA:  36    -0.207176731328E+03   -0.22807E+01   -0.22441E+01  5760   0.340E+02-0.193E+01
 gam= 1.176 trial= 0.183  step= 0.168 mean= 0.183
 gam= 0.817 g(H,U,f)=  0.833E+01 0.180E+02 0.141E+01 ort(H,U,f) = 0.357E+01-0.303E+01 0.499E+00
CGA:  37    -0.209818017573E+03   -0.26413E+01   -0.26644E+01  5760   0.278E+02 0.104E+01
 gam= 0.817 trial= 0.183  step= 0.178 mean= 0.183
 gam= 1.006 g(H,U,f)=  0.662E+01 0.174E+02 0.384E+01 ort(H,U,f) =-0.153E+01 0.130E+01-0.183E+01
CGA:  38    -0.212357806941E+03   -0.25398E+01   -0.25394E+01  5760   0.279E+02-0.207E+01
 gam= 1.006 trial= 0.182  step= 0.093 mean= 0.182
 gam= 0.383 g(H,U,f)=  0.559E+01 0.480E+01 0.308E+00 ort(H,U,f) =-0.367E+01 0.397E+01 0.102E+01
CGA:  39    -0.213743923363E+03   -0.13861E+01   -0.12002E+01  5760   0.107E+02 0.132E+01
 gam= 0.383 trial= 0.178  step= 0.159 mean= 0.178
 gam= 1.477 g(H,U,f)=  0.459E+01 0.793E+01 0.327E+01 ort(H,U,f) = 0.970E+00-0.609E+00 0.565E-01
CGA:  40    -0.214633188956E+03   -0.88927E+00   -0.89234E+00  5760   0.158E+02 0.417E+00
 gam= 1.477 trial= 0.177  step= 0.079 mean= 0.177
 gam= 0.544 g(H,U,f)=  0.409E+01 0.434E+01 0.158E+00 ort(H,U,f) = 0.236E+01-0.213E+01 0.536E+00
CGA:  41    -0.215297028443E+03   -0.66384E+00   -0.64631E+00  5760   0.859E+01 0.765E+00
 gam= 0.544 trial= 0.172  step= 0.136 mean= 0.172
 gam= 2.121 g(H,U,f)=  0.324E+01 0.121E+02 0.285E+01 ort(H,U,f) = 0.304E+01-0.178E+01-0.176E+01
CGA:  42    -0.215898623011E+03   -0.60159E+00   -0.61083E+00  5760   0.182E+02-0.496E+00
 gam= 2.121 trial= 0.170  step= 0.144 mean= 0.170
 gam= 0.841 g(H,U,f)=  0.333E+01 0.924E+01 0.276E+01 ort(H,U,f) =-0.307E+01 0.143E+01-0.590E+00
CGA:  43    -0.217182079053E+03   -0.12835E+01   -0.12358E+01  5760   0.153E+02-0.223E+01
 gam= 0.841 trial= 0.169  step= 0.048 mean= 0.169
 gam= 0.483 g(H,U,f)=  0.321E+01 0.406E+01 0.127E+00 ort(H,U,f) =-0.232E+01 0.276E+01-0.945E-01
CGA:  44    -0.217527378558E+03   -0.34530E+00   -0.31982E+00  5760   0.740E+01 0.345E+00
 gam= 0.483 trial= 0.163  step= 0.093 mean= 0.163
 gam= 1.409 g(H,U,f)=  0.244E+01 0.526E+01 0.272E+01 ort(H,U,f) = 0.115E+00 0.101E+01-0.536E+00
CGA:  45    -0.217861659187E+03   -0.33428E+00   -0.35233E+00  5760   0.104E+02 0.585E+00
 gam= 1.409 trial= 0.159  step= 0.061 mean= 0.159
 gam= 0.651 g(H,U,f)=  0.222E+01 0.352E+01 0.104E+01 ort(H,U,f) =-0.323E+00 0.295E+00 0.123E+01
CGA:  46    -0.218156918386E+03   -0.29526E+00   -0.34332E+00  5760   0.678E+01 0.120E+01
 gam= 0.651 trial= 0.154  step= 0.064 mean= 0.154
 gam= 0.935 g(H,U,f)=  0.230E+01 0.364E+01 0.407E+00 ort(H,U,f) = 0.745E+00-0.319E+00-0.135E+00
CGA:  47    -0.218354082139E+03   -0.19716E+00   -0.24370E+00  5760   0.634E+01 0.292E+00
 gam= 0.935 trial= 0.150  step= 0.108 mean= 0.150
 gam= 1.341 g(H,U,f)=  0.200E+01 0.452E+01 0.198E+01 ort(H,U,f) = 0.932E+00-0.152E-01-0.500E+00
CGA:  48    -0.218693335488E+03   -0.33925E+00   -0.35840E+00  5760   0.850E+01 0.417E+00
 gam= 1.341 trial= 0.148  step= 0.078 mean= 0.148
 gam= 0.514 g(H,U,f)=  0.182E+01 0.229E+01 0.251E+00 ort(H,U,f) =-0.956E-02-0.262E+00 0.425E+00
CGA:  49    -0.219020249513E+03   -0.32691E+00   -0.35178E+00  5760   0.437E+01 0.153E+00
 gam= 0.514 trial= 0.144  step= 0.100 mean= 0.144
 gam= 1.237 g(H,U,f)=  0.176E+01 0.278E+01 0.863E+00 ort(H,U,f) = 0.455E+00 0.533E+00-0.737E+00
CGA:  50    -0.219235926518E+03   -0.21568E+00   -0.22274E+00  5760   0.540E+01 0.252E+00
 gam= 1.237 trial= 0.142  step= 0.124 mean= 0.142
 gam= 0.967 g(H,U,f)=  0.154E+01 0.236E+01 0.132E+01 ort(H,U,f) =-0.636E+00 0.123E+01-0.233E+00
CGA:  51    -0.219588459835E+03   -0.35253E+00   -0.35560E+00  5760   0.522E+01 0.366E+00
 gam= 0.967 trial= 0.141  step= 0.072 mean= 0.141
 gam= 0.574 g(H,U,f)=  0.139E+01 0.146E+01 0.154E+00 ort(H,U,f) =-0.835E+00 0.122E+01-0.100E+00
CGA:  52    -0.219787020711E+03   -0.19856E+00   -0.20204E+00  5760   0.300E+01 0.282E+00
 gam= 0.574 trial= 0.138  step= 0.099 mean= 0.138
 gam= 1.228 g(H,U,f)=  0.128E+01 0.178E+01 0.623E+00 ort(H,U,f) =-0.256E-01 0.633E+00-0.414E+00
CGA:  53    -0.219940805905E+03   -0.15379E+00   -0.15562E+00  5760   0.368E+01 0.193E+00
 gam= 1.228 trial= 0.136  step= 0.098 mean= 0.136
 gam= 0.000 g(H,U,f)=  0.125E+01 0.242E+01 0.652E+00 ort(H,U,f) =-0.201E+00 0.655E+00-0.184E+00
SDA:  54    -0.220126352587E+03   -0.18555E+00   -0.19098E+00  5760   0.432E+01 0.270E+00
 gam= 0.000 trial= 0.134  step= 0.140 mean= 0.134
 gam= 0.607 g(H,U,f)=  0.692E+00 0.134E+01 0.591E+00 ort(H,U,f) = 0.576E+00 0.234E-01-0.618E+00
CGA:  55    -0.220429605817E+03   -0.30325E+00   -0.30337E+00  5760   0.262E+01-0.190E-01
 gam= 0.607 trial= 0.134  step= 0.308 mean= 0.134
 gam= 0.812 g(H,U,f)=  0.533E+00 0.126E+01 0.339E+00 ort(H,U,f) =-0.733E-02 0.332E+00-0.183E+00
CGA:  56    -0.220846253419E+03   -0.41665E+00   -0.40289E+00  5760   0.213E+01 0.141E+00
 gam= 0.812 trial= 0.143  step= 0.296 mean= 0.143
 gam= 1.875 g(H,U,f)=  0.611E+00 0.180E+01 0.159E+01 ort(H,U,f) =-0.185E+00 0.336E+00-0.331E+00
CGA:  57    -0.221165299683E+03   -0.31905E+00   -0.33291E+00  5760   0.400E+01-0.180E+00
 gam= 1.875 trial= 0.151  step= 0.171 mean= 0.151
 gam= 0.426 g(H,U,f)=  0.697E+00 0.983E+00 0.240E-01 ort(H,U,f) =-0.823E+00 0.885E+00 0.349E-01
CGA:  58    -0.221480004971E+03   -0.31471E+00   -0.31342E+00  5760   0.170E+01 0.967E-01
 gam= 0.426 trial= 0.152  step= 0.241 mean= 0.152
 gam= 0.856 g(H,U,f)=  0.465E+00 0.457E+00 0.537E+00 ort(H,U,f) =-0.855E-01 0.408E+00-0.161E+00
CGA:  59    -0.221699844146E+03   -0.21984E+00   -0.21052E+00  5760   0.146E+01 0.161E+00
 gam= 0.856 trial= 0.156  step= 0.141 mean= 0.156
 gam= 0.754 g(H,U,f)=  0.330E+00 0.412E+00 0.357E+00 ort(H,U,f) = 0.450E-01 0.283E+00-0.315E+00
CGA:  60    -0.221811989857E+03   -0.11215E+00   -0.11246E+00  5760   0.110E+01 0.128E-01
 gam= 0.754 trial= 0.155  step= 0.265 mean= 0.155
 gam= 0.851 g(H,U,f)=  0.282E+00 0.402E+00 0.252E+00 ort(H,U,f) =-0.105E+00 0.158E+00-0.136E+00
CGA:  61    -0.221954258573E+03   -0.14227E+00   -0.14726E+00  5760   0.936E+00-0.832E-01
 gam= 0.851 trial= 0.161  step= 0.188 mean= 0.161
 gam= 0.918 g(H,U,f)=  0.258E+00 0.343E+00 0.259E+00 ort(H,U,f) =-0.690E-01 0.219E+00-0.147E+00
CGA:  62    -0.222035683779E+03   -0.81425E-01   -0.81353E-01  5760   0.859E+00 0.277E-02
 gam= 0.918 trial= 0.162  step= 0.171 mean= 0.162
 gam= 0.726 g(H,U,f)=  0.194E+00 0.254E+00 0.175E+00 ort(H,U,f) =-0.629E-01 0.160E+00-0.114E+00
CGA:  63    -0.222109025784E+03   -0.73342E-01   -0.73485E-01  5760   0.623E+00-0.174E-01
 gam= 0.726 trial= 0.163  step= 0.221 mean= 0.163
 gam= 1.119 g(H,U,f)=  0.191E+00 0.284E+00 0.222E+00 ort(H,U,f) =-0.419E-01 0.163E+00-0.109E+00
CGA:  64    -0.222177327996E+03   -0.68302E-01   -0.67572E-01  5760   0.698E+00 0.126E-01
 gam= 1.119 trial= 0.166  step= 0.195 mean= 0.166
 gam= 1.091 g(H,U,f)=  0.175E+00 0.298E+00 0.288E+00 ort(H,U,f) =-0.993E-01 0.207E+00-0.128E+00
CGA:  65    -0.222246326249E+03   -0.68998E-01   -0.69558E-01  5760   0.761E+00-0.210E-01
 gam= 1.091 trial= 0.167  step= 0.156 mean= 0.167
 gam= 0.552 g(H,U,f)=  0.153E+00 0.149E+00 0.119E+00 ort(H,U,f) =-0.150E+00 0.243E+00-0.125E+00
CGA:  66    -0.222303761203E+03   -0.57435E-01   -0.57518E-01  5760   0.420E+00-0.315E-01
 gam= 0.552 trial= 0.167  step= 0.234 mean= 0.167
 gam= 1.522 g(H,U,f)=  0.150E+00 0.214E+00 0.276E+00 ort(H,U,f) =-0.337E-01 0.103E+00-0.875E-01
CGA:  67    -0.222349708506E+03   -0.45947E-01   -0.47096E-01  5760   0.640E+00-0.182E-01
 gam= 1.522 trial= 0.170  step= 0.136 mean= 0.170
 gam= 0.557 g(H,U,f)=  0.131E+00 0.145E+00 0.806E-01 ort(H,U,f) =-0.507E-01 0.123E+00-0.910E-01
CGA:  68    -0.222390793892E+03   -0.41085E-01   -0.41607E-01  5760   0.356E+00-0.186E-01
 gam= 0.557 trial= 0.168  step= 0.269 mean= 0.168
 gam= 0.868 g(H,U,f)=  0.800E-01 0.113E+00 0.117E+00 ort(H,U,f) =-0.237E-01 0.698E-01-0.338E-01
CGA:  69    -0.222438080691E+03   -0.47287E-01   -0.46478E-01  5760   0.309E+00 0.122E-01
 gam= 0.868 trial= 0.173  step= 0.122 mean= 0.173
 gam= 0.943 g(H,U,f)=  0.672E-01 0.894E-01 0.135E+00 ort(H,U,f) =-0.593E-02 0.869E-01-0.604E-01
CGA:  70    -0.222457165279E+03   -0.19085E-01   -0.19552E-01  5760   0.292E+00 0.206E-01
 gam= 0.943 trial= 0.171  step= 0.171 mean= 0.171
 gam= 0.434 g(H,U,f)=  0.595E-01 0.525E-01 0.148E-01 ort(H,U,f) =-0.151E-01 0.728E-01 0.279E-01
CGA:  71    -0.222483859071E+03   -0.26694E-01   -0.26655E-01  5760   0.127E+00 0.855E-01
 gam= 0.434 trial= 0.171  step= 0.240 mean= 0.171
 gam= 1.202 g(H,U,f)=  0.375E-01 0.630E-01 0.519E-01 ort(H,U,f) = 0.177E-01 0.423E-01-0.685E-02
CGA:  72    -0.222506208023E+03   -0.22349E-01   -0.19695E-01  5760   0.152E+00 0.531E-01
 gam= 1.202 trial= 0.174  step= 0.137 mean= 0.174
 gam= 1.056 g(H,U,f)=  0.284E-01 0.572E-01 0.754E-01 ort(H,U,f) = 0.458E-02 0.461E-01-0.422E-01
CGA:  73    -0.222520874601E+03   -0.14667E-01   -0.14836E-01  5760   0.161E+00 0.846E-02
 gam= 1.056 trial= 0.172  step= 0.180 mean= 0.172
 gam= 0.428 g(H,U,f)=  0.333E-01 0.349E-01 0.601E-03 ort(H,U,f) =-0.410E-01 0.523E-01-0.194E-02
CGA:  74    -0.222536228996E+03   -0.15354E-01   -0.15289E-01  5760   0.688E-01 0.939E-02
 gam= 0.428 trial= 0.173  step= 0.414 mean= 0.173
 gam= 0.811 g(H,U,f)=  0.305E-01 0.220E-01 0.336E-02 ort(H,U,f) =-0.177E-01 0.196E-01-0.456E-03
CGA:  75    -0.222551475195E+03   -0.15246E-01   -0.15070E-01  5760   0.558E-01 0.145E-02
 gam= 0.811 trial= 0.185  step= 0.277 mean= 0.185
 gam= 2.588 g(H,U,f)=  0.280E-01 0.504E-01 0.661E-01 ort(H,U,f) = 0.132E-02 0.122E-01-0.134E-01
CGA:  76    -0.222559362947E+03   -0.78878E-02   -0.78863E-02  5760   0.144E+00 0.641E-04
 gam= 2.588 trial= 0.189  step= 0.124 mean= 0.189
 gam= 0.289 g(H,U,f)=  0.208E-01 0.205E-01 0.476E-03 ort(H,U,f) =-0.184E-01 0.209E-01-0.233E-02
CGA:  77    -0.222568294521E+03   -0.89316E-02   -0.89914E-02  5760   0.418E-01 0.226E-03
 gam= 0.289 trial= 0.186  step= 0.339 mean= 0.186
 gam= 0.839 g(H,U,f)=  0.140E-01 0.123E-01 0.873E-02 ort(H,U,f) =-0.502E-02 0.657E-02-0.130E-02
CGA:  78    -0.222575401165E+03   -0.71066E-02   -0.70876E-02  5760   0.351E-01 0.251E-03
 gam= 0.839 trial= 0.194  step= 0.113 mean= 0.194
 gam= 1.005 g(H,U,f)=  0.121E-01 0.121E-01 0.111E-01 ort(H,U,f) = 0.343E-02 0.518E-02-0.851E-02
CGA:  79    -0.222577395606E+03   -0.19944E-02   -0.19926E-02  5760   0.352E-01 0.103E-03
 gam= 1.005 trial= 0.190  step= 0.270 mean= 0.190
 gam= 0.521 g(H,U,f)=  0.856E-02 0.941E-02 0.395E-03 ort(H,U,f) =-0.262E-02 0.237E-02 0.482E-03
CGA:  80    -0.222582181798E+03   -0.47862E-02   -0.47761E-02  5760   0.184E-01 0.235E-03
 gam= 0.521 trial= 0.194  step= 0.296 mean= 0.194
 gam= 1.801 g(H,U,f)=  0.578E-02 0.109E-01 0.164E-01 ort(H,U,f) =-0.598E-03 0.479E-02-0.415E-02
CGA:  81    -0.222584919342E+03   -0.27375E-02   -0.27345E-02  5760   0.331E-01 0.445E-04
 gam= 1.801 trial= 0.199  step= 0.088 mean= 0.199
 gam= 0.303 g(H,U,f)=  0.503E-02 0.444E-02 0.563E-03 ort(H,U,f) =-0.524E-02 0.688E-02-0.162E-02
CGA:  82    -0.222586380336E+03   -0.14610E-02   -0.14562E-02  5760   0.100E-01 0.119E-04
 gam= 0.303 trial= 0.193  step= 0.435 mean= 0.193
 gam= 1.171 g(H,U,f)=  0.442E-02 0.554E-02 0.179E-02 ort(H,U,f) =-0.198E-02 0.181E-02 0.103E-03
CGA:  83    -0.222588556359E+03   -0.21760E-02   -0.21833E-02  5760   0.117E-01-0.712E-04
 gam= 1.171 trial= 0.205  step= 0.147 mean= 0.205
 gam= 1.456 g(H,U,f)=  0.410E-02 0.575E-02 0.725E-02 ort(H,U,f) =-0.205E-03 0.410E-02-0.392E-02
CGA:  84    -0.222589410630E+03   -0.85427E-03   -0.85488E-03  5760   0.171E-01-0.197E-04
 gam= 1.456 trial= 0.202  step= 0.200 mean= 0.202
 gam= 0.000 g(H,U,f)=  0.308E-02 0.302E-02 0.622E-04 ort(H,U,f) =-0.356E-02 0.349E-02-0.162E-03
SDA:  85    -0.222591115118E+03   -0.17045E-02   -0.17044E-02  5760   0.616E-02-0.229E-03
 gam= 0.000 trial= 0.202  step= 0.414 mean= 0.202
 gam= 0.696 g(H,U,f)=  0.128E-02 0.242E-02 0.584E-03 ort(H,U,f) =-0.674E-04 0.277E-03-0.468E-04
CGA:  86    -0.222592410877E+03   -0.12958E-02   -0.12750E-02  5760   0.429E-02 0.163E-03
 gam= 0.696 trial= 0.213  step= 0.225 mean= 0.213
 gam= 2.658 g(H,U,f)=  0.131E-02 0.402E-02 0.606E-02 ort(H,U,f) = 0.340E-03 0.142E-02-0.172E-02
CGA:  87    -0.222592906665E+03   -0.49579E-03   -0.49547E-03  5760   0.114E-01 0.361E-04
 gam= 2.658 trial= 0.213  step= 0.224 mean= 0.213
 gam= 0.267 g(H,U,f)=  0.168E-02 0.135E-02 0.159E-04 ort(H,U,f) =-0.383E-02 0.395E-02-0.660E-04
CGA:  88    -0.222594194539E+03   -0.12879E-02   -0.12876E-02  5760   0.304E-02 0.458E-04
 gam= 0.267 trial= 0.214  step= 0.794 mean= 0.214
 gam= 1.313 g(H,U,f)=  0.168E-02 0.175E-02 0.561E-03 ort(H,U,f) =-0.796E-03 0.865E-03-0.264E-04
CGA:  89    -0.222595418463E+03   -0.12239E-02   -0.12119E-02  5760   0.399E-02 0.427E-04
 gam= 1.313 trial= 0.243  step= 0.217 mean= 0.243
 gam= 2.379 g(H,U,f)=  0.164E-02 0.315E-02 0.470E-02 ort(H,U,f) =-0.566E-04 0.158E-02-0.152E-02
CGA:  90    -0.222595856802E+03   -0.43834E-03   -0.43842E-03  5760   0.950E-02-0.481E-06
 gam= 2.379 trial= 0.242  step= 0.192 mean= 0.242
 gam= 0.369 g(H,U,f)=  0.181E-02 0.167E-02 0.231E-04 ort(H,U,f) =-0.221E-02 0.228E-02-0.792E-04
CGA:  91    -0.222596768177E+03   -0.91137E-03   -0.91088E-03  5760   0.351E-02-0.170E-04
 gam= 0.369 trial= 0.239  step= 0.777 mean= 0.239
 gam= 2.015 g(H,U,f)=  0.207E-02 0.257E-02 0.244E-02 ort(H,U,f) =-0.858E-03 0.920E-03-0.859E-04
CGA:  92    -0.222598123022E+03   -0.13548E-02   -0.13610E-02  5760   0.707E-02-0.244E-04
 gam= 2.015 trial= 0.266  step= 0.113 mean= 0.266
 gam= 1.018 g(H,U,f)=  0.215E-02 0.306E-02 0.199E-02 ort(H,U,f) =-0.409E-03 0.241E-02-0.202E-02
CGA:  93    -0.222598517714E+03   -0.39469E-03   -0.39591E-03  5760   0.720E-02-0.228E-04
 gam= 1.018 trial= 0.258  step= 0.494 mean= 0.258
 gam= 0.762 g(H,U,f)=  0.267E-02 0.281E-02 0.103E-04 ort(H,U,f) =-0.200E-02 0.195E-02-0.360E-05
CGA:  94    -0.222600283144E+03   -0.17654E-02   -0.17717E-02  5760   0.549E-02-0.515E-04
 gam= 0.762 trial= 0.270  step= 0.589 mean= 0.270
 gam= 1.584 g(H,U,f)=  0.282E-02 0.312E-02 0.276E-02 ort(H,U,f) =-0.158E-02 0.158E-02-0.400E-04
CGA:  95    -0.222601880999E+03   -0.15979E-02   -0.16047E-02  5760   0.869E-02-0.433E-04
 gam= 1.584 trial= 0.286  step= 0.118 mean= 0.286
 gam= 1.031 g(H,U,f)=  0.261E-02 0.349E-02 0.286E-02 ort(H,U,f) =-0.719E-03 0.335E-02-0.268E-02
CGA:  96    -0.222602387775E+03   -0.50678E-03   -0.51000E-03  5760   0.896E-02-0.471E-04
 gam= 1.031 trial= 0.278  step= 0.374 mean= 0.278
 gam= 0.540 g(H,U,f)=  0.264E-02 0.219E-02 0.165E-04 ort(H,U,f) =-0.222E-02 0.222E-02-0.321E-04
CGA:  97    -0.222604051540E+03   -0.16638E-02   -0.16660E-02  5760   0.484E-02-0.384E-04
 gam= 0.540 trial= 0.283  step= 0.712 mean= 0.283
 gam= 0.956 g(H,U,f)=  0.236E-02 0.218E-02 0.951E-04 ort(H,U,f) =-0.753E-03 0.750E-03 0.120E-04
CGA:  98    -0.222605769573E+03   -0.17180E-02   -0.17160E-02  5760   0.463E-02 0.859E-05
 gam= 0.956 trial= 0.304  step= 0.476 mean= 0.304
 gam= 1.268 g(H,U,f)=  0.146E-02 0.182E-02 0.259E-02 ort(H,U,f) =-0.315E-03 0.916E-03-0.559E-03
CGA:  99    -0.222606878668E+03   -0.11091E-02   -0.11051E-02  5760   0.587E-02 0.423E-04
 gam= 1.268 trial= 0.313  step= 0.100 mean= 0.313
 gam= 0.679 g(H,U,f)=  0.119E-02 0.180E-02 0.999E-03 ort(H,U,f) = 0.110E-03 0.110E-02-0.120E-02
CGA: 100    -0.222607172922E+03   -0.29425E-03   -0.29524E-03  5760   0.399E-02 0.494E-05
 gam= 0.679 trial= 0.302  step= 0.407 mean= 0.302
 gam= 0.551 g(H,U,f)=  0.106E-02 0.112E-02 0.194E-04 ort(H,U,f) =-0.904E-03 0.951E-03-0.225E-04
CGA: 101    -0.222607987329E+03   -0.81441E-03   -0.81313E-03  5760   0.220E-02 0.250E-04
 gam= 0.551 trial= 0.307  step= 0.792 mean= 0.307
 gam= 1.277 g(H,U,f)=  0.130E-02 0.137E-02 0.134E-03 ort(H,U,f) =-0.595E-03 0.612E-03-0.115E-04
CGA: 102    -0.222608863820E+03   -0.87649E-03   -0.87500E-03  5760   0.280E-02 0.569E-05
 gam= 1.277 trial= 0.331  step= 0.405 mean= 0.331
 gam= 2.543 g(H,U,f)=  0.116E-02 0.197E-02 0.400E-02 ort(H,U,f) =-0.357E-03 0.965E-03-0.609E-03
CGA: 103    -0.222609432427E+03   -0.56861E-03   -0.56867E-03  5760   0.713E-02-0.121E-05
 gam= 2.543 trial= 0.335  step= 0.100 mean= 0.335
 gam= 0.316 g(H,U,f)=  0.123E-02 0.821E-03 0.205E-03 ort(H,U,f) =-0.133E-02 0.187E-02-0.553E-03
CGA: 104    -0.222609787234E+03   -0.35481E-03   -0.35569E-03  5760   0.226E-02-0.162E-04
 gam= 0.316 trial= 0.323  step= 0.659 mean= 0.323
 gam= 0.792 g(H,U,f)=  0.977E-03 0.791E-03 0.186E-04 ort(H,U,f) =-0.343E-03 0.337E-03-0.841E-05
CGA: 105    -0.222610526275E+03   -0.73904E-03   -0.74153E-03  5760   0.179E-02-0.147E-04
 gam= 0.792 trial= 0.340  step= 0.513 mean= 0.340
 gam= 0.597 g(H,U,f)=  0.536E-03 0.495E-03 0.347E-04 ort(H,U,f) =-0.228E-03 0.241E-03-0.159E-04
CGA: 106    -0.222610981254E+03   -0.45498E-03   -0.45521E-03  5760   0.107E-02-0.260E-05
 gam= 0.597 trial= 0.349  step= 0.435 mean= 0.349
 gam= 2.981 g(H,U,f)=  0.405E-03 0.103E-02 0.175E-02 ort(H,U,f) =-0.687E-05 0.174E-03-0.173E-03
CGA: 107    -0.222611212286E+03   -0.23103E-03   -0.23128E-03  5760   0.318E-02-0.540E-05
 gam= 2.981 trial= 0.353  step= 0.098 mean= 0.353
 gam= 0.228 g(H,U,f)=  0.355E-03 0.316E-03 0.546E-04 ort(H,U,f) =-0.472E-03 0.687E-03-0.215E-03
CGA: 108    -0.222611368321E+03   -0.15603E-03   -0.15545E-03  5760   0.725E-03 0.977E-06
 gam= 0.228 trial= 0.340  step= 0.602 mean= 0.340
 gam= 0.812 g(H,U,f)=  0.282E-03 0.306E-03 0.206E-05 ort(H,U,f) =-0.146E-03 0.143E-03 0.188E-05
CGA: 109    -0.222611586697E+03   -0.21838E-03   -0.21856E-03  5760   0.589E-03-0.158E-05
 gam= 0.812 trial= 0.353  step= 0.505 mean= 0.353
 gam= 1.585 g(H,U,f)=  0.210E-03 0.329E-03 0.395E-03 ort(H,U,f) =-0.868E-04 0.108E-03-0.192E-04
CGA: 110    -0.222611735329E+03   -0.14863E-03   -0.14845E-03  5760   0.934E-03 0.221E-05
 gam= 1.585 trial= 0.361  step= 0.097 mean= 0.361
 gam= 0.609 g(H,U,f)=  0.217E-03 0.225E-03 0.127E-03 ort(H,U,f) =-0.365E-04 0.247E-03-0.207E-03
CGA: 111    -0.222611781044E+03   -0.45716E-04   -0.45631E-04  5760   0.568E-03 0.396E-05
 gam= 0.609 trial= 0.348  step= 0.450 mean= 0.348
 gam= 0.625 g(H,U,f)=  0.160E-03 0.193E-03 0.154E-05 ort(H,U,f) =-0.943E-04 0.952E-04 0.698E-06
CGA: 112    -0.222611909502E+03   -0.12846E-03   -0.12838E-03  5760   0.355E-03 0.167E-05
 gam= 0.625 trial= 0.353  step= 0.532 mean= 0.353
 gam= 1.025 g(H,U,f)=  0.135E-03 0.178E-03 0.511E-04 ort(H,U,f) =-0.627E-04 0.692E-04 0.891E-06
CGA: 113    -0.222612004821E+03   -0.95319E-04   -0.94653E-04  5760   0.364E-03 0.738E-05
 gam= 1.025 trial= 0.362  step= 0.213 mean= 0.362
 gam= 2.471 g(H,U,f)=  0.155E-03 0.302E-03 0.443E-03 ort(H,U,f) = 0.100E-04 0.150E-03-0.157E-03
CGA: 114    -0.222612044247E+03   -0.39425E-04   -0.39535E-04  5760   0.899E-03 0.263E-05
 gam= 2.471 trial= 0.354  step= 0.271 mean= 0.354
 gam= 0.451 g(H,U,f)=  0.213E-03 0.190E-03 0.261E-05 ort(H,U,f) =-0.331E-03 0.337E-03-0.133E-05
CGA: 115    -0.222612166739E+03   -0.12249E-03   -0.12279E-03  5760   0.405E-03 0.526E-05
 gam= 0.451 trial= 0.350  step= 0.704 mean= 0.350
 gam= 0.000 g(H,U,f)=  0.254E-03 0.367E-03 0.417E-03 ort(H,U,f) =-0.134E-03 0.128E-03 0.306E-05
SDA: 116    -0.222612309727E+03   -0.14299E-03   -0.14338E-03  5760   0.104E-02-0.230E-05
 gam= 0.000 trial= 0.368  step= 0.077 mean= 0.368
 gam= 0.427 g(H,U,f)=  0.169E-03 0.169E-03 0.105E-03 ort(H,U,f) = 0.164E-03 0.476E-04-0.210E-03
CGA: 117    -0.222612349513E+03   -0.39786E-04   -0.39821E-04  5760   0.443E-03 0.216E-05
 gam= 0.427 trial= 0.353  step= 0.353 mean= 0.353
 gam= 0.596 g(H,U,f)=  0.107E-03 0.155E-03 0.196E-05 ort(H,U,f) =-0.332E-05 0.646E-05-0.115E-05
CGA: 118    -0.222612427879E+03   -0.78366E-04   -0.78366E-04  5760   0.264E-03 0.200E-05
 gam= 0.596 trial= 0.353  step= 0.654 mean= 0.353
 gam= 0.790 g(H,U,f)=  0.104E-03 0.988E-04 0.570E-05 ort(H,U,f) =-0.804E-04 0.734E-04 0.972E-06
CGA: 119    -0.222612513712E+03   -0.85833E-04   -0.86750E-04  5760   0.209E-03-0.610E-05
 gam= 0.790 trial= 0.368  step= 0.396 mean= 0.368
 gam= 2.952 g(H,U,f)=  0.876E-04 0.194E-03 0.335E-03 ort(H,U,f) =-0.225E-04 0.671E-04-0.476E-04
CGA: 120    -0.222612554041E+03   -0.40329E-04   -0.40369E-04  5760   0.616E-03-0.298E-05
 gam= 2.952 trial= 0.370  step= 0.110 mean= 0.370
 gam= 0.347 g(H,U,f)=  0.976E-04 0.100E-03 0.159E-04 ort(H,U,f) =-0.135E-03 0.174E-03-0.412E-04
CGA: 121    -0.222612587663E+03   -0.33623E-04   -0.33361E-04  5760   0.214E-03-0.232E-05
 gam= 0.347 trial= 0.357  step= 0.644 mean= 0.357
 gam= 0.830 g(H,U,f)=  0.989E-04 0.774E-04 0.129E-05 ort(H,U,f) =-0.569E-04 0.592E-04-0.606E-06
CGA: 122    -0.222612656553E+03   -0.68890E-04   -0.68631E-04  5760   0.178E-03 0.176E-05
 gam= 0.830 trial= 0.371  step= 0.738 mean= 0.371
 gam= 2.799 g(H,U,f)=  0.116E-03 0.189E-03 0.192E-03 ort(H,U,f) =-0.350E-04 0.475E-04-0.163E-04
CGA: 123    -0.222612721915E+03   -0.65361E-04   -0.66067E-04  5760   0.497E-03-0.385E-05
 gam= 2.799 trial= 0.389  step= 0.105 mean= 0.389
 gam= 0.721 g(H,U,f)=  0.131E-03 0.148E-03 0.793E-04 ort(H,U,f) =-0.646E-04 0.155E-03-0.919E-04
CGA: 124    -0.222612747593E+03   -0.25678E-04   -0.25578E-04  5760   0.358E-03-0.160E-05
 gam= 0.721 trial= 0.375  step= 0.434 mean= 0.375
 gam= 0.684 g(H,U,f)=  0.123E-03 0.121E-03 0.123E-05 ort(H,U,f) =-0.943E-04 0.964E-04-0.237E-06
CGA: 125    -0.222612825177E+03   -0.77585E-04   -0.77527E-04  5760   0.245E-03 0.189E-05
 gam= 0.684 trial= 0.378  step= 0.554 mean= 0.378
 gam= 3.063 g(H,U,f)=  0.111E-03 0.255E-03 0.384E-03 ort(H,U,f) =-0.413E-04 0.756E-04-0.317E-04
CGA: 126    -0.222612893585E+03   -0.68407E-04   -0.68178E-04  5760   0.750E-03 0.259E-05
 gam= 3.063 trial= 0.387  step= 0.092 mean= 0.387
 gam= 0.345 g(H,U,f)=  0.124E-03 0.103E-03 0.315E-04 ort(H,U,f) =-0.172E-03 0.251E-03-0.796E-04
CGA: 127    -0.222612928350E+03   -0.34765E-04   -0.34904E-04  5760   0.258E-03-0.377E-06
 gam= 0.345 trial= 0.372  step= 0.660 mean= 0.372
 gam= 1.001 g(H,U,f)=  0.132E-03 0.125E-03 0.186E-05 ort(H,U,f) =-0.614E-04 0.595E-04 0.113E-06
CGA: 128    -0.222613013291E+03   -0.84941E-04   -0.85204E-04  5760   0.258E-03-0.183E-05
 gam= 1.001 trial= 0.387  step= 0.513 mean= 0.387
 gam= 1.533 g(H,U,f)=  0.952E-04 0.135E-03 0.167E-03 ort(H,U,f) =-0.382E-04 0.623E-04-0.227E-04
CGA: 129    -0.222613079224E+03   -0.65933E-04   -0.65844E-04  5760   0.396E-03 0.141E-05
 gam= 1.533 trial= 0.393  step= 0.095 mean= 0.393
 gam= 0.580 g(H,U,f)=  0.982E-04 0.829E-04 0.486E-04 ort(H,U,f) =-0.178E-04 0.881E-04-0.704E-04
CGA: 130    -0.222613098043E+03   -0.18819E-04   -0.18855E-04  5760   0.230E-03-0.150E-06
 gam= 0.580 trial= 0.378  step= 0.484 mean= 0.378
 gam= 0.739 g(H,U,f)=  0.806E-04 0.889E-04 0.252E-06 ort(H,U,f) =-0.263E-04 0.264E-04-0.675E-06
CGA: 131    -0.222613153608E+03   -0.55565E-04   -0.55599E-04  5760   0.170E-03-0.633E-06
 gam= 0.739 trial= 0.383  step= 0.586 mean= 0.383
 gam= 0.893 g(H,U,f)=  0.526E-04 0.684E-04 0.306E-04 ort(H,U,f) =-0.368E-04 0.353E-04-0.262E-05
CGA: 132    -0.222613202819E+03   -0.49211E-04   -0.49629E-04  5760   0.152E-03-0.413E-05
 gam= 0.893 trial= 0.393  step= 0.137 mean= 0.393
 gam= 1.331 g(H,U,f)=  0.512E-04 0.645E-04 0.860E-04 ort(H,U,f) =-0.222E-07 0.468E-04-0.471E-04
CGA: 133    -0.222613212968E+03   -0.10149E-04   -0.10114E-04  5760   0.202E-03-0.331E-06
 gam= 1.331 trial= 0.381  step= 0.354 mean= 0.381
 gam= 0.593 g(H,U,f)=  0.564E-04 0.615E-04 0.168E-05 ort(H,U,f) =-0.392E-04 0.430E-04-0.273E-05
CGA: 134    -0.222613248541E+03   -0.35573E-04   -0.35587E-04  5760   0.120E-03 0.107E-05
 gam= 0.593 trial= 0.379  step= 0.619 mean= 0.379
 gam= 0.659 g(H,U,f)=  0.452E-04 0.330E-04 0.673E-06 ort(H,U,f) =-0.292E-04 0.293E-04 0.430E-07
CGA: 135    -0.222613285797E+03   -0.37256E-04   -0.37241E-04  5760   0.789E-04 0.122E-06
 gam= 0.659 trial= 0.391  step= 0.649 mean= 0.391
 gam= 1.888 g(H,U,f)=  0.364E-04 0.492E-04 0.633E-04 ort(H,U,f) =-0.951E-05 0.135E-04-0.529E-05
CGA: 136    -0.222613311265E+03   -0.25468E-04   -0.25640E-04  5760   0.149E-03-0.133E-05
 gam= 1.888 trial= 0.404  step= 0.098 mean= 0.404
 gam= 0.637 g(H,U,f)=  0.368E-04 0.378E-04 0.202E-04 ort(H,U,f) =-0.329E-05 0.337E-04-0.303E-04
CGA: 137    -0.222613318386E+03   -0.71214E-05   -0.71487E-05  5760   0.948E-04 0.190E-06
 gam= 0.637 trial= 0.389  step= 0.448 mean= 0.389
 gam= 0.390 g(H,U,f)=  0.187E-04 0.179E-04 0.319E-06 ort(H,U,f) =-0.146E-04 0.171E-04 0.102E-06
CGA: 138    -0.222613339739E+03   -0.21353E-04   -0.21274E-04  5760   0.370E-04 0.264E-05
 gam= 0.390 trial= 0.392  step= 0.512 mean= 0.392
 gam= 3.114 g(H,U,f)=  0.164E-04 0.390E-04 0.598E-04 ort(H,U,f) =-0.414E-06 0.563E-05-0.484E-05
CGA: 139    -0.222613349494E+03   -0.97549E-05   -0.97321E-05  5760   0.115E-03 0.377E-06
 gam= 3.114 trial= 0.398  step= 0.096 mean= 0.398
 gam= 0.346 g(H,U,f)=  0.159E-04 0.189E-04 0.500E-05 ort(H,U,f) =-0.890E-05 0.222E-04-0.130E-04
CGA: 140    -0.222613355057E+03   -0.55630E-05   -0.56040E-05  5760   0.398E-04 0.290E-06
 gam= 0.346 trial= 0.383  step= 0.529 mean= 0.383
 gam= 0.551 g(H,U,f)=  0.106E-04 0.102E-04 0.112E-05 ort(H,U,f) =-0.769E-05 0.808E-05 0.332E-06
CGA: 141    -0.222613365672E+03   -0.10614E-04   -0.10562E-04  5760   0.219E-04 0.715E-06
 gam= 0.551 trial= 0.390  step= 0.314 mean= 0.390
 gam= 2.581 g(H,U,f)=  0.851E-05 0.160E-04 0.321E-04 ort(H,U,f) = 0.967E-06 0.624E-05-0.652E-05
CGA: 142    -0.222613369148E+03   -0.34760E-05   -0.35019E-05  5760   0.566E-04 0.680E-06
 gam= 2.581 trial= 0.386  step= 0.121 mean= 0.386
 gam= 0.289 g(H,U,f)=  0.794E-05 0.755E-05 0.879E-06 ort(H,U,f) =-0.622E-05 0.938E-05-0.255E-05
CGA: 143    -0.222613372588E+03   -0.34405E-05   -0.35236E-05  5760   0.164E-04 0.611E-06
 gam= 0.289 trial= 0.373  step= 0.674 mean= 0.373
 gam= 0.883 g(H,U,f)=  0.679E-05 0.710E-05 0.565E-06 ort(H,U,f) =-0.356E-05 0.190E-05-0.768E-07
CGA: 144    -0.222613377901E+03   -0.53131E-05   -0.55746E-05  5760   0.144E-04-0.174E-05
 gam= 0.883 trial= 0.388  step= 0.400 mean= 0.388
 gam= 1.858 g(H,U,f)=  0.529E-05 0.767E-05 0.139E-04 ort(H,U,f) =-0.162E-05 0.322E-05-0.221E-05
CGA: 145    -0.222613380481E+03   -0.25795E-05   -0.25831E-05  5760   0.268E-04-0.613E-06
 gam= 1.858 trial= 0.389  step= 0.097 mean= 0.389
 gam= 0.435 g(H,U,f)=  0.463E-05 0.569E-05 0.135E-05 ort(H,U,f) =-0.180E-05 0.472E-05-0.310E-05
CGA: 146    -0.222613381749E+03   -0.12681E-05   -0.12417E-05  5760   0.117E-04-0.178E-06
 gam= 0.435 trial= 0.374  step= 0.591 mean= 0.374
 gam= 0.000 g(H,U,f)=  0.397E-05 0.532E-05 0.369E-07 ort(H,U,f) =-0.255E-05 0.291E-05 0.916E-08
SDA: 147    -0.222613385213E+03   -0.34646E-05   -0.34253E-05  5760   0.933E-05 0.363E-06
 gam= 0.000 trial= 0.385  step= 0.443 mean= 0.385
 gam= 1.197 g(H,U,f)=  0.198E-05 0.606E-05 0.312E-05 ort(H,U,f) =-0.188E-06-0.523E-06-0.226E-06
CGA: 148    -0.222613387253E+03   -0.20393E-05   -0.20666E-05  5760   0.112E-04-0.937E-06
 gam= 1.197 trial= 0.388  step= 0.122 mean= 0.388
 gam= 1.049 g(H,U,f)=  0.225E-05 0.567E-05 0.379E-05 ort(H,U,f) = 0.245E-06 0.281E-05-0.312E-05
CGA: 149    -0.222613387874E+03   -0.62082E-06   -0.61237E-06  5760   0.117E-04-0.616E-07
 gam= 1.049 trial= 0.374  step= 0.408 mean= 0.374
 gam= 0.635 g(H,U,f)=  0.296E-05 0.446E-05 0.180E-07 ort(H,U,f) =-0.277E-05 0.336E-05 0.375E-07
CGA: 150    -0.222613390259E+03   -0.23853E-05   -0.23749E-05  5760   0.744E-05 0.626E-06
 gam= 0.635 trial= 0.376  step= 0.500 mean= 0.376
 gam= 2.141 g(H,U,f)=  0.252E-05 0.583E-05 0.757E-05 ort(H,U,f) =-0.116E-05 0.248E-05-0.664E-06
CGA: 151    -0.222613392258E+03   -0.19994E-05   -0.19587E-05  5760   0.159E-04 0.659E-06
 gam= 2.141 trial= 0.382  step= 0.104 mean= 0.382
 gam= 0.606 g(H,U,f)=  0.295E-05 0.414E-05 0.255E-05 ort(H,U,f) =-0.240E-05 0.615E-05-0.361E-05
CGA: 152    -0.222613393138E+03   -0.88019E-06   -0.89937E-06  5760   0.964E-05 0.140E-06
 gam= 0.606 trial= 0.368  step= 0.619 mean= 0.368
 gam= 1.133 g(H,U,f)=  0.442E-05 0.520E-05 0.130E-05 ort(H,U,f) =-0.277E-05 0.209E-05-0.265E-06
CGA: 153    -0.222613396030E+03   -0.28912E-05   -0.30097E-05  5760   0.109E-04-0.946E-06
 gam= 1.133 trial= 0.381  step= 0.315 mean= 0.381
 gam= 2.730 g(H,U,f)=  0.414E-05 0.995E-05 0.157E-04 ort(H,U,f) =-0.404E-06 0.394E-05-0.339E-05
CGA: 154    -0.222613397579E+03   -0.15494E-05   -0.15541E-05  5760   0.298E-04 0.145E-06
 gam= 2.730 trial= 0.378  step= 0.160 mean= 0.378
 gam= 0.348 g(H,U,f)=  0.351E-05 0.499E-05 0.189E-05 ort(H,U,f) =-0.357E-05 0.621E-05-0.231E-05
CGA: 155    -0.222613399954E+03   -0.23747E-05   -0.24111E-05  5760   0.104E-04 0.330E-06
 gam= 0.348 trial= 0.367  step= 0.345 mean= 0.367
 gam= 2.422 g(H,U,f)=  0.312E-05 0.761E-05 0.144E-04 ort(H,U,f) =-0.371E-06 0.350E-05-0.306E-05
CGA: 156    -0.222613401766E+03   -0.18122E-05   -0.18129E-05  5760   0.252E-04 0.708E-07
 gam= 2.422 trial= 0.366  step= 0.141 mean= 0.366
 gam= 0.435 g(H,U,f)=  0.357E-05 0.560E-05 0.178E-05 ort(H,U,f) =-0.386E-05 0.610E-05-0.246E-05
CGA: 157    -0.222613403579E+03   -0.18132E-05   -0.17893E-05  5760   0.109E-04-0.221E-06
 gam= 0.435 trial= 0.354  step= 0.511 mean= 0.354
 gam= 3.557 g(H,U,f)=  0.478E-05 0.122E-04 0.220E-04 ort(H,U,f) =-0.167E-05 0.302E-05-0.241E-05
CGA: 158    -0.222613406270E+03   -0.26907E-05   -0.27742E-05  5760   0.389E-04-0.106E-05
 gam= 3.557 trial= 0.362  step= 0.117 mean= 0.362
 gam= 0.321 g(H,U,f)=  0.586E-05 0.551E-05 0.113E-05 ort(H,U,f) =-0.893E-05 0.111E-04-0.291E-05
CGA: 159    -0.222613408416E+03   -0.21461E-05   -0.20528E-05  5760   0.125E-04-0.783E-06
 gam= 0.321 trial= 0.350  step= 0.462 mean= 0.350
 gam= 0.589 g(H,U,f)=  0.381E-05 0.340E-05 0.162E-06 ort(H,U,f) =-0.163E-05 0.219E-05-0.871E-07
CGA: 160    -0.222613411269E+03   -0.28531E-05   -0.28274E-05  5760   0.737E-05 0.465E-06
 gam= 0.589 trial= 0.356  step= 0.535 mean= 0.356
 gam= 1.960 g(H,U,f)=  0.272E-05 0.497E-05 0.676E-05 ort(H,U,f) =-0.429E-06 0.149E-05-0.791E-06
CGA: 161    -0.222613413337E+03   -0.20679E-05   -0.20437E-05  5760   0.144E-04 0.272E-06
 gam= 1.960 trial= 0.365  step= 0.102 mean= 0.365
 gam= 0.586 g(H,U,f)=  0.246E-05 0.400E-05 0.201E-05 ort(H,U,f) =-0.488E-06 0.326E-05-0.274E-05
CGA: 162    -0.222613414099E+03   -0.76250E-06   -0.76605E-06  5760   0.847E-05 0.300E-07
 gam= 0.586 trial= 0.351  step= 0.440 mean= 0.351
 gam= 0.676 g(H,U,f)=  0.263E-05 0.269E-05 0.407E-06 ort(H,U,f) =-0.160E-05 0.133E-05-0.179E-06
CGA: 163    -0.222613415946E+03   -0.18471E-05   -0.18672E-05  5760   0.573E-05-0.452E-06
 gam= 0.676 trial= 0.356  step= 0.374 mean= 0.356
 gam= 2.730 g(H,U,f)=  0.218E-05 0.473E-05 0.872E-05 ort(H,U,f) =-0.356E-07 0.152E-05-0.139E-05
CGA: 164    -0.222613416961E+03   -0.10147E-05   -0.10139E-05  5760   0.156E-04 0.950E-07
 gam= 2.730 trial= 0.357  step= 0.122 mean= 0.357
 gam= 0.307 g(H,U,f)=  0.185E-05 0.221E-05 0.737E-06 ort(H,U,f) =-0.189E-05 0.343E-05-0.142E-05
CGA: 165    -0.222613417916E+03   -0.95463E-06   -0.96993E-06  5760   0.479E-05 0.127E-06
 gam= 0.307 trial= 0.345  step= 0.402 mean= 0.345
 final diagonalization
   1 F= -.23180397E+03 E0= -.23179884E+03  d E =-.102586E-01  mag=     6.0000
