 vasp.5.4.4.18Apr17-6-g9f103f2a35 (build Nov 22 2021 14:44:17) complex          
  
 executed on             LinuxIFC date 2022.08.06  11:36:50
 running on   64 total cores
 distrk:  each k-point on   64 cores,    1 groups
 distr:  one band on NCORES_PER_BAND=   4 cores,   16 groups


--------------------------------------------------------------------------------------------------------


 INCAR:
 POTCAR:    PAW_PBE Li 17Jan2003                  
 POTCAR:    PAW_PBE Co 02Aug2007                  
 POTCAR:    PAW_PBE O 08Apr2002                   
 POTCAR:    PAW_PBE Li 17Jan2003                  
   VRHFIN =Li: s1p0                                                             
   LEXCH  = PE                                                                  
   EATOM  =     5.3001 eV,    0.3895 Ry                                         
                                                                                
   TITEL  = PAW_PBE Li 17Jan2003                                                
   LULTRA =        F    use ultrasoft PP ?                                      
   IUNSCR =        1    unscreen: 0-lin 1-nonlin 2-no                           
   RPACOR =    1.500    partial core radius                                     
   POMASS =    7.010; ZVAL   =    1.000    mass and valenz                      
   RCORE  =    2.050    outmost cutoff radius                                   
   RWIGS  =    2.600; RWIGS  =    1.376    wigner-seitz radius (au A)           
   ENMAX  =  140.000; ENMIN  =  100.000 eV                                      
   ICORE  =        2    local potential                                         
   LCOR   =        T    correct aug charges                                     
   LPAW   =        T    paw PP                                                  
   EAUG   =  331.638                                                            
   DEXC   =    0.000                                                            
   RMAX   =    2.098    core radius for proj-oper                               
   RAUG   =    1.300    factor for augmentation sphere                          
   RDEP   =    2.094    radius for radial grids                                 
   RDEPT  =    1.810    core radius for aug-charge                              
                                                                                
   Atomic configuration                                                         
    4 entries                                                                   
     n  l   j            E        occ.                                          
     1  0  0.50       -51.8549   2.0000                                         
     2  0  0.50        -2.8742   1.0000                                         
     2  1  0.50        -1.3606   0.0000                                         
     3  2  1.50        -1.3606   0.0000                                         
   Description                                                                  
     l       E           TYP  RCUT    TYP  RCUT                                 
     0     -2.8742052     23  2.050                                             
     0     27.2116520     23  2.050                                             
     1     -1.3605826     23  2.050                                             
     2     -1.3605826     23  2.050                                             
  local pseudopotential read in
  partial core-charges read in
  partial kinetic energy density read in
  atomic valenz-charges read in
  non local Contribution for L=           0  read in
    real space projection operators read in
  non local Contribution for L=           0  read in
    real space projection operators read in
  non local Contribution for L=           1  read in
    real space projection operators read in
    PAW grid and wavefunctions read in
 
   number of l-projection  operators is LMAX  =           3
   number of lm-projection operators is LMMAX =           5
 
 POTCAR:    PAW_PBE Co 02Aug2007                  
   VRHFIN =Co: d8 s1                                                            
   LEXCH  = PE                                                                  
   EATOM  =   813.3670 eV,   59.7808 Ry                                         
                                                                                
   TITEL  = PAW_PBE Co 02Aug2007                                                
   LULTRA =        F    use ultrasoft PP ?                                      
   IUNSCR =        1    unscreen: 0-lin 1-nonlin 2-no                           
   RPACOR =    2.000    partial core radius                                     
   POMASS =   58.933; ZVAL   =    9.000    mass and valenz                      
   RCORE  =    2.300    outmost cutoff radius                                   
   RWIGS  =    2.460; RWIGS  =    1.302    wigner-seitz radius (au A)           
   ENMAX  =  267.968; ENMIN  =  200.976 eV                                      
   RCLOC  =    1.203    cutoff for local pot                                    
   LCOR   =        T    correct aug charges                                     
   LPAW   =        T    paw PP                                                  
   EAUG   =  477.818                                                            
   DEXC   =    0.000                                                            
   RMAX   =    2.360    core radius for proj-oper                               
   RAUG   =    1.300    factor for augmentation sphere                          
   RDEP   =    2.393    radius for radial grids                                 
   RDEPT  =    1.864    core radius for aug-charge                              
                                                                                
   Atomic configuration                                                         
    9 entries                                                                   
     n  l   j            E        occ.                                          
     1  0  0.50     -7587.6674   2.0000                                         
     2  0  0.50      -893.6084   2.0000                                         
     2  1  1.50      -764.5805   6.0000                                         
     3  0  0.50       -97.5973   2.0000                                         
     3  1  1.50       -60.9648   6.0000                                         
     3  2  2.50        -4.2382   8.0000                                         
     4  0  0.50        -4.3746   1.0000                                         
     4  1  1.50        -4.0817   0.0000                                         
     4  3  2.50        -1.3606   0.0000                                         
   Description                                                                  
     l       E           TYP  RCUT    TYP  RCUT                                 
     2     -4.2382362     23  2.300                                             
     2     -5.5988188     23  2.300                                             
     0     -4.3745797     23  2.300                                             
     0      5.7660125     23  2.300                                             
     1     -2.7211652     23  2.300                                             
     1     16.9860234     23  2.300                                             
  local pseudopotential read in
  partial core-charges read in
  partial kinetic energy density read in
  atomic valenz-charges read in
  non local Contribution for L=           2  read in
    real space projection operators read in
  non local Contribution for L=           2  read in
    real space projection operators read in
  non local Contribution for L=           0  read in
    real space projection operators read in
  non local Contribution for L=           0  read in
    real space projection operators read in
  non local Contribution for L=           1  read in
    real space projection operators read in
  non local Contribution for L=           1  read in
    real space projection operators read in
    PAW grid and wavefunctions read in
 
   number of l-projection  operators is LMAX  =           6
   number of lm-projection operators is LMMAX =          18
 
 POTCAR:    PAW_PBE O 08Apr2002                   
   VRHFIN =O: s2p4                                                              
   LEXCH  = PE                                                                  
   EATOM  =   432.3788 eV,   31.7789 Ry                                         
                                                                                
   TITEL  = PAW_PBE O 08Apr2002                                                 
   LULTRA =        F    use ultrasoft PP ?                                      
   IUNSCR =        1    unscreen: 0-lin 1-nonlin 2-no                           
   RPACOR =    1.200    partial core radius                                     
   POMASS =   16.000; ZVAL   =    6.000    mass and valenz                      
   RCORE  =    1.520    outmost cutoff radius                                   
   RWIGS  =    1.550; RWIGS  =    0.820    wigner-seitz radius (au A)           
   ENMAX  =  400.000; ENMIN  =  300.000 eV                                      
   ICORE  =        2    local potential                                         
   LCOR   =        T    correct aug charges                                     
   LPAW   =        T    paw PP                                                  
   EAUG   =  605.392                                                            
   DEXC   =    0.000                                                            
   RMAX   =    1.553    core radius for proj-oper                               
   RAUG   =    1.300    factor for augmentation sphere                          
   RDEP   =    1.550    radius for radial grids                                 
   RDEPT  =    1.329    core radius for aug-charge                              
                                                                                
   Atomic configuration                                                         
    4 entries                                                                   
     n  l   j            E        occ.                                          
     1  0  0.50      -514.6923   2.0000                                         
     2  0  0.50       -23.9615   2.0000                                         
     2  1  0.50        -9.0305   4.0000                                         
     3  2  1.50        -9.5241   0.0000                                         
   Description                                                                  
     l       E           TYP  RCUT    TYP  RCUT                                 
     0    -23.9615318     23  1.200                                             
     0     -9.5240782     23  1.200                                             
     1     -9.0304911     23  1.520                                             
     1      8.1634956     23  1.520                                             
     2     -9.5240782      7  1.500                                             
  local pseudopotential read in
  partial core-charges read in
  partial kinetic energy density read in
  kinetic energy density of atom read in
  atomic valenz-charges read in
  non local Contribution for L=           0  read in
    real space projection operators read in
  non local Contribution for L=           0  read in
    real space projection operators read in
  non local Contribution for L=           1  read in
    real space projection operators read in
  non local Contribution for L=           1  read in
    real space projection operators read in
    PAW grid and wavefunctions read in
 
   number of l-projection  operators is LMAX  =           4
   number of lm-projection operators is LMMAX =           8
 
 Optimization of the real space projectors (new method)

 maximal supplied QI-value         = 18.33
 optimisation between [QCUT,QGAM] = [ 12.46, 24.93] = [ 43.51,174.03] Ry 
 Optimized for a Real-space Cutoff    1.13 Angstroem

   l    n(q)    QCUT    max X(q) W(low)/X(q) W(high)/X(q)  e(spline) 
   0      8    12.465    33.825    0.12E-03    0.29E-03    0.99E-07
   0      8    12.465     8.944    0.86E-04    0.22E-03    0.72E-07
   1      8    12.465     4.214    0.27E-03    0.11E-03    0.82E-07
 Optimization of the real space projectors (new method)

 maximal supplied QI-value         = 16.25
 optimisation between [QCUT,QGAM] = [ 12.51, 25.03] = [ 43.85,175.40] Ry 
 Optimized for a Real-space Cutoff    1.31 Angstroem

   l    n(q)    QCUT    max X(q) W(low)/X(q) W(high)/X(q)  e(spline) 
   2      9    12.514    65.824    0.30E-03    0.46E-03    0.43E-06
   2      9    12.514    61.429    0.31E-03    0.46E-03    0.44E-06
   0     10    12.514    56.174    0.90E-04    0.33E-03    0.30E-06
   0     10    12.514    31.263    0.81E-04    0.30E-03    0.28E-06
   1      9    12.514    19.828    0.38E-03    0.65E-04    0.24E-06
   1      9    12.514    15.139    0.32E-03    0.60E-04    0.20E-06
 Optimization of the real space projectors (new method)

 maximal supplied QI-value         = 24.76
 optimisation between [QCUT,QGAM] = [ 12.38, 25.00] = [ 42.90,175.06] Ry 
 Optimized for a Real-space Cutoff    1.13 Angstroem

   l    n(q)    QCUT    max X(q) W(low)/X(q) W(high)/X(q)  e(spline) 
   0      8    12.378    20.381    0.16E-03    0.54E-05    0.27E-06
   0      8    12.378    15.268    0.17E-03    0.61E-05    0.29E-06
   1      8    12.378     5.964    0.38E-03    0.23E-03    0.28E-06
   1      8    12.378     5.382    0.33E-03    0.20E-03    0.25E-06
  PAW_PBE Li 17Jan2003                  :
 energy of atom  1       EATOM=   -5.3001
 kinetic energy error for atom=    0.0000 (will be added to EATOM!!)
  PAW_PBE Co 02Aug2007                  :
 energy of atom  2       EATOM= -813.3670
 kinetic energy error for atom=    0.0018 (will be added to EATOM!!)
  PAW_PBE O 08Apr2002                   :
 energy of atom  3       EATOM= -432.3788
 kinetic energy error for atom=    0.0168 (will be added to EATOM!!)
 
 
 POSCAR: Li6 Co12 O24                            
  positions in cartesian coordinates
  No initial velocities read in
 exchange correlation table for  LEXCH =        8
   RHO(1)=    0.500       N(1)  =     2000
   RHO(2)=  100.500       N(2)  =     4000
 


--------------------------------------------------------------------------------------------------------


 ion  position               nearest neighbor table
   1  0.009  0.032  0.996-  35 1.96  26 2.07  25 2.08  23 2.11  38 2.16  36 2.21   2 2.59  17 2.84
                            15 2.84   7 2.90  10 2.97  18 3.04   8 3.07   2 3.09
   2  0.560  0.043  0.993-  37 1.89  25 1.91  38 1.98  24 2.31  23 2.32  36 2.36   1 2.59  17 2.60
                             9 2.93  15 2.94  10 2.95  16 3.01   1 3.09   8 3.20
   3  0.874  0.213  0.344-  33 1.97  31 2.00  20 2.02  34 2.20  19 2.23  21 2.31  12 2.70   4 2.80
                            11 2.81  13 2.85   4 2.86   7 2.88   9 3.03  10 3.10
   4  0.821  0.680  0.334-  34 2.00  19 2.00  22 2.03  33 2.04  20 2.27  32 2.28  14 2.77   3 2.80
                             8 2.85  10 2.85   3 2.86   9 2.92  11 2.95  12 2.98
   5  0.164  0.329  0.666-  27 1.99  40 2.05  42 2.10  29 2.10  28 2.11  39 2.16   6 2.71  11 2.80
                            15 2.85  16 2.87  12 2.88  17 2.91   6 2.92  14 2.93
   6  0.153  0.842  0.663-  27 2.00  40 2.03  39 2.05  28 2.10  30 2.19  41 2.19   5 2.71  11 2.78
                            15 2.85  18 2.86  12 2.86  13 2.90   5 2.92  16 2.96
   7  0.170  0.330  0.169-  23 1.88  19 1.90  20 1.91  22 1.96  24 1.99  25 2.07  10 2.76   8 2.81
                             9 2.81  10 2.82   8 2.82   9 2.87   3 2.88   1 2.90
   8  0.159  0.824  0.172-  24 1.83  20 1.83  26 1.84  19 1.94  21 2.00  23 2.01   9 2.69  10 2.81
                             7 2.81   7 2.82   4 2.85  10 2.87   9 2.88   1 3.07   2 3.20
   9  0.673  0.345  0.167-  20 1.94  25 1.95  22 1.97  23 2.01  26 2.05  21 2.06   8 2.69  10 2.79
                             7 2.81  10 2.84   7 2.87   8 2.88   4 2.92   2 2.93   3 3.03
  10  0.666  0.846  0.169-  24 1.80  21 1.91  25 1.92  26 1.93  19 1.95  22 2.04   7 2.76   9 2.79
                             8 2.81   7 2.82   9 2.84   4 2.85   8 2.87   2 2.95   1 2.97   3 3.10
  11  0.011  0.019  0.503-  29 1.74  31 1.85  27 1.87  34 1.94  30 2.02  32 2.03  14 2.70  12 2.76
                            13 2.78   6 2.78   5 2.80   3 2.81  12 2.87  14 2.88  13 2.91   4 2.95
  12  0.005  0.506  0.502-  30 1.83  29 1.87  32 1.90  28 1.94  33 1.94  31 1.95   3 2.70  11 2.76
                            13 2.76  14 2.79  13 2.81   6 2.86  11 2.87   5 2.88  14 2.89   4 2.98
  13  0.510  0.993  0.500-  28 1.85  32 1.88  34 1.91  29 1.94  33 2.03  27 2.14  12 2.76  11 2.78
                            12 2.81  14 2.81  14 2.82   3 2.85   6 2.90  11 2.91
  14  0.507  0.492  0.497-  30 1.81  31 1.85  34 1.89  33 1.91  27 1.92  28 2.12  11 2.70   4 2.77
                            12 2.79  13 2.81  13 2.82  11 2.88  12 2.89   5 2.93
  15  0.324  0.158  0.829-  41 1.77  35 1.80  42 1.81  36 1.91  37 1.96  39 2.02  18 2.77  17 2.79
                            18 2.80  16 2.81  16 2.82   1 2.84   6 2.85   5 2.85  17 2.89   2 2.94
  16  0.329  0.662  0.830-  42 1.86  40 1.88  41 1.90  35 1.95  36 1.96  38 1.96  17 2.74  15 2.81
                            15 2.82  18 2.83  17 2.83  18 2.85   5 2.87   6 2.96   2 3.01
  17  0.816  0.159  0.833-  35 1.86  38 1.89  41 1.91  37 1.95  39 2.01  40 2.05   2 2.60  18 2.74
                            16 2.74  15 2.79  16 2.83   1 2.84  15 2.89  18 2.89   5 2.91
  18  0.825  0.650  0.830-  39 1.85  37 1.86  36 1.94  42 1.96  40 1.98  38 2.05  17 2.74  15 2.77
                            15 2.80  16 2.83  16 2.85   6 2.86  17 2.89   1 3.04
  19  0.999  0.997  0.242-   7 1.90   8 1.94  10 1.95   4 2.00   3 2.23
  20  0.007  0.498  0.239-   8 1.83   7 1.91   9 1.94   3 2.02   4 2.27
  21  0.498  0.990  0.248-  10 1.91   8 2.00   9 2.06   3 2.31
  22  0.496  0.491  0.248-   7 1.96   9 1.97   4 2.03  10 2.04
  23  0.326  0.173  0.094-   7 1.88   9 2.01   8 2.01   1 2.11   2 2.32
  24  0.351  0.699  0.106-  10 1.80   8 1.83   7 1.99   2 2.31
  25  0.823  0.170  0.089-   2 1.91  10 1.92   9 1.95   7 2.07   1 2.08
  26  0.862  0.716  0.096-   8 1.84  10 1.93   9 2.05   1 2.07
  27  0.321  0.174  0.578-  11 1.87  14 1.92   5 1.99   6 2.00  13 2.14
  28  0.333  0.680  0.576-  13 1.85  12 1.94   6 2.10   5 2.11  14 2.12
  29  0.856  0.166  0.565-  11 1.74  12 1.87  13 1.94   5 2.10
  30  0.817  0.639  0.565-  14 1.81  12 1.83  11 2.02   6 2.19
  31  0.182  0.342  0.433-  11 1.85  14 1.85  12 1.95   3 2.00
  32  0.187  0.840  0.431-  13 1.88  12 1.90  11 2.03   4 2.28
  33  0.685  0.348  0.423-  14 1.91  12 1.94   3 1.97  13 2.03   4 2.04
  34  0.680  0.834  0.431-  14 1.89  13 1.91  11 1.94   4 2.00   3 2.20
  35  0.150  0.300  0.892-  15 1.80  17 1.86  16 1.95   1 1.96
  36  0.158  0.826  0.903-  15 1.91  18 1.94  16 1.96   1 2.21   2 2.36
  37  0.653  0.332  0.905-  18 1.86   2 1.89  17 1.95  15 1.96
  38  0.658  0.832  0.907-  17 1.89  16 1.96   2 1.98  18 2.05   1 2.16
  39  0.971  0.970  0.758-  18 1.85  17 2.01  15 2.02   6 2.05   5 2.16
  40  0.020  0.515  0.753-  16 1.88  18 1.98   6 2.03   5 2.05  17 2.05
  41  0.483  0.009  0.765-  15 1.77  16 1.90  17 1.91   6 2.19
  42  0.476  0.483  0.765-  15 1.81  16 1.86  18 1.96   5 2.10
 

IMPORTANT INFORMATION: All symmetrisations will be switched off!
NOSYMM: (Re-)initialisation of all symmetry stuff for point group C_1.

 
 

Automatic generation of k-mesh.
 generate k-points for:    6    6    2
Space group operators:
 irot       det(A)        alpha          n_x          n_y          n_z        tau_x        tau_y        tau_z
    1     1.000000     0.000000     1.000000     0.000000     0.000000     0.000000     0.000000     0.000000
 
 Subroutine IBZKPT returns following result:
 ===========================================
 
 Found     36 irreducible k-points:
 
 Following reciprocal coordinates:
            Coordinates               Weight
  0.083333  0.083333  0.250000      2.000000
  0.250000  0.083333  0.250000      2.000000
  0.416667  0.083333  0.250000      2.000000
 -0.416667  0.083333  0.250000      2.000000
 -0.250000  0.083333  0.250000      2.000000
 -0.083333  0.083333  0.250000      2.000000
  0.083333  0.250000  0.250000      2.000000
  0.250000  0.250000  0.250000      2.000000
  0.416667  0.250000  0.250000      2.000000
 -0.416667  0.250000  0.250000      2.000000
 -0.250000  0.250000  0.250000      2.000000
 -0.083333  0.250000  0.250000      2.000000
  0.083333  0.416667  0.250000      2.000000
  0.250000  0.416667  0.250000      2.000000
  0.416667  0.416667  0.250000      2.000000
 -0.416667  0.416667  0.250000      2.000000
 -0.250000  0.416667  0.250000      2.000000
 -0.083333  0.416667  0.250000      2.000000
  0.083333 -0.416667  0.250000      2.000000
  0.250000 -0.416667  0.250000      2.000000
  0.416667 -0.416667  0.250000      2.000000
 -0.416667 -0.416667  0.250000      2.000000
 -0.250000 -0.416667  0.250000      2.000000
 -0.083333 -0.416667  0.250000      2.000000
  0.083333 -0.250000  0.250000      2.000000
  0.250000 -0.250000  0.250000      2.000000
  0.416667 -0.250000  0.250000      2.000000
 -0.416667 -0.250000  0.250000      2.000000
 -0.250000 -0.250000  0.250000      2.000000
 -0.083333 -0.250000  0.250000      2.000000
  0.083333 -0.083333  0.250000      2.000000
  0.250000 -0.083333  0.250000      2.000000
  0.416667 -0.083333  0.250000      2.000000
 -0.416667 -0.083333  0.250000      2.000000
 -0.250000 -0.083333  0.250000      2.000000
 -0.083333 -0.083333  0.250000      2.000000
 
 Following cartesian coordinates:
            Coordinates               Weight
  0.014673  0.026075  0.016818      2.000000
  0.044020  0.043695  0.016256      2.000000
  0.073367  0.061316  0.015694      2.000000
 -0.073367 -0.026787  0.018505      2.000000
 -0.044020 -0.009166  0.017943      2.000000
 -0.014673  0.008454  0.017380      2.000000
  0.014673  0.060604  0.016218      2.000000
  0.044020  0.078224  0.015656      2.000000
  0.073367  0.095845  0.015094      2.000000
 -0.073367  0.007742  0.017905      2.000000
 -0.044020  0.025363  0.017343      2.000000
 -0.014673  0.042983  0.016781      2.000000
  0.014673  0.095133  0.015619      2.000000
  0.044020  0.112753  0.015056      2.000000
  0.073367  0.130374  0.014494      2.000000
 -0.073367  0.042271  0.017305      2.000000
 -0.044020  0.059891  0.016743      2.000000
 -0.014673  0.077512  0.016181      2.000000
  0.014673 -0.077512  0.018617      2.000000
  0.044020 -0.059891  0.018055      2.000000
  0.073367 -0.042271  0.017493      2.000000
 -0.073367 -0.130374  0.020304      2.000000
 -0.044020 -0.112753  0.019742      2.000000
 -0.014673 -0.095133  0.019180      2.000000
  0.014673 -0.042983  0.018018      2.000000
  0.044020 -0.025363  0.017455      2.000000
  0.073367 -0.007742  0.016893      2.000000
 -0.073367 -0.095845  0.019704      2.000000
 -0.044020 -0.078224  0.019142      2.000000
 -0.014673 -0.060604  0.018580      2.000000
  0.014673 -0.008454  0.017418      2.000000
  0.044020  0.009166  0.016856      2.000000
  0.073367  0.026787  0.016293      2.000000
 -0.073367 -0.061316  0.019105      2.000000
 -0.044020 -0.043695  0.018542      2.000000
 -0.014673 -0.026075  0.017980      2.000000
 


--------------------------------------------------------------------------------------------------------




 Dimension of arrays:
   k-points           NKPTS =     36   k-points in BZ     NKDIM =     36   number of bands    NBANDS=    160
   number of dos      NEDOS =    301   number of ions     NIONS =     42
   non local maximal  LDIM  =      6   non local SUM 2l+1 LMDIM =     18
   total plane-waves  NPLWV = 116640
   max r-space proj   IRMAX =   2817   max aug-charges    IRDMAX=  11877
   dimension x,y,z NGX =    36 NGY =   36 NGZ =   90
   dimension x,y,z NGXF=    72 NGYF=   72 NGZF=  180
   support grid    NGXF=    72 NGYF=   72 NGZF=  180
   ions per type =               6  12  24
   NGX,Y,Z   is equivalent  to a cutoff of  10.54, 10.63, 10.41 a.u.
   NGXF,Y,Z  is equivalent  to a cutoff of  21.08, 21.26, 20.82 a.u.

 SYSTEM =  LiCoO2                                  
 POSCAR =  Li6 Co12 O24                            

 Startparameter for this run:
   NWRITE =      2    write-flag & timer
   PREC   = normal    normal or accurate (medium, high low for compatibility)
   ISTART =      0    job   : 0-new  1-cont  2-samecut
   ICHARG =      2    charge: 1-file 2-atom 10-const
   ISPIN  =      2    spin polarized calculation?
   LNONCOLLINEAR =      F non collinear calculations
   LSORBIT =      F    spin-orbit coupling
   INIWAV =      1    electr: 0-lowe 1-rand  2-diag
   LASPH  =      F    aspherical Exc in radial PAW
   METAGGA=      F    non-selfconsistent MetaGGA calc.

 Electronic Relaxation 1
   ENCUT  =  600.0 eV  44.10 Ry    6.64 a.u.  11.34 11.24 28.70*2*pi/ulx,y,z
   ENINI  =  600.0     initial cutoff
   ENAUG  =  605.4 eV  augmentation charge cutoff
   NELM   =    600;   NELMIN=  2; NELMDL= -5     # of ELM steps 
   EDIFF  = 0.1E-05   stopping-criterion for ELM
   LREAL  =      T    real-space projection
   NLSPLINE    = F    spline interpolate recip. space projectors
   LCOMPAT=      F    compatible to vasp.4.4
   GGA_COMPAT  = T    GGA compatible to vasp.4.4-vasp.4.6
   LMAXPAW     = -100 max onsite density
   LMAXMIX     =    2 max onsite mixed and CHGCAR
   VOSKOWN=      0    Vosko Wilk Nusair interpolation
   ROPT   =   -0.00050  -0.00050  -0.00050
 Ionic relaxation
   EDIFFG = 0.1E-04   stopping-criterion for IOM
   NSW    =      0    number of steps for IOM
   NBLOCK =      1;   KBLOCK =      1    inner block; outer block 
   IBRION =     -1    ionic relax: 0-MD 1-quasi-New 2-CG
   NFREE  =      0    steps in history (QN), initial steepest desc. (CG)
   ISIF   =      2    stress and relaxation
   IWAVPR =     10    prediction:  0-non 1-charg 2-wave 3-comb
   ISYM   =      0    0-nonsym 1-usesym 2-fastsym
   LCORR  =      T    Harris-Foulkes like correction to forces

   POTIM  = 0.5000    time-step for ionic-motion
   TEIN   =    0.0    initial temperature
   TEBEG  =    0.0;   TEEND  =   0.0 temperature during run
   SMASS  =  -3.00    Nose mass-parameter (am)
   estimated Nose-frequenzy (Omega)   =  0.10E-29 period in steps =****** mass=  -0.737E-27a.u.
   SCALEE = 1.0000    scale energy and forces
   NPACO  =    256;   APACO  = 16.0  distance and # of slots for P.C.
   PSTRESS=    0.0 pullay stress

  Mass of Ions in am
   POMASS =   7.01 58.93 16.00
  Ionic Valenz
   ZVAL   =   1.00  9.00  6.00
  Atomic Wigner-Seitz radii
   RWIGS  =  -1.00 -1.00 -1.00
  virtual crystal weights 
   VCA    =   1.00  1.00  1.00
   NELECT =     258.0000    total number of electrons
   NUPDOWN=       6.0000    fix difference up-down

 DOS related values:
   EMIN   =  10.00;   EMAX   =-10.00  energy-range for DOS
   EFERMI =   0.00
   ISMEAR =     0;   SIGMA  =   0.05  broadening in eV -4-tet -1-fermi 0-gaus

 Electronic relaxation 2 (details)
   IALGO  =     58    algorithm
   LDIAG  =      T    sub-space diagonalisation (order eigenvalues)
   LSUBROT=      F    optimize rotation matrix (better conditioning)
   TURBO    =      0    0=normal 1=particle mesh
   IRESTART =      0    0=no restart 2=restart with 2 vectors
   NREBOOT  =      0    no. of reboots
   NMIN     =      0    reboot dimension
   EREF     =   0.00    reference energy to select bands
   IMIX   =      4    mixing-type and parameters
     AMIX     =   0.40;   BMIX     =  1.00
     AMIX_MAG =   1.60;   BMIX_MAG =  1.00
     AMIN     =   0.10
     WC   =   100.;   INIMIX=   1;  MIXPRE=   1;  MAXMIX= -45

 Intra band minimization:
   WEIMIN = 0.0000     energy-eigenvalue tresh-hold
   EBREAK =  0.16E-08  absolut break condition
   DEPER  =   0.30     relativ break condition  

   TIME   =   0.40     timestep for ELM

  volume/ion in A,a.u.               =       9.38        63.29
  Fermi-wavevector in a.u.,A,eV,Ry     =   1.421762  2.686741 27.502918  2.021407
  Thomas-Fermi vector in A             =   2.542537
 
 Write flags
   LWAVE        =      F    write WAVECAR
   LDOWNSAMPLE  =      F    k-point downsampling of WAVECAR
   LCHARG       =      F    write CHGCAR
   LVTOT        =      F    write LOCPOT, total local potential
   LVHAR        =      F    write LOCPOT, Hartree potential only
   LELF         =      F    write electronic localiz. function (ELF)
   LORBIT       =     11    0 simple, 1 ext, 2 COOP (PROOUT), +10 PAW based schemes


 Dipole corrections
   LMONO  =      F    monopole corrections only (constant potential shift)
   LDIPOL =      F    correct potential (dipole corrections)
   IDIPOL =      0    1-x, 2-y, 3-z, 4-all directions 
   EPSILON=  1.0000000 bulk dielectric constant

 LDA+U is selected, type is set to LDAUTYPE =  2
   angular momentum for each species LDAUL =    -1    2   -1
   U (eV)           for each species LDAUU =   0.0  5.1  0.0
   J (eV)           for each species LDAUJ =   0.0  0.0  0.0
 Exchange correlation treatment:
   GGA     =    --    GGA type
   LEXCH   =     8    internal setting for exchange type
   VOSKOWN=      0    Vosko Wilk Nusair interpolation
   LHFCALC =     F    Hartree Fock is set to
   LHFONE  =     F    Hartree Fock one center treatment
   AEXX    =    0.0000 exact exchange contribution

 Linear response parameters
   LEPSILON=     F    determine dielectric tensor
   LRPA    =     F    only Hartree local field effects (RPA)
   LNABLA  =     F    use nabla operator in PAW spheres
   LVEL    =     F    velocity operator in full k-point grid
   LINTERFAST=   F  fast interpolation
   KINTER  =     0    interpolate to denser k-point grid
   CSHIFT  =0.1000    complex shift for real part using Kramers Kronig
   OMEGAMAX=  -1.0    maximum frequency
   DEG_THRESHOLD= 0.2000000E-02 threshold for treating states as degnerate
   RTIME   =   -0.100 relaxation time in fs
  (WPLASMAI=    0.000 imaginary part of plasma frequency in eV, 0.658/RTIME)
   DFIELD  = 0.0000000 0.0000000 0.0000000 field for delta impulse in time
 
 Orbital magnetization related:
   ORBITALMAG=     F  switch on orbital magnetization
   LCHIMAG   =     F  perturbation theory with respect to B field
   DQ        =  0.001000  dq finite difference perturbation B field
   LLRAUG    =     F  two centre corrections for induced B field



--------------------------------------------------------------------------------------------------------


 Static calculation
 charge density and potential will be updated during run
 spin polarized calculation
 Conjugate gradient for all bands (Freysoldt, et al. PRB 79, 241103 (2009))
 preconditioned conjugated gradient                                        
 perform sub-space diagonalisation
    before iterative eigenvector-optimisation
 modified Broyden-mixing scheme, WC =      100.0
 initial mixing is a Kerker type mixing with AMIX =  0.4000 and BMIX =      1.0000
 Hartree-type preconditioning will be used
 using additional bands           31
 real space projection scheme for non local part
 use partial core corrections
 no Harris-corrections to forces 
 use gradient corrections 
 use of overlap-Matrix (Vanderbilt PP)
 Gauss-broadening in eV      SIGMA  =   0.05


--------------------------------------------------------------------------------------------------------


  energy-cutoff  :      600.00
  volume of cell :      393.88
      direct lattice vectors                 reciprocal lattice vectors
     5.679175377  0.000000000  0.000000000     0.176081902  0.105723373 -0.003373337
    -2.898159742  4.826874733  0.000000000     0.000000000  0.207173390 -0.003598382
     0.125424087  0.249565959 14.368521690     0.000000000  0.000000000  0.069596582

  length of vectors
     5.679175377  5.630102093 14.371236201     0.205410923  0.207204637  0.069596582


 
 k-points in units of 2pi/SCALE and weight: read from INCAR                         
   0.01467349  0.02607473  0.01681817       0.028
   0.04402048  0.04369529  0.01625595       0.028
   0.07336746  0.06131585  0.01569372       0.028
  -0.07336746 -0.02678696  0.01850484       0.028
  -0.04402048 -0.00916639  0.01794261       0.028
  -0.01467349  0.00845417  0.01738039       0.028
   0.01467349  0.06060363  0.01621844       0.028
   0.04402048  0.07822419  0.01565622       0.028
   0.07336746  0.09584475  0.01509399       0.028
  -0.07336746  0.00774194  0.01790511       0.028
  -0.04402048  0.02536250  0.01734288       0.028
  -0.01467349  0.04298307  0.01678066       0.028
   0.01467349  0.09513253  0.01561871       0.028
   0.04402048  0.11275309  0.01505649       0.028
   0.07336746  0.13037365  0.01449426       0.028
  -0.07336746  0.04227084  0.01730538       0.028
  -0.04402048  0.05989140  0.01674315       0.028
  -0.01467349  0.07751196  0.01618093       0.028
   0.01467349 -0.07751196  0.01861736       0.028
   0.04402048 -0.05989140  0.01805514       0.028
   0.07336746 -0.04227084  0.01749291       0.028
  -0.07336746 -0.13037365  0.02030403       0.028
  -0.04402048 -0.11275309  0.01974181       0.028
  -0.01467349 -0.09513253  0.01917958       0.028
   0.01467349 -0.04298307  0.01801763       0.028
   0.04402048 -0.02536250  0.01745541       0.028
   0.07336746 -0.00774194  0.01689318       0.028
  -0.07336746 -0.09584475  0.01970430       0.028
  -0.04402048 -0.07822419  0.01914208       0.028
  -0.01467349 -0.06060363  0.01857985       0.028
   0.01467349 -0.00845417  0.01741790       0.028
   0.04402048  0.00916639  0.01685568       0.028
   0.07336746  0.02678696  0.01629345       0.028
  -0.07336746 -0.06131585  0.01910457       0.028
  -0.04402048 -0.04369529  0.01854234       0.028
  -0.01467349 -0.02607473  0.01798012       0.028
 
 k-points in reciprocal lattice and weights: read from INCAR                         
   0.08333333  0.08333333  0.25000000       0.028
   0.25000000  0.08333333  0.25000000       0.028
   0.41666667  0.08333333  0.25000000       0.028
  -0.41666667  0.08333333  0.25000000       0.028
  -0.25000000  0.08333333  0.25000000       0.028
  -0.08333333  0.08333333  0.25000000       0.028
   0.08333333  0.25000000  0.25000000       0.028
   0.25000000  0.25000000  0.25000000       0.028
   0.41666667  0.25000000  0.25000000       0.028
  -0.41666667  0.25000000  0.25000000       0.028
  -0.25000000  0.25000000  0.25000000       0.028
  -0.08333333  0.25000000  0.25000000       0.028
   0.08333333  0.41666667  0.25000000       0.028
   0.25000000  0.41666667  0.25000000       0.028
   0.41666667  0.41666667  0.25000000       0.028
  -0.41666667  0.41666667  0.25000000       0.028
  -0.25000000  0.41666667  0.25000000       0.028
  -0.08333333  0.41666667  0.25000000       0.028
   0.08333333 -0.41666667  0.25000000       0.028
   0.25000000 -0.41666667  0.25000000       0.028
   0.41666667 -0.41666667  0.25000000       0.028
  -0.41666667 -0.41666667  0.25000000       0.028
  -0.25000000 -0.41666667  0.25000000       0.028
  -0.08333333 -0.41666667  0.25000000       0.028
   0.08333333 -0.25000000  0.25000000       0.028
   0.25000000 -0.25000000  0.25000000       0.028
   0.41666667 -0.25000000  0.25000000       0.028
  -0.41666667 -0.25000000  0.25000000       0.028
  -0.25000000 -0.25000000  0.25000000       0.028
  -0.08333333 -0.25000000  0.25000000       0.028
   0.08333333 -0.08333333  0.25000000       0.028
   0.25000000 -0.08333333  0.25000000       0.028
   0.41666667 -0.08333333  0.25000000       0.028
  -0.41666667 -0.08333333  0.25000000       0.028
  -0.25000000 -0.08333333  0.25000000       0.028
  -0.08333333 -0.08333333  0.25000000       0.028
 
 position of ions in fractional coordinates (direct lattice) 
   0.00907189  0.03169286  0.99646022
   0.55951192  0.04318432  0.99254192
   0.87407911  0.21280114  0.34357883
   0.82096038  0.68030616  0.33444986
   0.16351757  0.32902287  0.66602746
   0.15282289  0.84234992  0.66348234
   0.17038279  0.32985416  0.16947534
   0.15935731  0.82354196  0.17156254
   0.67345954  0.34516965  0.16720787
   0.66557732  0.84624242  0.16898954
   0.01132091  0.01884764  0.50325288
   0.00547708  0.50604214  0.50162294
   0.50974209  0.99339718  0.50045372
   0.50728348  0.49196604  0.49682912
   0.32433508  0.15797362  0.82900387
   0.32913959  0.66201712  0.82950498
   0.81594676  0.15862629  0.83292914
   0.82549150  0.64992098  0.83033318
   0.99866367  0.99687750  0.24249050
   0.00688231  0.49803926  0.23888191
   0.49761402  0.99002830  0.24822108
   0.49637100  0.49066162  0.24778193
   0.32626229  0.17333789  0.09392198
   0.35081519  0.69851756  0.10575688
   0.82268305  0.16981215  0.08914696
   0.86218332  0.71573894  0.09595768
   0.32082624  0.17428173  0.57833993
   0.33311327  0.67960975  0.57643577
   0.85575554  0.16582546  0.56538661
   0.81730777  0.63868384  0.56475262
   0.18244691  0.34197349  0.43273834
   0.18703636  0.84043991  0.43059404
   0.68504164  0.34842967  0.42314930
   0.68025375  0.83370148  0.43061700
   0.15039226  0.30007474  0.89233675
   0.15777621  0.82588022  0.90336779
   0.65323676  0.33195976  0.90521911
   0.65786006  0.83248860  0.90702166
   0.97080866  0.97003466  0.75777174
   0.02045442  0.51450758  0.75305312
   0.48300643  0.00901215  0.76524640
   0.47605329  0.48281156  0.76472445
 
 position of ions in cartesian coordinates  (Angst):
   0.08465000  0.40166000 14.31766033
   3.17689991  0.45615000 14.26136017
   4.39040995  1.11291003  4.93671989
   2.73269010  3.36721992  4.80555010
   0.05862000  1.75436997  9.56982994
  -1.49013996  4.23150015  9.53326035
   0.03292000  1.63445997  2.43511009
  -1.46021998  4.01795006  2.46510005
   2.84530997  1.70782006  2.40252995
   1.34858000  4.12688017  2.42812991
   0.07279000  0.21657000  7.23099995
  -1.37257004  2.56779003  7.20758009
   0.07866000  4.91989994  7.19078016
   1.51747000  2.49865007  7.13870001
   1.48810005  0.96941000 11.91156006
   0.05465000  3.40248990 11.91876030
   4.27864981  0.97354001 11.96796036
   2.90867996  3.34431005 11.93066025
   2.81289005  4.87232018  3.48423004
  -1.37434995  2.46358991  3.43237996
  -0.01209000  4.84069014  3.56657004
   1.42804003  2.43020010  3.56026006
   1.36231995  0.86012000  1.34951997
  -0.01881000  3.39805007  1.51956999
   4.19119978  0.84191000  1.28091002
   2.83419991  3.47872996  1.37876999
   1.38946998  0.98557001  8.30988979
  -0.00551000  3.42424989  8.28252983
   4.45031023  0.94151998  8.12376976
   2.86145997  3.22378993  8.11466026
   0.09933000  1.75865996  6.21781015
  -1.31950998  4.16415977  6.18699980
   2.93373990  1.78743005  6.08002996
   1.50109005  4.13163996  6.18732977
   0.09636000  1.67112005 12.82155991
  -1.38418996  4.21187019 12.98005962
   2.86131001  1.82824004 13.00666046
   1.43718004  4.24467993 13.03256035
   2.79712009  4.87134981 10.88805962
  -1.28050995  2.67140007 10.82026005
   2.81293988  0.23447999 10.99545956
   1.40023994  2.52132010 10.98795986
 


--------------------------------------------------------------------------------------------------------


 k-point  1 :   0.0833 0.0833 0.2500  plane waves:   13140
 k-point  2 :   0.2500 0.0833 0.2500  plane waves:   13158
 k-point  3 :   0.4167 0.0833 0.2500  plane waves:   13148
 k-point  4 :  -0.4167 0.0833 0.2500  plane waves:   13130
 k-point  5 :  -0.2500 0.0833 0.2500  plane waves:   13128
 k-point  6 :  -0.0833 0.0833 0.2500  plane waves:   13140
 k-point  7 :   0.0833 0.2500 0.2500  plane waves:   13161
 k-point  8 :   0.2500 0.2500 0.2500  plane waves:   13154
 k-point  9 :   0.4167 0.2500 0.2500  plane waves:   13129
 k-point 10 :  -0.4167 0.2500 0.2500  plane waves:   13128
 k-point 11 :  -0.2500 0.2500 0.2500  plane waves:   13128
 k-point 12 :  -0.0833 0.2500 0.2500  plane waves:   13143
 k-point 13 :   0.0833 0.4167 0.2500  plane waves:   13164
 k-point 14 :   0.2500 0.4167 0.2500  plane waves:   13162
 k-point 15 :   0.4167 0.4167 0.2500  plane waves:   13152
 k-point 16 :  -0.4167 0.4167 0.2500  plane waves:   13134
 k-point 17 :  -0.2500 0.4167 0.2500  plane waves:   13128
 k-point 18 :  -0.0833 0.4167 0.2500  plane waves:   13161
 k-point 19 :   0.0833-0.4167 0.2500  plane waves:   13152
 k-point 20 :   0.2500-0.4167 0.2500  plane waves:   13141
 k-point 21 :   0.4167-0.4167 0.2500  plane waves:   13134
 k-point 22 :  -0.4167-0.4167 0.2500  plane waves:   13141
 k-point 23 :  -0.2500-0.4167 0.2500  plane waves:   13160
 k-point 24 :  -0.0833-0.4167 0.2500  plane waves:   13159
 k-point 25 :   0.0833-0.2500 0.2500  plane waves:   13138
 k-point 26 :   0.2500-0.2500 0.2500  plane waves:   13115
 k-point 27 :   0.4167-0.2500 0.2500  plane waves:   13108
 k-point 28 :  -0.4167-0.2500 0.2500  plane waves:   13158
 k-point 29 :  -0.2500-0.2500 0.2500  plane waves:   13158
 k-point 30 :  -0.0833-0.2500 0.2500  plane waves:   13133
 k-point 31 :   0.0833-0.0833 0.2500  plane waves:   13154
 k-point 32 :   0.2500-0.0833 0.2500  plane waves:   13142
 k-point 33 :   0.4167-0.0833 0.2500  plane waves:   13139
 k-point 34 :  -0.4167-0.0833 0.2500  plane waves:   13170
 k-point 35 :  -0.2500-0.0833 0.2500  plane waves:   13145
 k-point 36 :  -0.0833-0.0833 0.2500  plane waves:   13133

 maximum and minimum number of plane-waves per node :      3316     3258

 maximum number of plane-waves:     13170
 maximum index in each direction: 
   IXMAX=   11   IYMAX=   11   IZMAX=   28
   IXMIN=  -11   IYMIN=  -11   IZMIN=  -28


 real space projection operators:
  total allocation   :       7519.15 KBytes
  max/ min on nodes  :       1881.88       1875.26


 parallel 3D FFT for wavefunctions:
    minimum data exchange during FFTs selected (reduces bandwidth)
 parallel 3D FFT for charge:
    minimum data exchange during FFTs selected (reduces bandwidth)


 total amount of memory used by VASP MPI-rank0   159305. kBytes
=======================================================================

   base      :      30000. kBytes
   nonlr-proj:       4299. kBytes
   fftplans  :       1688. kBytes
   grid      :       4644. kBytes
   one-center:        342. kBytes
   wavefun   :     118332. kBytes
 
     INWAV:  cpu time    0.0000: real time    0.0002
 Broyden mixing: mesh for mixing (old mesh)
   NGX = 23   NGY = 23   NGZ = 57
  (NGX  = 72   NGY  = 72   NGZ  =180)
  gives a total of  30153 points

 initial charge density was supplied:
 charge density of overlapping atoms calculated
 number of electron     258.0000000 magnetization       6.0000000
 keeping initial charge density in first step


--------------------------------------------------------------------------------------------------------


 Maximum index for non-local projection operator          688
 Maximum index for augmentation-charges          941 (set IRDMAX)


--------------------------------------------------------------------------------------------------------


 First call to EWALD:  gamma=   0.242
 Maximum number of real-space cells 4x 4x 2
 Maximum number of reciprocal cells 2x 2x 5

    FEWALD:  cpu time    0.0054: real time    0.0054


--------------------------------------- Iteration      1(   1)  ---------------------------------------


    POTLOK:  cpu time    0.0714: real time    0.0845
    SETDIJ:  cpu time    0.0171: real time    0.0184
    TRIAL :  cpu time   22.2058: real time   22.2438
    CORREC:  cpu time    0.0036: real time    0.0036
    --------------------------------------------
      LOOP:  cpu time   22.5039: real time   22.5566

 eigenvalue-minimisations  : 23040
 total energy-change (2. order) : 0.3467577E+04  (-0.1392972E+05)
 number of electron     258.0000000 magnetization       6.0000000
 augmentation part      258.0000000 magnetization       6.0000000

 Free energy of the ion-electron system (eV)
  ---------------------------------------------------
  alpha Z        PSCENC =       744.30564293
  Ewald energy   TEWEN  =    -14177.16774954
  -Hartree energ DENC   =     -6850.96400691
  -exchange      EXHF   =         0.00000000
  -V(xc)+E(xc)   XCENC  =       841.10461607
  PAW double counting   =     17015.18481625   -17491.61297812
  entropy T*S    EENTRO =        -0.00778662
  eigenvalues    EBANDS =      3217.86390944
  atomic energy  EATOM  =     20168.87094289
  ---------------------------------------------------
  free energy    TOTEN  =      3467.57740639 eV

  energy without entropy =     3467.58519302  energy(sigma->0) =     3467.58129970


--------------------------------------------------------------------------------------------------------




--------------------------------------- Iteration      1(   2)  ---------------------------------------


    TRIAL :  cpu time   23.3324: real time   23.3371
    CORREC:  cpu time    0.0045: real time    0.0045
    --------------------------------------------
      LOOP:  cpu time   23.3395: real time   23.3443

 eigenvalue-minimisations  : 25040
 total energy-change (2. order) :-0.3071938E+04  (-0.2830006E+04)
 number of electron     258.0000000 magnetization       6.0000000
 augmentation part      258.0000000 magnetization       6.0000000

 Free energy of the ion-electron system (eV)
  ---------------------------------------------------
  alpha Z        PSCENC =       744.30564293
  Ewald energy   TEWEN  =    -14177.16774954
  -Hartree energ DENC   =     -6850.96400691
  -exchange      EXHF   =         0.00000000
  -V(xc)+E(xc)   XCENC  =       841.10461607
  PAW double counting   =     17015.18481625   -17491.61297812
  entropy T*S    EENTRO =        -0.02115809
  eigenvalues    EBANDS =       145.93933789
  atomic energy  EATOM  =     20168.87094289
  ---------------------------------------------------
  free energy    TOTEN  =       395.63946338 eV

  energy without entropy =      395.66062147  energy(sigma->0) =      395.65004242


--------------------------------------------------------------------------------------------------------




--------------------------------------- Iteration      1(   3)  ---------------------------------------


    TRIAL :  cpu time   23.8250: real time   23.8319
    CORREC:  cpu time    0.0044: real time    0.0044
    --------------------------------------------
      LOOP:  cpu time   23.8341: real time   23.8409

 eigenvalue-minimisations  : 25376
 total energy-change (2. order) :-0.6188105E+03  (-0.5637212E+03)
 number of electron     258.0000000 magnetization       6.0000000
 augmentation part      258.0000000 magnetization       6.0000000

 Free energy of the ion-electron system (eV)
  ---------------------------------------------------
  alpha Z        PSCENC =       744.30564293
  Ewald energy   TEWEN  =    -14177.16774954
  -Hartree energ DENC   =     -6850.96400691
  -exchange      EXHF   =         0.00000000
  -V(xc)+E(xc)   XCENC  =       841.10461607
  PAW double counting   =     17015.18481625   -17491.61297812
  entropy T*S    EENTRO =        -0.04571122
  eigenvalues    EBANDS =      -472.84659169
  atomic energy  EATOM  =     20168.87094289
  ---------------------------------------------------
  free energy    TOTEN  =      -223.17101933 eV

  energy without entropy =     -223.12530811  energy(sigma->0) =     -223.14816372


--------------------------------------------------------------------------------------------------------




--------------------------------------- Iteration      1(   4)  ---------------------------------------


    TRIAL :  cpu time   23.6027: real time   23.6103
    CORREC:  cpu time    0.0035: real time    0.0035
    --------------------------------------------
      LOOP:  cpu time   23.6103: real time   23.6179

 eigenvalue-minimisations  : 25344
 total energy-change (2. order) :-0.4865174E+02  (-0.4770573E+02)
 number of electron     258.0000000 magnetization       6.0000000
 augmentation part      258.0000000 magnetization       6.0000000

 Free energy of the ion-electron system (eV)
  ---------------------------------------------------
  alpha Z        PSCENC =       744.30564293
  Ewald energy   TEWEN  =    -14177.16774954
  -Hartree energ DENC   =     -6850.96400691
  -exchange      EXHF   =         0.00000000
  -V(xc)+E(xc)   XCENC  =       841.10461607
  PAW double counting   =     17015.18481625   -17491.61297812
  entropy T*S    EENTRO =        -0.05165267
  eigenvalues    EBANDS =      -521.49239301
  atomic energy  EATOM  =     20168.87094289
  ---------------------------------------------------
  free energy    TOTEN  =      -271.82276210 eV

  energy without entropy =     -271.77110943  energy(sigma->0) =     -271.79693577


--------------------------------------------------------------------------------------------------------




--------------------------------------- Iteration      1(   5)  ---------------------------------------


    TRIAL :  cpu time   25.5564: real time   25.5698
    CORREC:  cpu time    0.0049: real time    0.0049
    CHARGE:  cpu time    0.4733: real time    0.4735
    --------------------------------------------
      LOOP:  cpu time   26.0395: real time   26.0532

 eigenvalue-minimisations  : 27984
 total energy-change (2. order) :-0.1646981E+01  (-0.1644266E+01)
 number of electron     257.9999998 magnetization       5.9999998
 augmentation part       67.7766221 magnetization       4.3900591

 Free energy of the ion-electron system (eV)
  ---------------------------------------------------
  alpha Z        PSCENC =       744.30564293
  Ewald energy   TEWEN  =    -14177.16774954
  -Hartree energ DENC   =     -6850.96400691
  -exchange      EXHF   =         0.00000000
  -V(xc)+E(xc)   XCENC  =       841.10461607
  PAW double counting   =     17015.18481625   -17491.61297812
  entropy T*S    EENTRO =        -0.05200327
  eigenvalues    EBANDS =      -523.13902349
  atomic energy  EATOM  =     20168.87094289
  ---------------------------------------------------
  free energy    TOTEN  =      -273.46974318 eV

  energy without entropy =     -273.41773991  energy(sigma->0) =     -273.44374154


--------------------------------------------------------------------------------------------------------




--------------------------------------- Iteration      1(   6)  ---------------------------------------


    POTLOK:  cpu time    0.0482: real time    0.0482
    SETDIJ:  cpu time    0.0129: real time    0.0129
    TRIAL :  cpu time   12.9951: real time   13.0030
    CORREC:  cpu time    4.3686: real time    4.3713
    CHARGE:  cpu time    0.5104: real time    0.5105
    --------------------------------------------
      LOOP:  cpu time   17.9396: real time   17.9507

 eigenvalue-minimisations  :     0
 total energy-change (2. order) : 0.3750891E+03  (-0.2087685E+03)
 number of electron     257.9999996 magnetization       6.0000000
 augmentation part       71.0178313 magnetization       4.4610085

 Free energy of the ion-electron system (eV)
  ---------------------------------------------------
  alpha Z        PSCENC =       744.30564293
  Ewald energy   TEWEN  =    -14177.16774954
  -Hartree energ DENC   =     -6501.47572747
  -exchange      EXHF   =         0.00000000
  -V(xc)+E(xc)   XCENC  =       874.26376363
  PAW double counting   =     23253.87191178   -23456.11346249
  entropy T*S    EENTRO =        -0.04072735
  eigenvalues    EBANDS =      -804.88400239
  atomic energy  EATOM  =     20168.87094289
  ---------------------------------------------------
  free energy    TOTEN  =       101.61931607 eV

  energy without entropy =      101.66004342  energy(sigma->0) =      101.63967975


--------------------------------------------------------------------------------------------------------




--------------------------------------- Iteration      1(   7)  ---------------------------------------


    POTLOK:  cpu time    0.0469: real time    0.0469
    SETDIJ:  cpu time    0.0130: real time    0.0129
    TRIAL :  cpu time   12.5387: real time   12.5425
    CORREC:  cpu time    4.4192: real time    4.4209
    CHARGE:  cpu time    0.5057: real time    0.5058
    --------------------------------------------
      LOOP:  cpu time   17.5278: real time   17.5333

 eigenvalue-minimisations  :     0
 total energy-change (2. order) :-0.1320664E+03  (-0.2246977E+03)
 number of electron     257.9999995 magnetization       6.0000001
 augmentation part       74.2703532 magnetization       4.2044562

 Free energy of the ion-electron system (eV)
  ---------------------------------------------------
  alpha Z        PSCENC =       744.30564293
  Ewald energy   TEWEN  =    -14177.16774954
  -Hartree energ DENC   =     -6492.42007972
  -exchange      EXHF   =         0.00000000
  -V(xc)+E(xc)   XCENC  =       863.44839801
  PAW double counting   =     23319.37114439   -23646.69977353
  entropy T*S    EENTRO =        -0.03035266
  eigenvalues    EBANDS =      -810.11484024
  atomic energy  EATOM  =     20168.87094289
  ---------------------------------------------------
  free energy    TOTEN  =       -30.44704216 eV

  energy without entropy =      -30.41668950  energy(sigma->0) =      -30.43186583


--------------------------------------------------------------------------------------------------------




--------------------------------------- Iteration      1(   8)  ---------------------------------------


    POTLOK:  cpu time    0.0509: real time    0.0509
    SETDIJ:  cpu time    0.0130: real time    0.0130
    TRIAL :  cpu time   12.4639: real time   12.4678
    CORREC:  cpu time    4.6083: real time    4.6101
    CHARGE:  cpu time    0.4574: real time    0.4576
    --------------------------------------------
      LOOP:  cpu time   17.5978: real time   17.6038

 eigenvalue-minimisations  :     0
 total energy-change (2. order) :-0.6185861E+02  (-0.3271743E+03)
 number of electron     257.9999995 magnetization       6.0000001
 augmentation part       74.8455425 magnetization       2.1492281

 Free energy of the ion-electron system (eV)
  ---------------------------------------------------
  alpha Z        PSCENC =       744.30564293
  Ewald energy   TEWEN  =    -14177.16774954
  -Hartree energ DENC   =     -6629.96357326
  -exchange      EXHF   =         0.00000000
  -V(xc)+E(xc)   XCENC  =       851.34289394
  PAW double counting   =     23162.39150058   -23622.26344370
  entropy T*S    EENTRO =        -0.02573650
  eigenvalues    EBANDS =      -589.79151532
  atomic energy  EATOM  =     20168.87094289
  ---------------------------------------------------
  free energy    TOTEN  =       -92.30565413 eV

  energy without entropy =      -92.27991763  energy(sigma->0) =      -92.29278588


--------------------------------------------------------------------------------------------------------




--------------------------------------- Iteration      1(   9)  ---------------------------------------


    POTLOK:  cpu time    0.0514: real time    0.0514
    SETDIJ:  cpu time    0.0129: real time    0.0129
    TRIAL :  cpu time   12.8317: real time   12.8380
    CORREC:  cpu time    4.4625: real time    4.4666
    CHARGE:  cpu time    0.4539: real time    0.4540
    --------------------------------------------
      LOOP:  cpu time   17.8167: real time   17.8272

 eigenvalue-minimisations  :     0
 total energy-change (2. order) : 0.2491356E+03  (-0.6345452E+02)
 number of electron     257.9999996 magnetization       6.0000001
 augmentation part       76.8745838 magnetization       1.5091398

 Free energy of the ion-electron system (eV)
  ---------------------------------------------------
  alpha Z        PSCENC =       744.30564293
  Ewald energy   TEWEN  =    -14177.16774954
  -Hartree energ DENC   =     -6653.54246605
  -exchange      EXHF   =         0.00000000
  -V(xc)+E(xc)   XCENC  =       829.96976869
  PAW double counting   =     28317.28206435   -28763.61781974
  entropy T*S    EENTRO =        -0.02592896
  eigenvalues    EBANDS =      -309.24469048
  atomic energy  EATOM  =     20168.87094289
  ---------------------------------------------------
  free energy    TOTEN  =       156.82995655 eV

  energy without entropy =      156.85588551  energy(sigma->0) =      156.84292103


--------------------------------------------------------------------------------------------------------




--------------------------------------- Iteration      1(  10)  ---------------------------------------


    POTLOK:  cpu time    0.0467: real time    0.0467
    SETDIJ:  cpu time    0.0129: real time    0.0129
    TRIAL :  cpu time   12.9625: real time   12.9706
    CORREC:  cpu time    4.3368: real time    4.3387
    CHARGE:  cpu time    0.5185: real time    0.5187
    --------------------------------------------
      LOOP:  cpu time   17.8818: real time   17.8920

 eigenvalue-minimisations  :     0
 total energy-change (2. order) : 0.3185095E+02  (-0.1116003E+03)
 number of electron     257.9999999 magnetization       6.0000000
 augmentation part       79.2527165 magnetization       1.3559676

 Free energy of the ion-electron system (eV)
  ---------------------------------------------------
  alpha Z        PSCENC =       744.30564293
  Ewald energy   TEWEN  =    -14177.16774954
  -Hartree energ DENC   =     -6727.23018792
  -exchange      EXHF   =         0.00000000
  -V(xc)+E(xc)   XCENC  =       825.60638968
  PAW double counting   =     31690.95550179   -32208.32795896
  entropy T*S    EENTRO =        -0.01717966
  eigenvalues    EBANDS =      -128.30574128
  atomic energy  EATOM  =     20168.87094289
  ---------------------------------------------------
  free energy    TOTEN  =       188.68091063 eV

  energy without entropy =      188.69809029  energy(sigma->0) =      188.68950046


--------------------------------------------------------------------------------------------------------




--------------------------------------- Iteration      1(  11)  ---------------------------------------


    POTLOK:  cpu time    0.0486: real time    0.0486
    SETDIJ:  cpu time    0.0128: real time    0.0128
    TRIAL :  cpu time   12.7579: real time   12.7609
    CORREC:  cpu time    4.3873: real time    4.3899
    CHARGE:  cpu time    0.4591: real time    0.4592
    --------------------------------------------
      LOOP:  cpu time   17.6699: real time   17.6755

 eigenvalue-minimisations  :     0
 total energy-change (2. order) : 0.3104537E+02  (-0.6562579E+02)
 number of electron     258.0000001 magnetization       5.9999999
 augmentation part       79.7454642 magnetization       1.3859900

 Free energy of the ion-electron system (eV)
  ---------------------------------------------------
  alpha Z        PSCENC =       744.30564293
  Ewald energy   TEWEN  =    -14177.16774954
  -Hartree energ DENC   =     -6877.90005702
  -exchange      EXHF   =         0.00000000
  -V(xc)+E(xc)   XCENC  =       826.56691209
  PAW double counting   =     33209.73491544   -33819.18298464
  entropy T*S    EENTRO =        -0.02320981
  eigenvalues    EBANDS =       144.51583517
  atomic energy  EATOM  =     20168.87094289
  ---------------------------------------------------
  free energy    TOTEN  =       219.72627766 eV

  energy without entropy =      219.74948747  energy(sigma->0) =      219.73788257


--------------------------------------------------------------------------------------------------------




--------------------------------------- Iteration      1(  12)  ---------------------------------------


    POTLOK:  cpu time    0.0471: real time    0.0471
    SETDIJ:  cpu time    0.0129: real time    0.0129
    TRIAL :  cpu time   12.9319: real time   12.9534
    CORREC:  cpu time    4.3747: real time    4.3908
    CHARGE:  cpu time    0.4698: real time    0.4699
    --------------------------------------------
      LOOP:  cpu time   17.8409: real time   17.8785

 eigenvalue-minimisations  :     0
 total energy-change (2. order) : 0.5510189E+01  (-0.1268863E+03)
 number of electron     257.9999998 magnetization       6.0000000
 augmentation part       76.9006906 magnetization       1.2915875

 Free energy of the ion-electron system (eV)
  ---------------------------------------------------
  alpha Z        PSCENC =       744.30564293
  Ewald energy   TEWEN  =    -14177.16774954
  -Hartree energ DENC   =     -6969.27298995
  -exchange      EXHF   =         0.00000000
  -V(xc)+E(xc)   XCENC  =       828.25271162
  PAW double counting   =     32675.94673318   -33304.97214252
  entropy T*S    EENTRO =        -0.02185490
  eigenvalues    EBANDS =       259.29652759
  atomic energy  EATOM  =     20168.87094289
  ---------------------------------------------------
  free energy    TOTEN  =       225.23646639 eV

  energy without entropy =      225.25832129  energy(sigma->0) =      225.24739384


--------------------------------------------------------------------------------------------------------




--------------------------------------- Iteration      1(  13)  ---------------------------------------


    POTLOK:  cpu time    0.0479: real time    0.0479
    SETDIJ:  cpu time    0.0129: real time    0.0129
    TRIAL :  cpu time   12.7943: real time   12.8032
    CORREC:  cpu time    4.4678: real time    4.4698
    CHARGE:  cpu time    0.4493: real time    0.4494
    --------------------------------------------
      LOOP:  cpu time   17.7766: real time   17.7877

 eigenvalue-minimisations  :     0
 total energy-change (2. order) :-0.1509545E+03  (-0.1740074E+03)
 number of electron     257.9999997 magnetization       6.0000000
 augmentation part       71.3115495 magnetization       1.5200482

 Free energy of the ion-electron system (eV)
  ---------------------------------------------------
  alpha Z        PSCENC =       744.30564293
  Ewald energy   TEWEN  =    -14177.16774954
  -Hartree energ DENC   =     -6763.17435827
  -exchange      EXHF   =         0.00000000
  -V(xc)+E(xc)   XCENC  =       827.99793419
  PAW double counting   =     29356.70806522   -29874.50697877
  entropy T*S    EENTRO =        -0.01325905
  eigenvalues    EBANDS =      -208.72972083
  atomic energy  EATOM  =     20168.87094289
  ---------------------------------------------------
  free energy    TOTEN  =        74.28192292 eV

  energy without entropy =       74.29518197  energy(sigma->0) =       74.28855245


--------------------------------------------------------------------------------------------------------




--------------------------------------- Iteration      1(  14)  ---------------------------------------


    POTLOK:  cpu time    0.0474: real time    0.0474
    SETDIJ:  cpu time    0.0133: real time    0.0133
    TRIAL :  cpu time   12.3241: real time   12.3292
    CORREC:  cpu time    4.3728: real time    4.3744
    CHARGE:  cpu time    0.4586: real time    0.4586
    --------------------------------------------
      LOOP:  cpu time   17.2207: real time   17.2282

 eigenvalue-minimisations  :     0
 total energy-change (2. order) :-0.1574962E+03  (-0.8312928E+02)
 number of electron     257.9999997 magnetization       6.0000000
 augmentation part       75.3286107 magnetization       2.9141242

 Free energy of the ion-electron system (eV)
  ---------------------------------------------------
  alpha Z        PSCENC =       744.30564293
  Ewald energy   TEWEN  =    -14177.16774954
  -Hartree energ DENC   =     -6419.72347677
  -exchange      EXHF   =         0.00000000
  -V(xc)+E(xc)   XCENC  =       836.42325736
  PAW double counting   =     23740.63412630   -24053.56238224
  entropy T*S    EENTRO =        -0.02335251
  eigenvalues    EBANDS =      -922.98141462
  atomic energy  EATOM  =     20168.87094289
  ---------------------------------------------------
  free energy    TOTEN  =       -83.21431273 eV

  energy without entropy =      -83.19096022  energy(sigma->0) =      -83.20263648


--------------------------------------------------------------------------------------------------------




--------------------------------------- Iteration      1(  15)  ---------------------------------------


    POTLOK:  cpu time    0.0465: real time    0.0465
    SETDIJ:  cpu time    0.0129: real time    0.0129
    TRIAL :  cpu time   12.6882: real time   12.6915
    CORREC:  cpu time    4.4231: real time    4.4248
    CHARGE:  cpu time    0.4659: real time    0.4660
    --------------------------------------------
      LOOP:  cpu time   17.6410: real time   17.6461

 eigenvalue-minimisations  :     0
 total energy-change (2. order) :-0.8538846E+02  (-0.1682916E+02)
 number of electron     257.9999997 magnetization       6.0000000
 augmentation part       76.4754433 magnetization       3.1801161

 Free energy of the ion-electron system (eV)
  ---------------------------------------------------
  alpha Z        PSCENC =       744.30564293
  Ewald energy   TEWEN  =    -14177.16774954
  -Hartree energ DENC   =     -6772.71816304
  -exchange      EXHF   =         0.00000000
  -V(xc)+E(xc)   XCENC  =       851.03675109
  PAW double counting   =     23353.86709324   -23777.40350921
  entropy T*S    EENTRO =        -0.02212238
  eigenvalues    EBANDS =      -559.37042556
  atomic energy  EATOM  =     20168.87094289
  ---------------------------------------------------
  free energy    TOTEN  =      -168.60276971 eV

  energy without entropy =     -168.58064733  energy(sigma->0) =     -168.59170852


--------------------------------------------------------------------------------------------------------




--------------------------------------- Iteration      1(  16)  ---------------------------------------


    POTLOK:  cpu time    0.0472: real time    0.0472
    SETDIJ:  cpu time    0.0130: real time    0.0130
    TRIAL :  cpu time   12.6264: real time   12.6312
    CORREC:  cpu time    4.5184: real time    4.5202
    CHARGE:  cpu time    0.4638: real time    0.4638
    --------------------------------------------
      LOOP:  cpu time   17.6734: real time   17.6805

 eigenvalue-minimisations  :     0
 total energy-change (2. order) :-0.1573865E+02  (-0.7828438E+01)
 number of electron     257.9999997 magnetization       6.0000000
 augmentation part       77.1507038 magnetization       3.3669118

 Free energy of the ion-electron system (eV)
  ---------------------------------------------------
  alpha Z        PSCENC =       744.30564293
  Ewald energy   TEWEN  =    -14177.16774954
  -Hartree energ DENC   =     -6878.38351645
  -exchange      EXHF   =         0.00000000
  -V(xc)+E(xc)   XCENC  =       853.28402013
  PAW double counting   =     23634.10762254   -24095.65721798
  entropy T*S    EENTRO =        -0.02301406
  eigenvalues    EBANDS =      -433.67903710
  atomic energy  EATOM  =     20168.87094289
  ---------------------------------------------------
  free energy    TOTEN  =      -184.34141496 eV

  energy without entropy =     -184.31840090  energy(sigma->0) =     -184.32990793


--------------------------------------------------------------------------------------------------------




--------------------------------------- Iteration      1(  17)  ---------------------------------------


    POTLOK:  cpu time    0.0471: real time    0.0471
    SETDIJ:  cpu time    0.0129: real time    0.0129
    TRIAL :  cpu time   12.4219: real time   12.4254
    CORREC:  cpu time    4.4926: real time    4.4944
    CHARGE:  cpu time    0.4580: real time    0.4581
    --------------------------------------------
      LOOP:  cpu time   17.4367: real time   17.4423

 eigenvalue-minimisations  :     0
 total energy-change (2. order) :-0.8323523E+01  (-0.8614178E+01)
 number of electron     257.9999998 magnetization       6.0000000
 augmentation part       77.0799727 magnetization       3.7136713

 Free energy of the ion-electron system (eV)
  ---------------------------------------------------
  alpha Z        PSCENC =       744.30564293
  Ewald energy   TEWEN  =    -14177.16774954
  -Hartree energ DENC   =     -6904.96009247
  -exchange      EXHF   =         0.00000000
  -V(xc)+E(xc)   XCENC  =       852.96547221
  PAW double counting   =     23785.88144671   -24274.65201899
  entropy T*S    EENTRO =        -0.01844653
  eigenvalues    EBANDS =      -387.88556767
  atomic energy  EATOM  =     20168.87094289
  ---------------------------------------------------
  free energy    TOTEN  =      -192.66493797 eV

  energy without entropy =     -192.64649144  energy(sigma->0) =     -192.65571471


--------------------------------------------------------------------------------------------------------




--------------------------------------- Iteration      1(  18)  ---------------------------------------


    POTLOK:  cpu time    0.0464: real time    0.0464
    SETDIJ:  cpu time    0.0129: real time    0.0129
    TRIAL :  cpu time   12.8089: real time   12.8121
    CORREC:  cpu time    4.3723: real time    4.3744
    CHARGE:  cpu time    0.4598: real time    0.4599
    --------------------------------------------
      LOOP:  cpu time   17.7047: real time   17.7101

 eigenvalue-minimisations  :     0
 total energy-change (2. order) :-0.8668590E+01  (-0.5983543E+01)
 number of electron     257.9999997 magnetization       6.0000000
 augmentation part       76.5663724 magnetization       3.9693052

 Free energy of the ion-electron system (eV)
  ---------------------------------------------------
  alpha Z        PSCENC =       744.30564293
  Ewald energy   TEWEN  =    -14177.16774954
  -Hartree energ DENC   =     -6867.35866915
  -exchange      EXHF   =         0.00000000
  -V(xc)+E(xc)   XCENC  =       849.99424922
  PAW double counting   =     23827.54167288   -24322.26385944
  entropy T*S    EENTRO =        -0.01838740
  eigenvalues    EBANDS =      -425.23731088
  atomic energy  EATOM  =     20168.87094289
  ---------------------------------------------------
  free energy    TOTEN  =      -201.33352761 eV

  energy without entropy =     -201.31514022  energy(sigma->0) =     -201.32433392


--------------------------------------------------------------------------------------------------------




--------------------------------------- Iteration      1(  19)  ---------------------------------------


    POTLOK:  cpu time    0.0476: real time    0.0476
    SETDIJ:  cpu time    0.0131: real time    0.0131
    TRIAL :  cpu time   12.7617: real time   12.7649
    CORREC:  cpu time    4.4911: real time    4.4927
    CHARGE:  cpu time    0.4524: real time    0.4524
    --------------------------------------------
      LOOP:  cpu time   17.7703: real time   17.7750

 eigenvalue-minimisations  :     0
 total energy-change (2. order) :-0.5651744E+01  (-0.2879814E+01)
 number of electron     257.9999997 magnetization       6.0000000
 augmentation part       75.9985204 magnetization       4.1295886

 Free energy of the ion-electron system (eV)
  ---------------------------------------------------
  alpha Z        PSCENC =       744.30564293
  Ewald energy   TEWEN  =    -14177.16774954
  -Hartree energ DENC   =     -6784.63583771
  -exchange      EXHF   =         0.00000000
  -V(xc)+E(xc)   XCENC  =       847.37912795
  PAW double counting   =     23809.67998665   -24293.18725873
  entropy T*S    EENTRO =        -0.01611921
  eigenvalues    EBANDS =      -522.21173838
  atomic energy  EATOM  =     20168.87094289
  ---------------------------------------------------
  free energy    TOTEN  =      -206.98527133 eV

  energy without entropy =     -206.96915212  energy(sigma->0) =     -206.97721173


--------------------------------------------------------------------------------------------------------




--------------------------------------- Iteration      1(  20)  ---------------------------------------


    POTLOK:  cpu time    0.0542: real time    0.0542
    SETDIJ:  cpu time    0.0126: real time    0.0134
    TRIAL :  cpu time   12.7308: real time   12.7372
    CORREC:  cpu time    4.3328: real time    4.3344
    CHARGE:  cpu time    0.4583: real time    0.4583
    --------------------------------------------
      LOOP:  cpu time   17.5931: real time   17.6021

 eigenvalue-minimisations  :     0
 total energy-change (2. order) :-0.2728076E+01  (-0.2519199E+01)
 number of electron     257.9999997 magnetization       6.0000001
 augmentation part       75.6233893 magnetization       4.2221527

 Free energy of the ion-electron system (eV)
  ---------------------------------------------------
  alpha Z        PSCENC =       744.30564293
  Ewald energy   TEWEN  =    -14177.16774954
  -Hartree energ DENC   =     -6743.80922123
  -exchange      EXHF   =         0.00000000
  -V(xc)+E(xc)   XCENC  =       846.84079694
  PAW double counting   =     23717.09315303   -24182.71164963
  entropy T*S    EENTRO =        -0.01510512
  eigenvalues    EBANDS =      -583.11914324
  atomic energy  EATOM  =     20168.87094289
  ---------------------------------------------------
  free energy    TOTEN  =      -209.71334706 eV

  energy without entropy =     -209.69824194  energy(sigma->0) =     -209.70579450


--------------------------------------------------------------------------------------------------------




--------------------------------------- Iteration      1(  21)  ---------------------------------------


    POTLOK:  cpu time    0.0469: real time    0.0469
    SETDIJ:  cpu time    0.0129: real time    0.0129
    TRIAL :  cpu time   12.5096: real time   12.5183
    CORREC:  cpu time    4.3547: real time    4.3565
    CHARGE:  cpu time    0.4756: real time    0.4756
    --------------------------------------------
      LOOP:  cpu time   17.4040: real time   17.4145

 eigenvalue-minimisations  :     0
 total energy-change (2. order) :-0.2603589E+01  (-0.2075329E+01)
 number of electron     257.9999997 magnetization       6.0000001
 augmentation part       75.6382461 magnetization       4.2405145

 Free energy of the ion-electron system (eV)
  ---------------------------------------------------
  alpha Z        PSCENC =       744.30564293
  Ewald energy   TEWEN  =    -14177.16774954
  -Hartree energ DENC   =     -6734.33020408
  -exchange      EXHF   =         0.00000000
  -V(xc)+E(xc)   XCENC  =       847.90203626
  PAW double counting   =     23571.67392306   -24024.20222920
  entropy T*S    EENTRO =        -0.01915436
  eigenvalues    EBANDS =      -609.35419283
  atomic energy  EATOM  =     20168.87094289
  ---------------------------------------------------
  free energy    TOTEN  =      -212.31693562 eV

  energy without entropy =     -212.29778126  energy(sigma->0) =     -212.30735844


--------------------------------------------------------------------------------------------------------




--------------------------------------- Iteration      1(  22)  ---------------------------------------


    POTLOK:  cpu time    0.0474: real time    0.0474
    SETDIJ:  cpu time    0.0128: real time    0.0128
    TRIAL :  cpu time   12.7536: real time   12.7710
    CORREC:  cpu time    4.3727: real time    4.3753
    CHARGE:  cpu time    0.5138: real time    0.5139
    --------------------------------------------
      LOOP:  cpu time   17.7048: real time   17.7248

 eigenvalue-minimisations  :     0
 total energy-change (2. order) :-0.2174180E+01  (-0.1469391E+01)
 number of electron     257.9999997 magnetization       6.0000001
 augmentation part       75.7409531 magnetization       4.2426855

 Free energy of the ion-electron system (eV)
  ---------------------------------------------------
  alpha Z        PSCENC =       744.30564293
  Ewald energy   TEWEN  =    -14177.16774954
  -Hartree energ DENC   =     -6767.84534186
  -exchange      EXHF   =         0.00000000
  -V(xc)+E(xc)   XCENC  =       849.55785529
  PAW double counting   =     23453.72442011   -23906.76271643
  entropy T*S    EENTRO =        -0.02478757
  eigenvalues    EBANDS =      -579.15501420
  atomic energy  EATOM  =     20168.87094289
  ---------------------------------------------------
  free energy    TOTEN  =      -214.49111516 eV

  energy without entropy =     -214.46632759  energy(sigma->0) =     -214.47872138


--------------------------------------------------------------------------------------------------------




--------------------------------------- Iteration      1(  23)  ---------------------------------------


    POTLOK:  cpu time    0.0491: real time    0.0491
    SETDIJ:  cpu time    0.0129: real time    0.0129
    TRIAL :  cpu time   12.6726: real time   12.6764
    CORREC:  cpu time    4.3258: real time    4.3276
    CHARGE:  cpu time    0.4741: real time    0.4742
    --------------------------------------------
      LOOP:  cpu time   17.5387: real time   17.5444

 eigenvalue-minimisations  :     0
 total energy-change (2. order) :-0.1310477E+01  (-0.8372243E+00)
 number of electron     257.9999997 magnetization       6.0000001
 augmentation part       75.8483484 magnetization       4.2280785

 Free energy of the ion-electron system (eV)
  ---------------------------------------------------
  alpha Z        PSCENC =       744.30564293
  Ewald energy   TEWEN  =    -14177.16774954
  -Hartree energ DENC   =     -6788.14607480
  -exchange      EXHF   =         0.00000000
  -V(xc)+E(xc)   XCENC  =       850.33230215
  PAW double counting   =     23411.46146024   -23868.50264438
  entropy T*S    EENTRO =        -0.02609280
  eigenvalues    EBANDS =      -556.93068373
  atomic energy  EATOM  =     20168.87094289
  ---------------------------------------------------
  free energy    TOTEN  =      -215.80159181 eV

  energy without entropy =     -215.77549901  energy(sigma->0) =     -215.78854541


--------------------------------------------------------------------------------------------------------




--------------------------------------- Iteration      1(  24)  ---------------------------------------


    POTLOK:  cpu time    0.1279: real time    0.1279
    SETDIJ:  cpu time    0.0127: real time    0.0127
    TRIAL :  cpu time   12.5802: real time   12.5833
    CORREC:  cpu time    4.2998: real time    4.3014
    CHARGE:  cpu time    0.5012: real time    0.5013
    --------------------------------------------
      LOOP:  cpu time   17.5262: real time   17.5310

 eigenvalue-minimisations  :     0
 total energy-change (2. order) :-0.7764741E+00  (-0.4944305E+00)
 number of electron     257.9999997 magnetization       6.0000001
 augmentation part       75.9619844 magnetization       4.2022656

 Free energy of the ion-electron system (eV)
  ---------------------------------------------------
  alpha Z        PSCENC =       744.30564293
  Ewald energy   TEWEN  =    -14177.16774954
  -Hartree energ DENC   =     -6797.93090847
  -exchange      EXHF   =         0.00000000
  -V(xc)+E(xc)   XCENC  =       850.61670461
  PAW double counting   =     23392.26606823   -23853.53539779
  entropy T*S    EENTRO =        -0.02727089
  eigenvalues    EBANDS =      -543.97727602
  atomic energy  EATOM  =     20168.87094289
  ---------------------------------------------------
  free energy    TOTEN  =      -216.57806596 eV

  energy without entropy =     -216.55079507  energy(sigma->0) =     -216.56443051


--------------------------------------------------------------------------------------------------------




--------------------------------------- Iteration      1(  25)  ---------------------------------------


    POTLOK:  cpu time    0.0488: real time    0.0488
    SETDIJ:  cpu time    0.0129: real time    0.0129
    TRIAL :  cpu time   12.5220: real time   12.5253
    CORREC:  cpu time    4.5856: real time    4.5882
    CHARGE:  cpu time    0.4615: real time    0.4635
    --------------------------------------------
      LOOP:  cpu time   17.6354: real time   17.6437

 eigenvalue-minimisations  :     0
 total energy-change (2. order) :-0.5781014E+00  (-0.7672068E+00)
[...]
   20        1.565   3.441   0.000   5.006
   21        1.582   3.314   0.000   4.896
   22        1.575   3.338   0.000   4.913
   23        1.568   3.383   0.000   4.950
   24        1.575   3.405   0.000   4.981
   25        1.563   3.414   0.000   4.977
   26        1.576   3.372   0.000   4.949
   27        1.565   3.424   0.000   4.989
   28        1.567   3.399   0.000   4.967
   29        1.575   3.442   0.000   5.017
   30        1.575   3.402   0.000   4.978
   31        1.575   3.414   0.000   4.989
   32        1.577   3.359   0.000   4.936
   33        1.565   3.415   0.000   4.980
   34        1.565   3.429   0.000   4.994
   35        1.571   3.440   0.000   5.011
   36        1.569   3.395   0.000   4.963
   37        1.575   3.386   0.000   4.961
   38        1.568   3.395   0.000   4.963
   39        1.569   3.393   0.000   4.962
   40        1.564   3.410   0.000   4.975
   41        1.574   3.427   0.000   5.001
   42        1.571   3.428   0.000   4.999
--------------------------------------------------
tot         43.445  90.850  87.235 221.531
 


 magnetization (x)
 
# of ion       s       p       d       tot
------------------------------------------
    1        0.002   0.001   0.000   0.003
    2        0.001   0.001   0.000   0.002
    3        0.000  -0.001   0.000  -0.001
    4        0.001   0.001   0.000   0.002
    5        0.001   0.000   0.000   0.001
    6       -0.000  -0.002   0.000  -0.002
    7        0.003   0.003   0.003   0.010
    8        0.012   0.015   1.327   1.353
    9        0.004   0.004   0.027   0.035
   10        0.012   0.015   1.388   1.415
   11        0.012   0.016   1.304   1.332
   12        0.013   0.015   1.340   1.368
   13        0.003   0.003   0.001   0.007
   14        0.002   0.003  -0.012  -0.006
   15        0.011   0.014   1.237   1.263
   16        0.006   0.007  -0.008   0.005
   17        0.014   0.014   1.526   1.554
   18        0.002   0.003  -0.010  -0.004
   19        0.000  -0.089   0.000  -0.088
   20        0.001  -0.023   0.000  -0.023
   21        0.000  -0.134   0.000  -0.134
   22       -0.001  -0.111   0.000  -0.112
   23       -0.000  -0.086   0.000  -0.086
   24        0.000  -0.111   0.000  -0.111
   25        0.000  -0.058   0.000  -0.057
   26        0.000  -0.101   0.000  -0.101
   27       -0.000  -0.053   0.000  -0.053
   28       -0.000  -0.072   0.000  -0.072
   29        0.001  -0.051   0.000  -0.050
   30        0.001  -0.102   0.000  -0.102
   31        0.001  -0.103   0.000  -0.102
   32        0.001  -0.114   0.000  -0.114
   33       -0.000  -0.066   0.000  -0.066
   34       -0.000  -0.051   0.000  -0.051
   35        0.000  -0.083   0.000  -0.083
   36        0.000  -0.041   0.000  -0.041
   37        0.000  -0.168   0.000  -0.168
   38       -0.000  -0.107   0.000  -0.107
   39        0.000  -0.149   0.000  -0.149
   40       -0.000  -0.058   0.000  -0.058
   41        0.001  -0.068   0.000  -0.067
   42        0.000  -0.028   0.000  -0.028
--------------------------------------------------
tot          0.105  -1.916   8.124   6.314
 
    FORLOC:  cpu time    0.0088: real time    0.0088
    FORNL :  cpu time    4.1526: real time    4.1587
    STRESS:  cpu time   12.4534: real time   12.4706
    FORCOR:  cpu time    0.0494: real time    0.0494
    OFIELD:  cpu time    0.0004: real time    0.0004

  DFT-D2 method for vdW energy calculation
  -------------------------------------------------------------------

  Parameters of vdW forcefield:
         C6(Jnm^6/mol)     R0(A)
   -----------------------------
   Li       1.610          0.825
   Co      10.800          1.562
   O        0.700          1.342

  IVDW =   1
  VDW_RADIUS =    50.000 A
  VDW_S6 =     0.750
  VDW_SR =     1.000
  VDW_D =    20.000
  LVDW_EWALD = F

  Number of pair interactions contributing to vdW energy: 1201112
  Edisp (eV):   -9.47218
    FORVDW:  cpu time    0.1756: real time    0.1774

  FORCE on cell =-STRESS in cart. coord.  units (eV):
  Direction    XX          YY          ZZ          XY          YZ          ZX
  --------------------------------------------------------------------------------------
  Alpha Z   744.30564   744.30564   744.30564
  Ewald   -1961.76171 -2120.15951-10095.31435   -28.93265   -48.23847    28.35944
  Hartree  4304.80955  4230.73737 -1749.90089    -3.16117   -14.95517    17.18947
  E(xc)   -1282.52578 -1282.63220 -1283.78065     0.11430    -0.35222    -0.13330
  Local   -7292.42987 -7060.58025  6861.35812    30.88043    49.47381   -50.61303
  n-local  -596.96989  -597.56162  -603.89296     0.66268    -1.69985    -0.79553
  augment  2022.63552  2019.57144  2006.10434    -1.41261     7.06825     3.76609
  Kinetic  4058.82023  4067.68092  4116.17401     2.18458    10.76065    -0.54915
  Fock        0.00000     0.00000     0.00000     0.00000     0.00000     0.00000
  vdW        -5.86142    -5.61942   -13.24245    -0.00983    -0.21622    -0.04862
  -------------------------------------------------------------------------------------
  Total      -8.97773    -4.25762   -18.18918     0.32573     1.84078    -2.82463
  in kB     -36.51856   -17.31867   -73.98784     1.32496     7.48771   -11.48971
  external pressure =      -42.61 kB  Pullay stress =        0.00 kB


 VOLUME and BASIS-vectors are now :
 -----------------------------------------------------------------------------
  energy-cutoff  :      600.00
  volume of cell :      393.88
      direct lattice vectors                 reciprocal lattice vectors
     5.679175377  0.000000000  0.000000000     0.176081902  0.105723373 -0.003373337
    -2.898159742  4.826874733  0.000000000     0.000000000  0.207173390 -0.003598382
     0.125424087  0.249565959 14.368521690     0.000000000  0.000000000  0.069596582

  length of vectors
     5.679175377  5.630102093 14.371236201     0.205410923  0.207204637  0.069596582


 FORCES acting on ions:
    Electron-Ion                     Ewald-Force                    Non-Local-Force
 -----------------------------------------------------------------------------------------------
   -.131E+01 -.511E+00 -.354E+01   0.154E+01 0.513E+00 0.376E+01   0.143E+00 -.323E+00 0.104E+00
   0.615E+01 0.440E+01 -.984E+01   -.593E+01 -.408E+01 0.101E+02   -.109E+01 -.891E+00 0.472E+00
   -.947E+00 0.338E+01 0.131E+02   0.835E+00 -.312E+01 -.132E+02   0.923E-01 -.655E+00 -.539E+00
   -.404E+01 -.105E+01 0.404E+01   0.355E+01 0.948E+00 -.409E+01   0.584E+00 -.390E-01 -.512E-02
   0.169E+01 0.478E+00 -.444E+01   -.151E+01 -.214E+00 0.437E+01   -.210E+00 0.325E-01 0.206E+00
   0.456E+00 0.404E+00 -.210E+01   -.278E+00 -.540E+00 0.210E+01   0.342E-01 -.137E+00 -.180E-02
   0.285E+01 -.135E+02 0.680E+02   -.166E+01 0.144E+02 -.675E+02   -.142E+01 0.278E+00 -.694E+00
   -.641E+01 -.352E+02 0.149E+02   0.700E+01 0.373E+02 -.146E+02   0.602E-01 0.102E+01 0.183E+00
   0.229E+02 -.341E+00 0.698E+02   -.241E+02 -.640E+00 -.697E+02   0.240E+00 0.285E+00 -.214E+00
   -.230E+02 0.192E+02 0.184E+02   0.233E+02 -.194E+02 -.174E+02   0.741E+00 -.175E+00 0.567E+00
   -.445E+02 0.725E+02 0.100E+02   0.463E+02 -.748E+02 -.112E+02   0.345E+00 -.110E+01 -.414E+00
   -.579E+01 -.928E+01 0.349E+01   0.612E+01 0.104E+02 -.405E+01   0.564E+00 -.584E+00 -.399E+00
   0.237E+02 -.447E+02 -.128E+02   -.241E+02 0.439E+02 0.121E+02   -.350E+00 0.229E+01 0.631E+00
   0.182E+02 -.252E+01 0.866E+01   -.181E+02 0.294E+01 -.859E+01   -.109E+01 0.510E+00 0.861E+00
   0.958E+01 0.114E+02 -.404E+02   -.102E+02 -.118E+02 0.413E+02   -.425E+00 -.507E+00 0.696E-01
   -.945E+01 -.283E+01 -.789E+02   0.883E+01 0.242E+01 0.795E+02   0.711E-01 0.318E+00 0.978E+00
   0.960E+00 -.224E+02 -.176E+02   -.238E+00 0.223E+02 0.160E+02   -.736E-01 0.202E+00 -.187E+00
   0.877E+01 0.862E+01 -.432E+02   -.894E+01 -.794E+01 0.434E+02   -.644E+00 0.921E-01 0.275E+00
   -.325E+01 -.244E+01 -.278E+03   0.535E+01 0.405E+01 0.296E+03   -.275E+01 -.198E+01 -.186E+02
   0.140E+01 0.218E+02 -.274E+03   0.979E+00 -.235E+02 0.293E+03   -.324E+01 0.117E+01 -.191E+02
   0.132E+02 -.210E+02 -.270E+03   -.162E+02 0.211E+02 0.292E+03   0.299E+01 0.560E+00 -.238E+02
   -.306E+01 0.348E+01 -.254E+03   0.581E+00 -.502E+01 0.274E+03   0.290E+01 0.222E+01 -.222E+02
   -.185E+02 -.204E+02 0.316E+03   0.204E+02 0.211E+02 -.334E+03   -.984E+00 -.115E+01 0.194E+02
   0.277E+01 0.406E+02 0.344E+03   -.394E+01 -.452E+02 -.368E+03   0.104E+01 0.316E+01 0.229E+02
   -.681E+01 -.385E+02 0.314E+03   0.802E+01 0.429E+02 -.329E+03   -.563E+00 -.411E+01 0.168E+02
   0.159E+02 0.397E+02 0.331E+03   -.174E+02 -.427E+02 -.353E+03   0.102E+01 0.153E+01 0.227E+02
   -.497E+02 0.982E+01 -.306E+03   0.564E+02 -.767E+01 0.323E+03   -.593E+01 -.288E+01 -.180E+02
   -.261E+02 0.113E+01 -.309E+03   0.313E+02 -.227E+01 0.327E+03   -.511E+01 0.641E-01 -.192E+02
   0.533E+02 0.611E+01 -.335E+03   -.606E+02 -.683E+01 0.358E+03   0.535E+01 0.119E+01 -.222E+02
   0.776E+01 -.196E+02 -.323E+03   -.112E+02 0.201E+02 0.346E+03   0.442E+01 0.120E+01 -.217E+02
   0.585E+01 -.123E+02 0.336E+03   -.396E+01 0.159E+02 -.358E+03   -.277E+01 -.366E+01 0.220E+02
   0.122E+02 -.187E+02 0.314E+03   -.120E+02 0.215E+02 -.335E+03   -.122E+01 -.294E+01 0.231E+02
   0.457E+00 0.246E+02 0.310E+03   -.319E+01 -.279E+02 -.328E+03   0.329E+01 0.269E+01 0.187E+02
   0.379E+01 -.657E+01 0.313E+03   -.614E+01 0.570E+01 -.332E+03   0.254E+01 0.168E+01 0.186E+02
   0.169E+02 -.310E+02 -.348E+03   -.170E+02 0.367E+02 0.368E+03   -.999E+00 -.477E+01 -.191E+02
   -.402E+01 0.271E+02 -.350E+03   0.478E+01 -.308E+02 0.370E+03   -.787E+00 0.387E+01 -.206E+02
   -.474E+01 -.106E+02 -.351E+03   0.279E+01 0.143E+02 0.371E+03   0.245E+01 -.458E+01 -.218E+02
   -.759E+01 0.331E+02 -.332E+03   0.940E+01 -.403E+02 0.349E+03   -.168E+01 0.722E+01 -.181E+02
   0.294E+02 -.100E+02 0.281E+03   -.334E+02 0.100E+02 -.297E+03   0.442E+01 0.140E+01 0.174E+02
   0.258E+02 0.291E+02 0.274E+03   -.283E+02 -.309E+02 -.291E+03   0.173E+01 0.876E+00 0.188E+02
   -.415E+02 -.663E+00 0.304E+03   0.458E+02 0.119E+00 -.328E+03   -.272E+01 0.129E+00 0.231E+02
   -.220E+02 -.328E+02 0.294E+03   0.252E+02 0.372E+02 -.315E+03   -.228E+01 -.372E+01 0.213E+02
 -----------------------------------------------------------------------------------------------
   0.132E+01 0.150E+00 -.205E+01   -.853E-13 0.000E+00 0.512E-12   -.133E+01 -.189E+00 0.202E+01
 
 
 POSITION                                       TOTAL-FORCE (eV/Angst)
 -----------------------------------------------------------------------------------
      0.08465      0.40166     14.31766         0.293270     -0.254639      0.212506
      3.17690      0.45615     14.26136        -0.781518     -0.494095      0.658568
      4.39041      1.11291      4.93672        -0.065614     -0.385257     -0.493905
      2.73269      3.36722      4.80555         0.132586     -0.120497     -0.062173
      0.05862      1.75437      9.56983         0.026682      0.231779      0.105614
     -1.49014      4.23150      9.53326         0.178782     -0.208354     -0.035468
      0.03292      1.63446      2.43511        -0.152041      0.971349     -0.124644
     -1.46022      4.01795      2.46510         0.537500      2.735723      0.411566
      2.84531      1.70782      2.40253        -0.831139     -0.644336      0.064608
      1.34858      4.12688      2.42813         0.855906     -0.271795      1.388753
      0.07279      0.21657      7.23100         1.825961     -2.807186     -1.376849
     -1.37257      2.56779      7.20758         0.762346      0.562461     -0.861530
      0.07866      4.91990      7.19078        -0.629151      1.115139     -0.142022
      1.51747      2.49865      7.13870        -0.807779      0.886853      0.790037
      1.48810      0.96941     11.91156        -1.033479     -0.810359      0.884909
      0.05465      3.40249     11.91876        -0.593397     -0.115985      1.267094
      4.27865      0.97354     11.96796         0.687764     -0.069377     -1.377082
      2.90868      3.34431     11.93066        -0.666819      0.815852      0.416974
      2.81289      4.87232      3.48423        -0.626313     -0.302588     -0.785884
     -1.37435      2.46359      3.43238        -0.887202     -0.429902     -0.214512
     -0.01209      4.84069      3.56657         0.044150      0.690953     -2.029366
      1.42804      2.43020      3.56026         0.362306      0.622989     -2.235186
      1.36232      0.86012      1.34952         0.994344     -0.350626      1.451999
     -0.01881      3.39805      1.51957        -0.126988     -1.395433     -0.760113
      4.19120      0.84191      1.28091         0.609285      0.394981      1.694147
      2.83420      3.47873      1.37877        -0.534567     -1.659387      0.798117
      1.38947      0.98557      8.30989         0.835312     -0.696610     -1.283065
     -0.00551      3.42425      8.28253         0.192552     -1.022058     -1.006255
      4.45031      0.94152      8.12377        -2.023006      0.426123      0.976343
      2.86146      3.22379      8.11466         0.889860      1.711016      0.583109
      0.09933      1.75866      6.21781        -0.813002     -0.043654      0.028240
     -1.31951      4.16416      6.18700        -1.069747     -0.142572      1.075441
      2.93374      1.78743      6.08003         0.491988     -0.676391      1.243970
      1.50109      4.13164      6.18733         0.128063      0.819143      0.209937
      0.09636      1.67112     12.82156        -1.046148      0.987599      0.686166
     -1.38419      4.21187     12.98006         0.041950      0.135875     -0.903296
      2.86131      1.82824     13.00666         0.511371     -0.767628     -1.162214
      1.43718      4.24468     13.03256         0.122145     -0.047853     -1.092455
      2.79712      4.87135     10.88806         0.366060      1.378019      0.533406
     -1.28051      2.67140     10.82026        -0.866755     -1.073899      1.423647
      2.81294      0.23448     10.99546         1.638356     -0.388463     -0.374422
      1.40024      2.52132     10.98796         1.026128      0.693089     -0.584712
 -----------------------------------------------------------------------------------
    total drift:                               -0.016587     -0.039280     -0.032862


--------------------------------------------------------------------------------------------------------



  FREE ENERGIE OF THE ION-ELECTRON SYSTEM (eV)
  ---------------------------------------------------
  free  energy   TOTEN  =      -233.82182922 eV

  energy  without entropy=     -233.82182922  energy(sigma->0) =     -233.82182922
 


--------------------------------------------------------------------------------------------------------


    POTLOK:  cpu time    0.0636: real time    0.0636


--------------------------------------------------------------------------------------------------------


     LOOP+:  cpu time 3368.0251: real time 3378.3777
    4ORBIT:  cpu time    0.0000: real time    0.0000
 


 total charge     
 
# of ion       s       p       d       tot
------------------------------------------
    1        0.087   0.180   0.000   0.267
    2        0.099   0.210   0.000   0.310
    3        0.085   0.178   0.000   0.263
    4        0.088   0.184   0.000   0.272
    5        0.089   0.186   0.000   0.275
    6        0.089   0.183   0.000   0.271
    7        0.402   0.606   7.296   8.305
    8        0.458   0.721   7.209   8.388
    9        0.378   0.546   7.256   8.180
   10        0.448   0.698   7.199   8.345
   11        0.474   0.745   7.265   8.483
   12        0.461   0.729   7.227   8.417
   13        0.405   0.603   7.305   8.313
   14        0.435   0.687   7.364   8.485
   15        0.488   0.811   7.285   8.583
   16        0.423   0.654   7.354   8.431
   17        0.431   0.651   7.169   8.251
   18        0.412   0.633   7.308   8.353
   19        1.566   3.417   0.000   4.983
   20        1.565   3.441   0.000   5.006
   21        1.582   3.314   0.000   4.896
   22        1.575   3.338   0.000   4.913
   23        1.568   3.383   0.000   4.950
   24        1.575   3.405   0.000   4.981
   25        1.563   3.414   0.000   4.977
   26        1.576   3.372   0.000   4.949
   27        1.565   3.424   0.000   4.989
   28        1.567   3.399   0.000   4.967
   29        1.575   3.442   0.000   5.017
   30        1.575   3.402   0.000   4.978
   31        1.575   3.414   0.000   4.989
   32        1.577   3.359   0.000   4.936
   33        1.565   3.415   0.000   4.980
   34        1.565   3.429   0.000   4.994
   35        1.571   3.440   0.000   5.011
   36        1.569   3.395   0.000   4.963
   37        1.575   3.386   0.000   4.961
   38        1.568   3.395   0.000   4.963
   39        1.569   3.393   0.000   4.962
   40        1.564   3.410   0.000   4.975
   41        1.574   3.427   0.000   5.001
   42        1.571   3.428   0.000   4.999
--------------------------------------------------
tot         43.445  90.850  87.235 221.531
 


 magnetization (x)
 
# of ion       s       p       d       tot
------------------------------------------
    1        0.002   0.001   0.000   0.003
    2        0.001   0.001   0.000   0.002
    3        0.000  -0.001   0.000  -0.001
    4        0.001   0.001   0.000   0.002
    5        0.001   0.000   0.000   0.001
    6       -0.000  -0.002   0.000  -0.002
    7        0.003   0.003   0.003   0.010
    8        0.012   0.015   1.327   1.353
    9        0.004   0.004   0.027   0.035
   10        0.012   0.015   1.388   1.415
   11        0.012   0.016   1.304   1.332
   12        0.013   0.015   1.340   1.368
   13        0.003   0.003   0.001   0.007
   14        0.002   0.003  -0.012  -0.006
   15        0.011   0.014   1.237   1.263
   16        0.006   0.007  -0.008   0.005
   17        0.014   0.014   1.526   1.554
   18        0.002   0.003  -0.010  -0.004
   19        0.000  -0.089   0.000  -0.088
   20        0.001  -0.023   0.000  -0.023
   21        0.000  -0.134   0.000  -0.134
   22       -0.001  -0.111   0.000  -0.112
   23       -0.000  -0.086   0.000  -0.086
   24        0.000  -0.111   0.000  -0.111
   25        0.000  -0.058   0.000  -0.057
   26        0.000  -0.101   0.000  -0.101
   27       -0.000  -0.053   0.000  -0.053
   28       -0.000  -0.072   0.000  -0.072
   29        0.001  -0.051   0.000  -0.050
   30        0.001  -0.102   0.000  -0.102
   31        0.001  -0.103   0.000  -0.102
   32        0.001  -0.114   0.000  -0.114
   33       -0.000  -0.066   0.000  -0.066
   34       -0.000  -0.051   0.000  -0.051
   35        0.000  -0.083   0.000  -0.083
   36        0.000  -0.041   0.000  -0.041
   37        0.000  -0.168   0.000  -0.168
   38       -0.000  -0.107   0.000  -0.107
   39        0.000  -0.149   0.000  -0.149
   40       -0.000  -0.058   0.000  -0.058
   41        0.001  -0.068   0.000  -0.067
   42        0.000  -0.028   0.000  -0.028
--------------------------------------------------
tot          0.105  -1.916   8.124   6.314
 

 total amount of memory used by VASP MPI-rank0   159305. kBytes
=======================================================================

   base      :      30000. kBytes
   nonlr-proj:       4299. kBytes
   fftplans  :       1688. kBytes
   grid      :       4644. kBytes
   one-center:        342. kBytes
   wavefun   :     118332. kBytes
 
  
  
 General timing and accounting informations for this job:
 ========================================================
  
                  Total CPU time used (sec):     3393.610
                            User time (sec):     3142.455
                          System time (sec):      251.155
                         Elapsed time (sec):     3404.464
  
                   Maximum memory used (kb):      852696.
                   Average memory used (kb):           0.
  
                          Minor page faults:        71044
                          Major page faults:           61
                 Voluntary context switches:          575
