       N       E                     dE             d eps       ncg     rms          ort
DAV:   1     0.358832499168E+04    0.35883E+04   -0.14093E+05  5760   0.229E+03
DAV:   2     0.409637331732E+03   -0.31787E+04   -0.29286E+04  5760   0.565E+02
DAV:   3    -0.220851146970E+03   -0.63049E+03   -0.56441E+03  5760   0.261E+02
DAV:   4    -0.271292255529E+03   -0.50441E+02   -0.49515E+02  5760   0.764E+01
DAV:   5    -0.272811479449E+03   -0.15192E+01   -0.15168E+01  5760   0.131E+01
SDA:   6     0.141783972743E+03    0.41460E+03   -0.15168E+01  5760   0.446E+04 0.000E+00
CGA:   7     0.258372097661E+02   -0.11595E+03   -0.16900E+03  5760   0.201E+04 0.139E+04
CGA:   8    -0.116217877579E+03   -0.14206E+03   -0.92471E+02  5760   0.371E+04 0.173E+04
CGA:   9    -0.134991831646E+03   -0.18774E+02   -0.11291E+03  5760   0.133E+04-0.344E+02
CGA:  10    -0.165633506236E+03   -0.30642E+02   -0.40788E+02  5760   0.996E+03 0.408E+03
CGA:  11    -0.150524730784E+03    0.15109E+02   -0.46984E+02  5760   0.428E+04-0.134E+04
CGA:  12    -0.180989672369E+03   -0.30465E+02   -0.11552E+03  5760   0.593E+03-0.257E+03
CGA:  13    -0.202724102169E+03   -0.21734E+02   -0.10931E+02  5760   0.360E+03-0.668E+02
CGA:  14    -0.197157164021E+03    0.55669E+01   -0.70199E+01  5760   0.907E+03-0.625E+03
CGA:  15    -0.178000458039E+03    0.19157E+02   -0.44794E+02  5760   0.803E+03-0.265E+03
CGA:  16    -0.192311850869E+03   -0.14311E+02   -0.41018E+02  5760   0.362E+03 0.571E+01
CGA:  17    -0.207706517323E+03   -0.15395E+02   -0.12497E+02  5760   0.399E+03 0.288E+02
CGA:  18    -0.201651825665E+03    0.60547E+01   -0.81287E+01  5760   0.679E+03-0.767E+03
CGA:  19    -0.201395489032E+03    0.25634E+00   -0.28705E+02  5760   0.662E+03-0.624E+03
CGA:  20    -0.212996032416E+03   -0.11601E+02   -0.20954E+02  5760   0.146E+03-0.312E+03
CGA:  21    -0.216202163970E+03   -0.32061E+01   -0.38346E+01  5760   0.411E+01-0.236E+01
CGA:  22    -0.216586645084E+03   -0.38448E+00   -0.39418E+00  5760   0.808E+01 0.190E+00
CGA:  23    -0.217851304963E+03   -0.12647E+01   -0.12366E+01  5760   0.181E+01 0.511E+00
CGA:  24    -0.217969528022E+03   -0.11822E+00   -0.12474E+00  5760   0.849E+00-0.201E-01
CGA:  25    -0.218051256843E+03   -0.81729E-01   -0.81773E-01  5760   0.711E+00-0.150E-02
CGA:  26    -0.218188225758E+03   -0.13697E+00   -0.12958E+00  5760   0.761E+00 0.786E-01
CGA:  27    -0.218288467035E+03   -0.10024E+00   -0.10063E+00  5760   0.137E+01-0.403E-01
CGA:  28    -0.218451195884E+03   -0.16273E+00   -0.16262E+00  5760   0.147E+01 0.391E-02
CGA:  29    -0.218589791017E+03   -0.13860E+00   -0.13569E+00  5760   0.187E+01-0.418E-01
CGA:  30    -0.218747889826E+03   -0.15810E+00   -0.15834E+00  5760   0.163E+01 0.268E-01
CGA:  31    -0.218892060980E+03   -0.14417E+00   -0.15007E+00  5760   0.213E+01 0.156E+00
CGA:  32    -0.219120529627E+03   -0.22847E+00   -0.23232E+00  5760   0.155E+01 0.148E+00
CGA:  33    -0.219249311437E+03   -0.12878E+00   -0.12317E+00  5760   0.128E+01 0.202E-01
CGA:  34    -0.219395000264E+03   -0.14569E+00   -0.14524E+00  5760   0.167E+01 0.819E-01
CGA:  35    -0.219534810516E+03   -0.13981E+00   -0.14161E+00  5760   0.908E+00 0.167E-01
CGA:  36    -0.219697564223E+03   -0.16275E+00   -0.16523E+00  5760   0.773E+00-0.335E-01
CGA:  37    -0.219796030461E+03   -0.98466E-01   -0.97345E-01  5760   0.124E+01 0.397E-01
CGA:  38    -0.219935770152E+03   -0.13974E+00   -0.13885E+00  5760   0.720E+00-0.768E-01
CGA:  39    -0.220038947764E+03   -0.10318E+00   -0.10391E+00  5760   0.493E+00-0.454E-01
CGA:  40    -0.220103923725E+03   -0.64976E-01   -0.64014E-01  5760   0.388E+00 0.491E-01
CGA:  41    -0.220158402864E+03   -0.54479E-01   -0.54205E-01  5760   0.342E+00-0.398E-01
CGA:  42    -0.220200785880E+03   -0.42383E-01   -0.42632E-01  5760   0.282E+00-0.793E-02
CGA:  43    -0.220239675334E+03   -0.38889E-01   -0.37744E-01  5760   0.197E+00 0.375E-01
CGA:  44    -0.220274610997E+03   -0.34936E-01   -0.34634E-01  5760   0.170E+00 0.114E-01
CGA:  45    -0.220310254207E+03   -0.35643E-01   -0.35165E-01  5760   0.157E+00 0.483E-02
CGA:  46    -0.220333344005E+03   -0.23090E-01   -0.23029E-01  5760   0.947E-01 0.192E-02
CGA:  47    -0.220349987669E+03   -0.16644E-01   -0.16671E-01  5760   0.776E-01-0.342E-03
CGA:  48    -0.220361927300E+03   -0.11940E-01   -0.11935E-01  5760   0.525E-01 0.135E-03
CGA:  49    -0.220370866816E+03   -0.89395E-02   -0.89394E-02  5760   0.466E-01-0.837E-04
SDA:  50    -0.220379285045E+03   -0.84182E-02   -0.84100E-02  5760   0.375E-01 0.195E-03
CGA:  51    -0.220387966511E+03   -0.86815E-02   -0.87189E-02  5760   0.325E-01-0.350E-03
CGA:  52    -0.220401059751E+03   -0.13093E-01   -0.12990E-01  5760   0.180E-01 0.424E-03
CGA:  53    -0.220405852547E+03   -0.47928E-02   -0.47941E-02  5760   0.135E-01 0.254E-04
CGA:  54    -0.220409898435E+03   -0.40459E-02   -0.40536E-02  5760   0.809E-02-0.490E-04
CGA:  55    -0.220412296503E+03   -0.23981E-02   -0.24044E-02  5760   0.596E-02-0.493E-04
CGA:  56    -0.220414322794E+03   -0.20263E-02   -0.20227E-02  5760   0.578E-02 0.358E-04
CGA:  57    -0.220416714970E+03   -0.23922E-02   -0.24063E-02  5760   0.644E-02-0.608E-04
CGA:  58    -0.220419272097E+03   -0.25571E-02   -0.25709E-02  5760   0.990E-02-0.615E-04
CGA:  59    -0.220423954657E+03   -0.46826E-02   -0.46783E-02  5760   0.979E-02 0.157E-04
CGA:  60    -0.220427807912E+03   -0.38533E-02   -0.38562E-02  5760   0.804E-02-0.191E-04
CGA:  61    -0.220431245201E+03   -0.34373E-02   -0.34385E-02  5760   0.698E-02-0.454E-05
CGA:  62    -0.220433411990E+03   -0.21668E-02   -0.21651E-02  5760   0.575E-02 0.222E-04
CGA:  63    -0.220435746151E+03   -0.23342E-02   -0.23309E-02  5760   0.537E-02 0.202E-04
CGA:  64    -0.220437372309E+03   -0.16262E-02   -0.16260E-02  5760   0.390E-02 0.108E-04
CGA:  65    -0.220439023024E+03   -0.16507E-02   -0.16533E-02  5760   0.343E-02-0.140E-04
CGA:  66    -0.220440209722E+03   -0.11867E-02   -0.11880E-02  5760   0.266E-02-0.136E-04
CGA:  67    -0.220441065040E+03   -0.85532E-03   -0.85642E-03  5760   0.195E-02-0.151E-04
CGA:  68    -0.220441735825E+03   -0.67079E-03   -0.67081E-03  5760   0.121E-02-0.229E-06
CGA:  69    -0.220442153245E+03   -0.41742E-03   -0.41776E-03  5760   0.690E-03-0.549E-05
CGA:  70    -0.220442360025E+03   -0.20678E-03   -0.20656E-03  5760   0.485E-03 0.787E-05
CGA:  71    -0.220442550528E+03   -0.19050E-03   -0.18971E-03  5760   0.375E-03 0.734E-05
CGA:  72    -0.220442682266E+03   -0.13174E-03   -0.13157E-03  5760   0.469E-03 0.262E-05
CGA:  73    -0.220442901688E+03   -0.21942E-03   -0.21827E-03  5760   0.460E-03 0.644E-05
CGA:  74    -0.220443136510E+03   -0.23482E-03   -0.23417E-03  5760   0.652E-03 0.320E-05
CGA:  75    -0.220443428190E+03   -0.29168E-03   -0.29345E-03  5760   0.634E-03-0.125E-04
CGA:  76    -0.220443636905E+03   -0.20872E-03   -0.20896E-03  5760   0.505E-03-0.916E-05
CGA:  77    -0.220443816117E+03   -0.17921E-03   -0.17927E-03  5760   0.379E-03-0.962E-06
CGA:  78    -0.220443943922E+03   -0.12780E-03   -0.12792E-03  5760   0.294E-03-0.460E-05
CGA:  79    -0.220444042332E+03   -0.98410E-04   -0.98364E-04  5760   0.205E-03 0.190E-05
CGA:  80    -0.220444118806E+03   -0.76475E-04   -0.76087E-04  5760   0.175E-03 0.754E-05
SDA:  81    -0.220444169899E+03   -0.51093E-04   -0.51126E-04  5760   0.974E-04 0.834E-06
CGA:  82    -0.220444192242E+03   -0.22342E-04   -0.22377E-04  5760   0.734E-04 0.382E-06
CGA:  83    -0.220444221689E+03   -0.29447E-04   -0.29546E-04  5760   0.607E-04-0.112E-05
CGA:  84    -0.220444244087E+03   -0.22398E-04   -0.22409E-04  5760   0.593E-04-0.186E-06
CGA:  85    -0.220444267394E+03   -0.23307E-04   -0.23330E-04  5760   0.516E-04-0.312E-06
CGA:  86    -0.220444287353E+03   -0.19959E-04   -0.20006E-04  5760   0.541E-04-0.727E-06
CGA:  87    -0.220444305851E+03   -0.18497E-04   -0.18471E-04  5760   0.404E-04 0.133E-05
CGA:  88    -0.220444321209E+03   -0.15359E-04   -0.15334E-04  5760   0.288E-04 0.577E-06
CGA:  89    -0.220444330894E+03   -0.96845E-05   -0.96842E-05  5760   0.155E-04 0.744E-07
CGA:  90    -0.220444337425E+03   -0.65312E-05   -0.65255E-05  5760   0.122E-04 0.596E-07
CGA:  91    -0.220444341641E+03   -0.42157E-05   -0.42157E-05  5760   0.850E-05 0.759E-09
CGA:  92    -0.220444346051E+03   -0.44104E-05   -0.44531E-05  5760   0.965E-05-0.226E-06
CGA:  93    -0.220444349162E+03   -0.31108E-05   -0.31105E-05  5760   0.767E-05-0.845E-08
CGA:  94    -0.220444352089E+03   -0.29270E-05   -0.29157E-05  5760   0.702E-05 0.295E-06
CGA:  95    -0.220444354448E+03   -0.23596E-05   -0.23522E-05  5760   0.540E-05-0.298E-06
CGA:  96    -0.220444356408E+03   -0.19598E-05   -0.19645E-05  5760   0.447E-05-0.126E-06
CGA:  97    -0.220444357891E+03   -0.14826E-05   -0.14841E-05  5760   0.310E-05 0.243E-06
CGA:  98    -0.220444359324E+03   -0.14330E-05   -0.14915E-05  5760   0.457E-05-0.525E-06
CGA:  99    -0.220444360387E+03   -0.10631E-05   -0.10624E-05  5760   0.279E-05-0.856E-08
CGA: 100    -0.220444361351E+03   -0.96364E-06   -0.96472E-06  5760   0.232E-05 0.342E-06
   1 F= -.23213338E+03 E0= -.23213338E+03  d E =-.103137E-04  mag=     6.0000
