 running on   64 total cores
 distrk:  each k-point on   64 cores,    1 groups
 distr:  one band on    4 cores,   16 groups
 using from now: INCAR     
 vasp.5.4.4.18Apr17-6-g9f103f2a35 (build Nov 22 2021 14:44:17) complex          
  
 POSCAR found type information on POSCAR  Li Co O 
 POSCAR found :  3 types and      42 ions
 scaLAPACK will be used
 LDA part: xc-table for Pade appr. of Perdew
 generate k-points for:    6    6    2
 POSCAR, INCAR and KPOINTS ok, starting setup
 FFT: planning ...
 WAVECAR not read
 entering main loop
       N       E                     dE             d eps       ncg     rms          ort
DAV:   1     0.347438520793E+04    0.34744E+04   -0.13918E+05  5760   0.217E+03
DAV:   2     0.405506430174E+03   -0.30689E+04   -0.28286E+04  5760   0.531E+02
DAV:   3    -0.220712880561E+03   -0.62622E+03   -0.57123E+03  5760   0.253E+02
DAV:   4    -0.270892722239E+03   -0.50180E+02   -0.49129E+02  5760   0.740E+01
DAV:   5    -0.272626901196E+03   -0.17342E+01   -0.17312E+01  5760   0.137E+01
 gam= 0.000 g(H,U,f)=  0.185E+04 0.799E+03 0.189E+04 ort(H,U,f) = 0.000E+00 0.000E+00 0.000E+00
SDA:   6     0.116183453949E+03    0.38881E+03   -0.17312E+01  5760   0.454E+04 0.000E+00
 gam= 0.000 trial= 0.400  step= 0.065 mean= 0.400
 gam= 0.000 g(H,U,f)=  0.110E+04 0.832E+03 0.920E+03 ort(H,U,f) = 0.117E+04 0.659E+03 0.684E+03
CGA:   7     0.360389990548E+02   -0.80144E+02   -0.14860E+03  5760   0.285E+04 0.251E+04
 gam= 0.000 trial= 0.383  step= 0.028 mean= 0.383
 gam= 0.000 g(H,U,f)=  0.733E+03 0.924E+03 0.137E+04 ort(H,U,f) = 0.725E+03-0.660E+03-0.306E+04
CGA:   8    -0.516233247989E+02   -0.87662E+02   -0.39841E+02  5760   0.303E+04-0.300E+04
 gam= 0.000 trial= 0.366  step= 0.076 mean= 0.366
 gam= 0.601 g(H,U,f)=  0.480E+03 0.661E+03 0.679E+03 ort(H,U,f) = 0.355E+03 0.195E+03-0.244E+03
CGA:   9    -0.631584942641E+02   -0.11535E+02   -0.11490E+03  5760   0.182E+04 0.307E+03
 gam= 0.601 trial= 0.351  step= 0.025 mean= 0.351
 gam= 0.000 g(H,U,f)=  0.208E+03 0.690E+03 0.385E+03 ort(H,U,f) = 0.498E+03 0.148E+04 0.841E+03
CGA:  10    -0.147474750699E+03   -0.84316E+02   -0.24815E+02  5760   0.128E+04 0.282E+04
 gam= 0.000 trial= 0.335  step= 0.077 mean= 0.335
 gam= 0.000 g(H,U,f)=  0.228E+03 0.247E+04 0.555E+04 ort(H,U,f) = 0.460E+02-0.588E+03-0.177E+04
CGA:  11    -0.117082921212E+03    0.30392E+02   -0.49329E+02  5760   0.825E+04-0.231E+04
 gam= 0.000 trial= 0.322  step= 0.066 mean= 0.322
 gam= 0.200 g(H,U,f)=  0.264E+03 0.597E+03 0.793E+03 ort(H,U,f) =-0.144E+03-0.220E+03-0.386E+03
CGA:  12    -0.112761453808E+03    0.43215E+01   -0.27047E+03  5760   0.165E+04-0.750E+03
 gam= 0.200 trial= 0.309  step= 0.017 mean= 0.309
 gam= 0.000 g(H,U,f)=  0.208E+03 0.494E+03 0.304E+02 ort(H,U,f) = 0.205E+03 0.520E+03 0.112E+03
CGA:  13    -0.129615990219E+03   -0.16855E+02   -0.12621E+02  5760   0.732E+03 0.836E+03
 gam= 0.000 trial= 0.294  step= 0.007 mean= 0.294
 gam= 0.000 g(H,U,f)=  0.175E+03 0.233E+04 0.464E+03 ort(H,U,f) = 0.192E+03 0.252E+04 0.504E+03
CGA:  14    -0.140030976168E+03   -0.10415E+02   -0.25877E+01  5760   0.297E+04 0.322E+04
 gam= 0.000 trial= 0.280  step= 0.024 mean= 0.280
 gam= 0.034 g(H,U,f)=  0.206E+02 0.758E+02 0.608E+01 ort(H,U,f) = 0.246E+02 0.108E+02-0.136E+02
CGA:  15    -0.198088983501E+03   -0.58058E+02   -0.35653E+02  5760   0.102E+03 0.218E+02
 gam= 0.034 trial= 0.267  step= 0.113 mean= 0.267
 gam= 3.374 g(H,U,f)=  0.148E+02 0.199E+03 0.132E+03 ort(H,U,f) = 0.709E+01 0.394E+01-0.294E+02
CGA:  16    -0.202810248254E+03   -0.47213E+01   -0.58121E+01  5760   0.346E+03-0.184E+02
 gam= 3.374 trial= 0.260  step= 0.035 mean= 0.260
 gam= 0.491 g(H,U,f)=  0.159E+02 0.961E+02 0.576E+02 ort(H,U,f) =-0.804E+01 0.736E+02 0.167E+02
CGA:  17    -0.209291988446E+03   -0.64817E+01   -0.49763E+01  5760   0.170E+03 0.822E+02
 gam= 0.491 trial= 0.248  step= 0.044 mean= 0.248
 gam= 0.523 g(H,U,f)=  0.234E+02 0.486E+02 0.168E+02 ort(H,U,f) =-0.404E+01-0.546E+02-0.226E+02
CGA:  18    -0.211307116474E+03   -0.20151E+01   -0.45788E+01  5760   0.888E+02-0.813E+02
 gam= 0.523 trial= 0.238  step= 0.086 mean= 0.238
 gam= 0.497 g(H,U,f)=  0.277E+02 0.144E+02 0.210E+01 ort(H,U,f) = 0.169E+02-0.220E+02 0.627E+00
CGA:  19    -0.212890183053E+03   -0.15831E+01   -0.19987E+01  5760   0.442E+02-0.446E+01
 gam= 0.497 trial= 0.230  step= 0.108 mean= 0.230
 gam= 1.574 g(H,U,f)=  0.174E+02 0.324E+02 0.197E+02 ort(H,U,f) = 0.234E+02-0.159E+02-0.888E+01
CGA:  20    -0.215067214561E+03   -0.21770E+01   -0.22737E+01  5760   0.695E+02-0.137E+01
 gam= 1.574 trial= 0.224  step= 0.109 mean= 0.224
 gam= 0.232 g(H,U,f)=  0.372E+01 0.879E+01 0.361E+01 ort(H,U,f) =-0.324E+01 0.125E+01 0.906E+00
CGA:  21    -0.218567641917E+03   -0.35004E+01   -0.36736E+01  5760   0.161E+02-0.108E+01
 gam= 0.232 trial= 0.219  step= 0.097 mean= 0.219
 gam= 0.557 g(H,U,f)=  0.334E+01 0.459E+01 0.105E+01 ort(H,U,f) =-0.109E+01-0.137E+01-0.111E+01
CGA:  22    -0.218973154912E+03   -0.40551E+00   -0.76944E+00  5760   0.898E+01-0.357E+01
 gam= 0.557 trial= 0.213  step= 0.176 mean= 0.213
 gam= 0.520 g(H,U,f)=  0.199E+01 0.241E+01 0.261E+00 ort(H,U,f) = 0.188E+00-0.176E+00-0.144E+00
CGA:  23    -0.219596259767E+03   -0.62310E+00   -0.61605E+00  5760   0.467E+01-0.132E+00
 gam= 0.520 trial= 0.211  step= 0.183 mean= 0.211
 gam= 0.868 g(H,U,f)=  0.708E+00 0.256E+01 0.785E+00 ort(H,U,f) = 0.391E+00-0.172E+00-0.115E+00
CGA:  24    -0.220014211469E+03   -0.41795E+00   -0.42163E+00  5760   0.405E+01 0.104E+00
 gam= 0.868 trial= 0.209  step= 0.112 mean= 0.209
 gam= 0.516 g(H,U,f)=  0.511E+00 0.139E+01 0.185E+00 ort(H,U,f) =-0.130E+00 0.175E+00-0.218E+00
CGA:  25    -0.220212830126E+03   -0.19862E+00   -0.23096E+00  5760   0.209E+01-0.173E+00
 gam= 0.516 trial= 0.204  step= 0.225 mean= 0.204
 gam= 0.604 g(H,U,f)=  0.434E+00 0.800E+00 0.278E-01 ort(H,U,f) =-0.302E+00 0.302E+00 0.182E-02
CGA:  26    -0.220437671214E+03   -0.22484E+00   -0.22483E+00  5760   0.126E+01 0.172E-02
 gam= 0.604 trial= 0.205  step= 0.393 mean= 0.205
 gam= 1.508 g(H,U,f)=  0.611E+00 0.109E+01 0.202E+00 ort(H,U,f) =-0.257E+00 0.287E+00-0.591E-01
CGA:  27    -0.220683102525E+03   -0.24543E+00   -0.24807E+00  5760   0.190E+01-0.291E-01
 gam= 1.508 trial= 0.215  step= 0.221 mean= 0.215
 gam= 1.170 g(H,U,f)=  0.755E+00 0.116E+01 0.313E+00 ort(H,U,f) =-0.329E+00 0.470E+00-0.814E-01
CGA:  28    -0.220889076212E+03   -0.20597E+00   -0.20560E+00  5760   0.223E+01 0.604E-01
 gam= 1.170 trial= 0.215  step= 0.259 mean= 0.215
 gam= 0.582 g(H,U,f)=  0.606E+00 0.664E+00 0.241E-01 ort(H,U,f) =-0.491E+00 0.723E+00-0.207E-01
CGA:  29    -0.221193464591E+03   -0.30439E+00   -0.29725E+00  5760   0.129E+01 0.212E+00
 gam= 0.582 trial= 0.217  step= 0.357 mean= 0.217
 gam= 1.702 g(H,U,f)=  0.610E+00 0.104E+01 0.557E+00 ort(H,U,f) =-0.215E+00 0.230E+00-0.157E+00
CGA:  30    -0.221439106116E+03   -0.24564E+00   -0.25287E+00  5760   0.220E+01-0.142E+00
 gam= 1.702 trial= 0.224  step= 0.198 mean= 0.224
 gam= 0.894 g(H,U,f)=  0.834E+00 0.103E+01 0.106E+00 ort(H,U,f) =-0.341E+00 0.510E+00-0.100E+00
CGA:  31    -0.221630873108E+03   -0.19177E+00   -0.19418E+00  5760   0.197E+01 0.676E-01
 gam= 0.894 trial= 0.223  step= 0.304 mean= 0.223
 gam= 0.542 g(H,U,f)=  0.399E+00 0.539E+00 0.131E+00 ort(H,U,f) =-0.254E+00 0.260E+00-0.121E+00
CGA:  32    -0.221937199324E+03   -0.30633E+00   -0.30886E+00  5760   0.107E+01-0.116E+00
 gam= 0.542 trial= 0.227  step= 0.276 mean= 0.227
 gam= 0.904 g(H,U,f)=  0.315E+00 0.534E+00 0.118E+00 ort(H,U,f) =-0.937E-01 0.140E+00-0.296E-02
CGA:  33    -0.222078268110E+03   -0.14107E+00   -0.13894E+00  5760   0.967E+00 0.432E-01
 gam= 0.904 trial= 0.229  step= 0.382 mean= 0.229
 gam= 0.925 g(H,U,f)=  0.334E+00 0.413E+00 0.147E+00 ort(H,U,f) =-0.152E+00 0.262E+00 0.897E-01
CGA:  34    -0.222289046114E+03   -0.21078E+00   -0.19185E+00  5760   0.894E+00 0.199E+00
 gam= 0.925 trial= 0.237  step= 0.213 mean= 0.237
 gam= 1.107 g(H,U,f)=  0.276E+00 0.370E+00 0.343E+00 ort(H,U,f) = 0.224E-01 0.365E+00-0.409E+00
CGA:  35    -0.222403497911E+03   -0.11445E+00   -0.11490E+00  5760   0.989E+00-0.214E-01
 gam= 1.107 trial= 0.236  step= 0.206 mean= 0.236
 gam= 0.685 g(H,U,f)=  0.285E+00 0.339E+00 0.533E-01 ort(H,U,f) =-0.892E-01 0.139E+00-0.419E-01
CGA:  36    -0.222502695249E+03   -0.99197E-01   -0.99486E-01  5760   0.677E+00 0.786E-02
 gam= 0.685 trial= 0.234  step= 0.209 mean= 0.234
 gam= 1.618 g(H,U,f)=  0.281E+00 0.378E+00 0.437E+00 ort(H,U,f) =-0.428E-01 0.997E-01-0.821E-01
CGA:  37    -0.222574529114E+03   -0.71834E-01   -0.71452E-01  5760   0.110E+01-0.252E-01
 gam= 1.618 trial= 0.233  step= 0.141 mean= 0.233
 gam= 0.865 g(H,U,f)=  0.256E+00 0.209E+00 0.483E+00 ort(H,U,f) =-0.227E+00 0.205E+00 0.295E+00
CGA:  38    -0.222661628569E+03   -0.87099E-01   -0.74470E-01  5760   0.948E+00 0.273E+00
 gam= 0.865 trial= 0.229  step= 0.054 mean= 0.229
 gam= 0.000 g(H,U,f)=  0.233E+00 0.151E+00 0.240E+00 ort(H,U,f) =-0.719E-01 0.289E+00 0.507E+00
CGA:  39    -0.222703409592E+03   -0.41781E-01   -0.31936E-01  5760   0.624E+00 0.724E+00
 gam= 0.000 trial= 0.220  step= 0.210 mean= 0.220
 gam= 0.388 g(H,U,f)=  0.748E-01 0.138E+00 0.293E-01 ort(H,U,f) = 0.783E-01 0.607E-01 0.868E-02
CGA:  40    -0.222767712533E+03   -0.64303E-01   -0.65587E-01  5760   0.242E+00 0.148E+00
 gam= 0.388 trial= 0.219  step= 0.525 mean= 0.219
 gam= 3.205 g(H,U,f)=  0.177E+00 0.579E+00 0.196E-01 ort(H,U,f) =-0.294E-01-0.794E-01-0.240E-02
CGA:  41    -0.222822577279E+03   -0.54865E-01   -0.78598E-01  5760   0.775E+00-0.111E+00
 gam= 3.205 trial= 0.235  step= 0.067 mean= 0.235
 gam= 1.375 g(H,U,f)=  0.231E+00 0.831E+00 0.414E-02 ort(H,U,f) =-0.269E-01 0.179E+00 0.148E-02
CGA:  42    -0.222829630260E+03   -0.70530E-02   -0.13989E-01  5760   0.107E+01 0.154E+00
 gam= 1.375 trial= 0.226  step= 0.107 mean= 0.226
 gam= 0.273 g(H,U,f)=  0.179E+00 0.113E+00 0.734E-05 ort(H,U,f) =-0.392E+00 0.381E+00 0.261E-04
CGA:  43    -0.222897574011E+03   -0.67944E-01   -0.68369E-01  5760   0.292E+00-0.108E-01
 gam= 0.273 trial= 0.220  step= 0.149 mean= 0.220
 gam= 1.053 g(H,U,f)=  0.159E+00 0.148E+00 0.416E-05 ort(H,U,f) =-0.212E-01 0.388E-01-0.172E-05
CGA:  44    -0.222919174728E+03   -0.21601E-01   -0.21463E-01  5760   0.307E+00 0.176E-01
 gam= 1.053 trial= 0.217  step= 0.232 mean= 0.217
 gam= 0.834 g(H,U,f)=  0.120E+00 0.136E+00 0.115E-04 ort(H,U,f) =-0.776E-01 0.481E-01 0.124E-04
CGA:  45    -0.222956602860E+03   -0.37428E-01   -0.37766E-01  5760   0.256E+00-0.294E-01
 gam= 0.834 trial= 0.217  step= 0.171 mean= 0.217
 gam= 1.189 g(H,U,f)=  0.119E+00 0.185E+00 0.754E-05 ort(H,U,f) =-0.386E-01 0.585E-01 0.189E-04
CGA:  46    -0.222976579195E+03   -0.19976E-01   -0.19736E-01  5760   0.304E+00 0.199E-01
 gam= 1.189 trial= 0.215  step= 0.253 mean= 0.215
 gam= 0.529 g(H,U,f)=  0.103E+00 0.580E-01 0.618E-04 ort(H,U,f) =-0.717E-01 0.373E-01 0.223E-03
CGA:  47    -0.223017123857E+03   -0.40545E-01   -0.41521E-01  5760   0.161E+00-0.342E-01
 gam= 0.529 trial= 0.217  step= 0.230 mean= 0.217
 gam= 1.022 g(H,U,f)=  0.695E-01 0.951E-01 0.104E-04 ort(H,U,f) = 0.215E-01-0.595E-02 0.248E-04
CGA:  48    -0.223033519313E+03   -0.16395E-01   -0.16431E-01  5760   0.165E+00 0.155E-01
 gam= 1.022 trial= 0.218  step= 0.253 mean= 0.218
 gam= 0.482 g(H,U,f)=  0.434E-01 0.360E-01 0.441E-05 ort(H,U,f) =-0.294E-01 0.134E-01 0.371E-05
CGA:  49    -0.223055780854E+03   -0.22262E-01   -0.22797E-01  5760   0.794E-01-0.160E-01
 gam= 0.482 trial= 0.219  step= 0.380 mean= 0.219
 gam= 0.953 g(H,U,f)=  0.430E-01 0.327E-01 0.140E-04 ort(H,U,f) =-0.129E-01 0.141E-01 0.221E-04
CGA:  50    -0.223069507947E+03   -0.13727E-01   -0.13612E-01  5760   0.757E-01 0.126E-02
 gam= 0.953 trial= 0.227  step= 0.352 mean= 0.227
 gam= 1.099 g(H,U,f)=  0.317E-01 0.514E-01 0.433E-04 ort(H,U,f) =-0.141E-01 0.141E-01-0.217E-04
CGA:  51    -0.223082731655E+03   -0.13224E-01   -0.13529E-01  5760   0.832E-01-0.274E-04
 gam= 1.099 trial= 0.234  step= 0.236 mean= 0.234
 gam= 0.611 g(H,U,f)=  0.253E-01 0.255E-01 0.656E-05 ort(H,U,f) =-0.181E-01 0.131E-01 0.468E-05
CGA:  52    -0.223092511660E+03   -0.97800E-02   -0.97934E-02  5760   0.508E-01-0.501E-02
 gam= 0.611 trial= 0.234  step= 0.359 mean= 0.234
 gam= 0.872 g(H,U,f)=  0.256E-01 0.188E-01 0.212E-05 ort(H,U,f) =-0.102E-01 0.966E-02-0.117E-04
CGA:  53    -0.223101047520E+03   -0.85359E-02   -0.85759E-02  5760   0.443E-01-0.592E-03
 gam= 0.872 trial= 0.240  step= 0.438 mean= 0.240
 gam= 0.787 g(H,U,f)=  0.189E-01 0.160E-01 0.582E-05 ort(H,U,f) =-0.739E-02 0.711E-02 0.596E-06
CGA:  54    -0.223110617290E+03   -0.95698E-02   -0.95918E-02  5760   0.349E-01-0.286E-03
 gam= 0.787 trial= 0.250  step= 0.289 mean= 0.250
 gam= 0.751 g(H,U,f)=  0.130E-01 0.131E-01 0.101E-04 ort(H,U,f) =-0.138E-02 0.193E-02 0.979E-05
CGA:  55    -0.223115616212E+03   -0.49989E-02   -0.50167E-02  5760   0.262E-01 0.554E-03
 gam= 0.751 trial= 0.252  step= 0.260 mean= 0.252
 gam= 0.750 g(H,U,f)=  0.103E-01 0.931E-02 0.130E-04 ort(H,U,f) = 0.608E-03-0.101E-02-0.506E-05
CGA:  56    -0.223119069104E+03   -0.34529E-02   -0.34636E-02  5760   0.196E-01-0.403E-03
 gam= 0.750 trial= 0.252  step= 0.334 mean= 0.252
 gam= 0.605 g(H,U,f)=  0.647E-02 0.541E-02 0.622E-05 ort(H,U,f) =-0.171E-02 0.124E-02-0.530E-05
CGA:  57    -0.223122262903E+03   -0.31938E-02   -0.32303E-02  5760   0.119E-01-0.471E-03
 gam= 0.605 trial= 0.256  step= 0.406 mean= 0.256
 gam= 0.784 g(H,U,f)=  0.463E-02 0.470E-02 0.792E-07 ort(H,U,f) =-0.196E-02 0.194E-02-0.619E-06
CGA:  58    -0.223124615979E+03   -0.23531E-02   -0.23542E-02  5760   0.933E-02-0.144E-04
 gam= 0.784 trial= 0.264  step= 0.415 mean= 0.264
 gam= 0.962 g(H,U,f)=  0.422E-02 0.475E-02 0.747E-06 ort(H,U,f) =-0.247E-02 0.256E-02 0.132E-05
CGA:  59    -0.223126543113E+03   -0.19271E-02   -0.19330E-02  5760   0.897E-02 0.948E-04
 gam= 0.962 trial= 0.271  step= 0.402 mean= 0.271
 gam= 1.630 g(H,U,f)=  0.533E-02 0.928E-02 0.107E-04 ort(H,U,f) =-0.266E-02 0.276E-02 0.684E-05
CGA:  60    -0.223128345509E+03   -0.18024E-02   -0.18220E-02  5760   0.146E-01 0.112E-03
 gam= 1.630 trial= 0.278  step= 0.395 mean= 0.278
 gam= 1.113 g(H,U,f)=  0.804E-02 0.818E-02 0.497E-04 ort(H,U,f) =-0.707E-02 0.652E-02 0.455E-04
CGA:  61    -0.223131170144E+03   -0.28246E-02   -0.29268E-02  5760   0.163E-01-0.507E-03
 gam= 1.113 trial= 0.284  step= 0.357 mean= 0.284
 gam= 0.814 g(H,U,f)=  0.873E-02 0.450E-02 0.143E-04 ort(H,U,f) =-0.725E-02 0.732E-02 0.544E-04
CGA:  62    -0.223133976300E+03   -0.28062E-02   -0.28058E-02  5760   0.132E-01 0.131E-03
 gam= 0.814 trial= 0.287  step= 0.582 mean= 0.287
 gam= 1.556 g(H,U,f)=  0.113E-01 0.930E-02 0.116E-04 ort(H,U,f) =-0.412E-02 0.410E-02-0.476E-04
CGA:  63    -0.223137851090E+03   -0.38748E-02   -0.38852E-02  5760   0.206E-01-0.682E-04
 gam= 1.556 trial= 0.302  step= 0.542 mean= 0.302
 gam= 1.085 g(H,U,f)=  0.129E-01 0.942E-02 0.757E-05 ort(H,U,f) =-0.653E-02 0.626E-02 0.189E-04
CGA:  64    -0.223143360400E+03   -0.55093E-02   -0.55556E-02  5760   0.224E-01-0.251E-03
 gam= 1.085 trial= 0.314  step= 0.431 mean= 0.314
 gam= 0.928 g(H,U,f)=  0.122E-01 0.855E-02 0.384E-04 ort(H,U,f) =-0.463E-02 0.462E-02 0.146E-03
CGA:  65    -0.223148118656E+03   -0.47583E-02   -0.47550E-02  5760   0.208E-01 0.138E-03
 gam= 0.928 trial= 0.320  step= 0.430 mean= 0.320
 gam= 1.044 g(H,U,f)=  0.103E-01 0.113E-01 0.782E-05 ort(H,U,f) =-0.334E-02 0.355E-02 0.656E-04
CGA:  66    -0.223152599615E+03   -0.44810E-02   -0.44850E-02  5760   0.217E-01 0.278E-03
 gam= 1.044 trial= 0.325  step= 0.357 mean= 0.325
 gam= 1.059 g(H,U,f)=  0.109E-01 0.120E-01 0.146E-04 ort(H,U,f) =-0.395E-02 0.389E-02-0.152E-04
CGA:  67    -0.223156510777E+03   -0.39112E-02   -0.39212E-02  5760   0.229E-01-0.686E-04
 gam= 1.059 trial= 0.327  step= 0.369 mean= 0.327
 gam= 1.007 g(H,U,f)=  0.108E-01 0.123E-01 0.136E-04 ort(H,U,f) =-0.459E-02 0.406E-02-0.471E-04
CGA:  68    -0.223160683009E+03   -0.41722E-02   -0.42183E-02  5760   0.231E-01-0.576E-03
 gam= 1.007 trial= 0.329  step= 0.365 mean= 0.329
 gam= 0.790 g(H,U,f)=  0.930E-02 0.894E-02 0.948E-05 ort(H,U,f) =-0.671E-02 0.632E-02-0.234E-04
CGA:  69    -0.223164777896E+03   -0.40949E-02   -0.41079E-02  5760   0.182E-01-0.413E-03
 gam= 0.790 trial= 0.331  step= 0.389 mean= 0.331
 gam= 0.000 g(H,U,f)=  0.925E-02 0.696E-02 0.743E-05 ort(H,U,f) =-0.478E-02 0.484E-02-0.287E-04
SDA:  70    -0.223168264475E+03   -0.34866E-02   -0.34840E-02  5760   0.162E-01 0.344E-04
 gam= 0.000 trial= 0.334  step= 0.524 mean= 0.334
 gam= 0.762 g(H,U,f)=  0.469E-02 0.762E-02 0.450E-04 ort(H,U,f) = 0.712E-03-0.677E-03 0.106E-04
CGA:  71    -0.223172514024E+03   -0.42495E-02   -0.42503E-02  5760   0.124E-01 0.460E-04
 gam= 0.762 trial= 0.343  step= 0.610 mean= 0.343
 gam= 1.166 g(H,U,f)=  0.361E-02 0.108E-01 0.129E-04 ort(H,U,f) =-0.187E-02 0.219E-02 0.536E-05
CGA:  72    -0.223176240574E+03   -0.37266E-02   -0.37804E-02  5760   0.144E-01 0.326E-03
 gam= 1.166 trial= 0.357  step= 0.204 mean= 0.357
 gam= 0.575 g(H,U,f)=  0.310E-02 0.519E-02 0.241E-05 ort(H,U,f) =-0.233E-02 0.297E-02-0.104E-05
CGA:  73    -0.223177859400E+03   -0.16188E-02   -0.15092E-02  5760   0.829E-02 0.638E-03
 gam= 0.575 trial= 0.349  step= 0.669 mean= 0.349
 gam= 0.956 g(H,U,f)=  0.342E-02 0.450E-02 0.237E-05 ort(H,U,f) =-0.222E-02 0.171E-02 0.659E-05
CGA:  74    -0.223180629314E+03   -0.27699E-02   -0.28972E-02  5760   0.792E-02-0.503E-03
 gam= 0.956 trial= 0.365  step= 0.625 mean= 0.365
 gam= 0.809 g(H,U,f)=  0.284E-02 0.356E-02 0.540E-05 ort(H,U,f) =-0.128E-02 0.133E-02 0.145E-04
CGA:  75    -0.223182965057E+03   -0.23357E-02   -0.23259E-02  5760   0.641E-02 0.616E-04
 gam= 0.809 trial= 0.378  step= 0.600 mean= 0.378
 gam= 0.669 g(H,U,f)=  0.183E-02 0.246E-02 0.365E-05 ort(H,U,f) =-0.775E-03 0.790E-03-0.154E-04
CGA:  76    -0.223184903290E+03   -0.19382E-02   -0.19385E-02  5760   0.429E-02-0.712E-06
 gam= 0.669 trial= 0.389  step= 0.622 mean= 0.389
 gam= 0.995 g(H,U,f)=  0.170E-02 0.257E-02 0.472E-06 ort(H,U,f) =-0.326E-03 0.295E-03-0.170E-05
CGA:  77    -0.223186231895E+03   -0.13286E-02   -0.13329E-02  5760   0.427E-02-0.319E-04
 gam= 0.995 trial= 0.401  step= 0.671 mean= 0.401
 gam= 1.236 g(H,U,f)=  0.146E-02 0.381E-02 0.591E-06 ort(H,U,f) =-0.540E-03 0.481E-03-0.435E-08
CGA:  78    -0.223187641932E+03   -0.14100E-02   -0.14209E-02  5760   0.528E-02-0.586E-04
 gam= 1.236 trial= 0.414  step= 0.264 mean= 0.414
 gam= 0.925 g(H,U,f)=  0.138E-02 0.350E-02 0.107E-05 ort(H,U,f) =-0.429E-03 0.826E-03-0.254E-05
CGA:  79    -0.223188370449E+03   -0.72852E-03   -0.68668E-03  5760   0.488E-02 0.394E-03
 gam= 0.925 trial= 0.407  step= 0.516 mean= 0.407
 gam= 0.807 g(H,U,f)=  0.167E-02 0.227E-02 0.199E-05 ort(H,U,f) =-0.151E-02 0.122E-02-0.323E-05
CGA:  80    -0.223189688693E+03   -0.13182E-02   -0.13545E-02  5760   0.394E-02-0.293E-03
 gam= 0.807 trial= 0.412  step= 0.720 mean= 0.412
 gam= 2.199 g(H,U,f)=  0.227E-02 0.638E-02 0.614E-05 ort(H,U,f) =-0.101E-02 0.987E-03-0.434E-05
CGA:  81    -0.223190965399E+03   -0.12767E-02   -0.13319E-02  5760   0.866E-02-0.259E-04
 gam= 2.199 trial= 0.428  step= 0.280 mean= 0.428
 gam= 0.762 g(H,U,f)=  0.254E-02 0.405E-02 0.390E-05 ort(H,U,f) =-0.221E-02 0.240E-02-0.382E-05
CGA:  82    -0.223192244532E+03   -0.12791E-02   -0.12043E-02  5760   0.660E-02 0.192E-03
 gam= 0.762 trial= 0.420  step= 0.555 mean= 0.420
 gam= 0.846 g(H,U,f)=  0.257E-02 0.301E-02 0.227E-05 ort(H,U,f) =-0.158E-02 0.148E-02-0.744E-06
CGA:  83    -0.223194098724E+03   -0.18542E-02   -0.18715E-02  5760   0.558E-02-0.997E-04
 gam= 0.846 trial= 0.427  step= 0.650 mean= 0.427
 gam= 2.310 g(H,U,f)=  0.328E-02 0.960E-02 0.728E-05 ort(H,U,f) =-0.528E-03 0.725E-03-0.531E-06
CGA:  84    -0.223195829319E+03   -0.17306E-02   -0.17878E-02  5760   0.129E-01 0.197E-03
 gam= 2.310 trial= 0.438  step= 0.280 mean= 0.438
 gam= 0.572 g(H,U,f)=  0.283E-02 0.454E-02 0.470E-05 ort(H,U,f) =-0.227E-02 0.247E-02-0.772E-05
CGA:  85    -0.223197795633E+03   -0.19663E-02   -0.18699E-02  5760   0.738E-02 0.196E-03
 gam= 0.572 trial= 0.430  step= 0.679 mean= 0.430
 gam= 1.203 g(H,U,f)=  0.289E-02 0.598E-02 0.195E-05 ort(H,U,f) =-0.137E-02 0.118E-02-0.429E-05
CGA:  86    -0.223200249726E+03   -0.24541E-02   -0.25437E-02  5760   0.888E-02-0.197E-03
 gam= 1.203 trial= 0.443  step= 0.310 mean= 0.443
 gam= 0.953 g(H,U,f)=  0.284E-02 0.561E-02 0.911E-05 ort(H,U,f) =-0.109E-02 0.142E-02-0.679E-05
CGA:  87    -0.223201630822E+03   -0.13811E-02   -0.13393E-02  5760   0.846E-02 0.323E-03
 gam= 0.953 trial= 0.436  step= 0.455 mean= 0.436
 gam= 1.103 g(H,U,f)=  0.269E-02 0.664E-02 0.810E-05 ort(H,U,f) =-0.997E-03 0.939E-03 0.365E-05
CGA:  88    -0.223203613120E+03   -0.19823E-02   -0.19927E-02  5760   0.933E-02-0.541E-04
 gam= 1.103 trial= 0.437  step= 0.507 mean= 0.437
 gam= 1.097 g(H,U,f)=  0.338E-02 0.685E-02 0.317E-05 ort(H,U,f) =-0.205E-02 0.199E-02-0.565E-05
CGA:  89    -0.223205938938E+03   -0.23258E-02   -0.23518E-02  5760   0.102E-01-0.725E-04
 gam= 1.097 trial= 0.441  step= 0.279 mean= 0.441
 gam= 0.724 g(H,U,f)=  0.287E-02 0.454E-02 0.772E-05 ort(H,U,f) =-0.138E-02 0.177E-02-0.576E-05
CGA:  90    -0.223207422779E+03   -0.14838E-02   -0.14154E-02  5760   0.742E-02 0.390E-03
 gam= 0.724 trial= 0.432  step= 0.623 mean= 0.432
 gam= 1.547 g(H,U,f)=  0.401E-02 0.747E-02 0.282E-05 ort(H,U,f) =-0.854E-03 0.681E-03-0.207E-06
CGA:  91    -0.223209719014E+03   -0.22962E-02   -0.23980E-02  5760   0.115E-01-0.174E-03
 gam= 1.547 trial= 0.442  step= 0.389 mean= 0.442
 gam= 1.191 g(H,U,f)=  0.458E-02 0.909E-02 0.175E-05 ort(H,U,f) =-0.221E-02 0.240E-02-0.375E-06
CGA:  92    -0.223211936171E+03   -0.22172E-02   -0.21796E-02  5760   0.137E-01 0.196E-03
 gam= 1.191 trial= 0.439  step= 0.362 mean= 0.439
 gam= 0.737 g(H,U,f)=  0.411E-02 0.597E-02 0.963E-06 ort(H,U,f) =-0.301E-02 0.293E-02-0.296E-05
CGA:  93    -0.223214497658E+03   -0.25615E-02   -0.25141E-02  5760   0.101E-01-0.827E-04
 gam= 0.737 trial= 0.435  step= 0.550 mean= 0.435
 gam= 1.543 g(H,U,f)=  0.525E-02 0.103E-01 0.465E-05 ort(H,U,f) =-0.195E-02 0.186E-02 0.689E-06
CGA:  94    -0.223217198263E+03   -0.27006E-02   -0.27519E-02  5760   0.155E-01-0.890E-04
 gam= 1.543 trial= 0.441  step= 0.373 mean= 0.441
 gam= 1.146 g(H,U,f)=  0.591E-02 0.119E-01 0.904E-05 ort(H,U,f) =-0.380E-02 0.422E-02 0.825E-05
CGA:  95    -0.223220129976E+03   -0.29317E-02   -0.28719E-02  5760   0.178E-01 0.430E-03
 gam= 1.146 trial= 0.438  step= 0.415 mean= 0.438
 gam= 0.898 g(H,U,f)=  0.660E-02 0.938E-02 0.143E-04 ort(H,U,f) =-0.550E-02 0.502E-02 0.256E-04
CGA:  96    -0.223223968816E+03   -0.38388E-02   -0.38009E-02  5760   0.160E-01-0.460E-03
 gam= 0.898 trial= 0.437  step= 0.436 mean= 0.437
 gam= 1.262 g(H,U,f)=  0.704E-02 0.131E-01 0.423E-05 ort(H,U,f) =-0.488E-02 0.463E-02 0.144E-04
CGA:  97    -0.223227364815E+03   -0.33960E-02   -0.33953E-02  5760   0.202E-01-0.238E-03
 gam= 1.262 trial= 0.437  step= 0.333 mean= 0.437
 gam= 0.893 g(H,U,f)=  0.701E-02 0.110E-01 0.223E-05 ort(H,U,f) =-0.551E-02 0.558E-02-0.873E-05
CGA:  98    -0.223230778130E+03   -0.34133E-02   -0.33081E-02  5760   0.180E-01 0.564E-04
 gam= 0.893 trial= 0.431  step= 0.530 mean= 0.431
 gam= 1.123 g(H,U,f)=  0.845E-02 0.118E-01 0.926E-05 ort(H,U,f) =-0.589E-02 0.501E-02-0.354E-04
CGA:  99    -0.223235467718E+03   -0.46896E-02   -0.47947E-02  5760   0.203E-01-0.919E-03
 gam= 1.123 trial= 0.436  step= 0.393 mean= 0.436
 gam= 1.080 g(H,U,f)=  0.792E-02 0.139E-01 0.547E-05 ort(H,U,f) =-0.545E-02 0.545E-02-0.947E-05
CGA: 100    -0.223239283843E+03   -0.38161E-02   -0.37808E-02  5760   0.219E-01-0.172E-04
 gam= 1.080 trial= 0.434  step= 0.398 mean= 0.434
 gam= 0.000 g(H,U,f)=  0.810E-02 0.179E-01 0.445E-05 ort(H,U,f) =-0.517E-02 0.490E-02 0.242E-04
SDA: 101    -0.223243674496E+03   -0.43907E-02   -0.43442E-02  5760   0.260E-01-0.240E-03
 gam= 0.000 trial= 0.432  step= 0.267 mean= 0.432
 gam= 1.053 g(H,U,f)=  0.518E-02 0.222E-01 0.537E-05 ort(H,U,f) = 0.355E-02-0.147E-02 0.219E-05
CGA: 102    -0.223247244822E+03   -0.35703E-02   -0.34739E-02  5760   0.274E-01 0.209E-02
 gam= 1.053 trial= 0.424  step= 0.432 mean= 0.424
 gam= 1.188 g(H,U,f)=  0.822E-02 0.243E-01 0.245E-05 ort(H,U,f) =-0.185E-02 0.135E-02-0.441E-06
CGA: 103    -0.223253604905E+03   -0.63601E-02   -0.63804E-02  5760   0.325E-01-0.502E-03
 gam= 1.188 trial= 0.424  step= 0.515 mean= 0.424
 gam= 0.823 g(H,U,f)=  0.994E-02 0.168E-01 0.139E-05 ort(H,U,f) =-0.662E-02 0.574E-02 0.356E-05
CGA: 104    -0.223261600203E+03   -0.79953E-02   -0.82200E-02  5760   0.267E-01-0.880E-03
 gam= 0.823 trial= 0.429  step= 0.248 mean= 0.429
 gam= 0.671 g(H,U,f)=  0.674E-02 0.112E-01 0.317E-05 ort(H,U,f) =-0.577E-03 0.187E-02-0.505E-05
CGA: 105    -0.223265138216E+03   -0.35380E-02   -0.32281E-02  5760   0.179E-01 0.128E-02
 gam= 0.671 trial= 0.420  step= 0.352 mean= 0.420
 gam= 0.518 g(H,U,f)=  0.369E-02 0.561E-02 0.271E-05 ort(H,U,f) =-0.493E-03 0.353E-03-0.495E-05
CGA: 106    -0.223268476362E+03   -0.33381E-02   -0.33077E-02  5760   0.930E-02-0.145E-03
 gam= 0.518 trial= 0.417  step= 0.575 mean= 0.417
 gam= 1.376 g(H,U,f)=  0.347E-02 0.931E-02 0.130E-04 ort(H,U,f) =-0.905E-03 0.100E-02-0.160E-05
CGA: 107    -0.223271101105E+03   -0.26247E-02   -0.26533E-02  5760   0.128E-01 0.968E-04
 gam= 1.376 trial= 0.424  step= 0.342 mean= 0.424
 gam= 1.174 g(H,U,f)=  0.446E-02 0.105E-01 0.250E-04 ort(H,U,f) =-0.244E-02 0.325E-02 0.135E-04
CGA: 108    -0.223273374264E+03   -0.22732E-02   -0.22092E-02  5760   0.150E-01 0.818E-03
 gam= 1.174 trial= 0.420  step= 0.414 mean= 0.420
 gam= 0.949 g(H,U,f)=  0.565E-02 0.862E-02 0.139E-05 ort(H,U,f) =-0.485E-02 0.449E-02 0.441E-05
CGA: 109    -0.223276689307E+03   -0.33150E-02   -0.33090E-02  5760   0.143E-01-0.363E-03
 gam= 0.949 trial= 0.420  step= 0.699 mean= 0.420
 gam= 1.869 g(H,U,f)=  0.900E-02 0.176E-01 0.355E-04 ort(H,U,f) =-0.461E-02 0.450E-02-0.483E-04
CGA: 110    -0.223281386500E+03   -0.46972E-02   -0.48673E-02  5760   0.267E-01-0.157E-03
 gam= 1.869 trial= 0.434  step= 0.297 mean= 0.434
 gam= 0.838 g(H,U,f)=  0.925E-02 0.130E-01 0.633E-04 ort(H,U,f) =-0.725E-02 0.825E-02-0.757E-04
CGA: 111    -0.223285518140E+03   -0.41316E-02   -0.39124E-02  5760   0.223E-01 0.923E-03
 gam= 0.838 trial= 0.427  step= 0.438 mean= 0.427
 gam= 0.693 g(H,U,f)=  0.768E-02 0.780E-02 0.245E-05 ort(H,U,f) =-0.485E-02 0.456E-02-0.320E-06
CGA: 112    -0.223290563499E+03   -0.50454E-02   -0.50570E-02  5760   0.155E-01-0.291E-03
 gam= 0.693 trial= 0.428  step= 0.436 mean= 0.428
 gam= 1.457 g(H,U,f)=  0.756E-02 0.150E-01 0.546E-05 ort(H,U,f) =-0.293E-03 0.605E-03 0.542E-07
CGA: 113    -0.223293887423E+03   -0.33239E-02   -0.33311E-02  5760   0.226E-01 0.311E-03
 gam= 1.457 trial= 0.428  step= 0.324 mean= 0.428
 gam= 0.631 g(H,U,f)=  0.567E-02 0.855E-02 0.130E-04 ort(H,U,f) =-0.187E-02 0.209E-02-0.465E-05
CGA: 114    -0.223297727785E+03   -0.38404E-02   -0.37298E-02  5760   0.142E-01 0.219E-03
 gam= 0.631 trial= 0.423  step= 0.418 mean= 0.423
 gam= 0.940 g(H,U,f)=  0.476E-02 0.863E-02 0.314E-05 ort(H,U,f) =-0.650E-03 0.555E-03 0.458E-05
CGA: 115    -0.223300735758E+03   -0.30080E-02   -0.30044E-02  5760   0.134E-01-0.896E-04
 gam= 0.940 trial= 0.423  step= 0.361 mean= 0.423
 gam= 0.915 g(H,U,f)=  0.399E-02 0.826E-02 0.365E-05 ort(H,U,f) =-0.149E-02 0.175E-02-0.650E-05
CGA: 116    -0.223303164505E+03   -0.24287E-02   -0.24005E-02  5760   0.123E-01 0.255E-03
 gam= 0.915 trial= 0.420  step= 0.338 mean= 0.420
 gam= 0.819 g(H,U,f)=  0.364E-02 0.636E-02 0.242E-04 ort(H,U,f) =-0.150E-02 0.167E-02-0.604E-05
CGA: 117    -0.223305346246E+03   -0.21817E-02   -0.21111E-02  5760   0.100E-01 0.173E-03
 gam= 0.819 trial= 0.415  step= 0.510 mean= 0.415
 gam= 1.322 g(H,U,f)=  0.430E-02 0.895E-02 0.113E-04 ort(H,U,f) =-0.198E-02 0.193E-02 0.777E-05
CGA: 118    -0.223307889072E+03   -0.25428E-02   -0.25952E-02  5760   0.133E-01-0.383E-04
 gam= 1.322 trial= 0.420  step= 0.297 mean= 0.420
 gam= 0.728 g(H,U,f)=  0.379E-02 0.586E-02 0.802E-06 ort(H,U,f) =-0.249E-02 0.273E-02 0.578E-05
CGA: 119    -0.223309946503E+03   -0.20574E-02   -0.19592E-02  5760   0.964E-02 0.238E-03
 gam= 0.728 trial= 0.414  step= 0.433 mean= 0.414
 gam= 0.791 g(H,U,f)=  0.347E-02 0.416E-02 0.471E-05 ort(H,U,f) =-0.150E-02 0.143E-02-0.132E-04
CGA: 120    -0.223312064029E+03   -0.21175E-02   -0.21232E-02  5760   0.763E-02-0.823E-04
 gam= 0.791 trial= 0.415  step= 0.370 mean= 0.415
 gam= 1.126 g(H,U,f)=  0.330E-02 0.529E-02 0.460E-05 ort(H,U,f) = 0.300E-05 0.223E-03-0.631E-05
CGA: 121    -0.223313481074E+03   -0.14170E-02   -0.13989E-02  5760   0.860E-02 0.220E-03
 gam= 1.126 trial= 0.413  step= 0.369 mean= 0.413
 gam= 0.849 g(H,U,f)=  0.275E-02 0.455E-02 0.181E-05 ort(H,U,f) = 0.698E-04-0.667E-04-0.174E-05
CGA: 122    -0.223315133430E+03   -0.16524E-02   -0.16300E-02  5760   0.730E-02 0.132E-05
 gam= 0.849 trial= 0.411  step= 0.343 mean= 0.411
 gam= 0.594 g(H,U,f)=  0.193E-02 0.240E-02 0.109E-06 ort(H,U,f) =-0.202E-03 0.189E-03-0.229E-06
CGA: 123    -0.223316407710E+03   -0.12743E-02   -0.12524E-02  5760   0.433E-02-0.140E-04
 gam= 0.594 trial= 0.407  step= 0.310 mean= 0.407
 gam= 0.783 g(H,U,f)=  0.148E-02 0.191E-02 0.977E-06 ort(H,U,f) = 0.402E-03-0.306E-03-0.248E-06
CGA: 124    -0.223317089652E+03   -0.68194E-03   -0.67009E-03  5760   0.339E-02 0.961E-04
 gam= 0.783 trial= 0.402  step= 0.390 mean= 0.402
 gam= 0.925 g(H,U,f)=  0.123E-02 0.190E-02 0.184E-05 ort(H,U,f) = 0.218E-03-0.168E-03 0.211E-07
CGA: 125    -0.223317768653E+03   -0.67900E-03   -0.67686E-03  5760   0.314E-02 0.502E-04
 gam= 0.925 trial= 0.402  step= 0.343 mean= 0.402
 gam= 0.711 g(H,U,f)=  0.829E-03 0.140E-02 0.696E-06 ort(H,U,f) =-0.145E-03 0.155E-03 0.595E-06
CGA: 126    -0.223318326672E+03   -0.55802E-03   -0.54586E-03  5760   0.223E-02 0.108E-04
 gam= 0.711 trial= 0.399  step= 0.275 mean= 0.399
 gam= 0.601 g(H,U,f)=  0.614E-03 0.727E-03 0.499E-06 ort(H,U,f) =-0.828E-04 0.977E-04-0.252E-06
CGA: 127    -0.223318643923E+03   -0.31725E-03   -0.30721E-03  5760   0.134E-02 0.147E-04
 gam= 0.601 trial= 0.393  step= 0.423 mean= 0.393
 gam= 0.888 g(H,U,f)=  0.492E-03 0.697E-03 0.861E-06 ort(H,U,f) =-0.523E-04 0.472E-04 0.283E-06
CGA: 128    -0.223318928017E+03   -0.28409E-03   -0.28545E-03  5760   0.119E-02-0.475E-05
 gam= 0.888 trial= 0.394  step= 0.366 mean= 0.394
 gam= 0.936 g(H,U,f)=  0.385E-03 0.729E-03 0.131E-06 ort(H,U,f) =-0.952E-04 0.126E-03-0.890E-07
CGA: 129    -0.223319146321E+03   -0.21830E-03   -0.21684E-03  5760   0.111E-02 0.303E-04
 gam= 0.936 trial= 0.393  step= 0.289 mean= 0.393
 gam= 0.608 g(H,U,f)=  0.317E-03 0.360E-03 0.299E-06 ort(H,U,f) =-0.151E-03 0.157E-03 0.193E-06
CGA: 130    -0.223319319546E+03   -0.17322E-03   -0.16522E-03  5760   0.677E-03 0.649E-05
 gam= 0.608 trial= 0.387  step= 0.402 mean= 0.387
 gam= 0.978 g(H,U,f)=  0.263E-03 0.399E-03 0.455E-06 ort(H,U,f) =-0.575E-04 0.510E-04 0.959E-07
CGA: 131    -0.223319456155E+03   -0.13661E-03   -0.13688E-03  5760   0.662E-03-0.650E-05
 gam= 0.978 trial= 0.388  step= 0.384 mean= 0.388
 gam= 0.000 g(H,U,f)=  0.231E-03 0.359E-03 0.260E-06 ort(H,U,f) =-0.815E-04 0.847E-04 0.218E-06
SDA: 132    -0.223319582226E+03   -0.12607E-03   -0.12593E-03  5760   0.590E-03 0.343E-05
 gam= 0.000 trial= 0.388  step= 0.176 mean= 0.388
 gam= 0.608 g(H,U,f)=  0.141E-03 0.218E-03 0.108E-06 ort(H,U,f) = 0.134E-03-0.683E-04 0.314E-07
CGA: 133    -0.223319641045E+03   -0.58819E-04   -0.52033E-04  5760   0.359E-03 0.659E-04
 gam= 0.608 trial= 0.377  step= 0.440 mean= 0.377
 gam= 0.657 g(H,U,f)=  0.842E-04 0.151E-03 0.163E-06 ort(H,U,f) = 0.253E-05-0.886E-05-0.136E-06
CGA: 134    -0.223319728263E+03   -0.87218E-04   -0.87779E-04  5760   0.235E-03-0.646E-05
 gam= 0.657 trial= 0.381  step= 0.703 mean= 0.381
 gam= 0.907 g(H,U,f)=  0.913E-04 0.122E-03 0.147E-07 ort(H,U,f) =-0.667E-04 0.650E-04-0.265E-07
CGA: 135    -0.223319809253E+03   -0.80989E-04   -0.81275E-04  5760   0.214E-03-0.169E-05
 gam= 0.907 trial= 0.397  step= 0.564 mean= 0.397
 gam= 1.134 g(H,U,f)=  0.931E-04 0.149E-03 0.202E-06 ort(H,U,f) =-0.628E-04 0.666E-04-0.162E-07
CGA: 136    -0.223319868477E+03   -0.59225E-04   -0.59837E-04  5760   0.242E-03 0.380E-05
 gam= 1.134 trial= 0.405  step= 0.308 mean= 0.405
 gam= 1.338 g(H,U,f)=  0.989E-04 0.225E-03 0.807E-07 ort(H,U,f) =-0.406E-04 0.555E-04 0.602E-07
CGA: 137    -0.223319907837E+03   -0.39359E-04   -0.38000E-04  5760   0.324E-03 0.150E-04
 gam= 1.338 trial= 0.400  step= 0.466 mean= 0.400
 gam= 1.180 g(H,U,f)=  0.156E-03 0.226E-03 0.223E-06 ort(H,U,f) =-0.101E-03 0.971E-04-0.177E-06
CGA: 138    -0.223319987510E+03   -0.79673E-04   -0.80121E-04  5760   0.383E-03-0.413E-05
 gam= 1.180 trial= 0.403  step= 0.693 mean= 0.403
 gam= 0.829 g(H,U,f)=  0.214E-03 0.103E-03 0.584E-07 ort(H,U,f) =-0.155E-03 0.155E-03-0.167E-06
CGA: 139    -0.223320118311E+03   -0.13080E-03   -0.13089E-03  5760   0.317E-03-0.470E-06
 gam= 0.829 trial= 0.418  step= 0.779 mean= 0.418
 gam= 1.900 g(H,U,f)=  0.218E-03 0.384E-03 0.114E-06 ort(H,U,f) =-0.565E-04 0.540E-04 0.501E-07
CGA: 140    -0.223320239634E+03   -0.12132E-03   -0.12338E-03  5760   0.602E-03-0.243E-05
 gam= 1.900 trial= 0.436  step= 0.241 mean= 0.436
 gam= 0.832 g(H,U,f)=  0.193E-03 0.308E-03 0.236E-06 ort(H,U,f) =-0.341E-04 0.764E-04 0.412E-06
CGA: 141    -0.223320317749E+03   -0.78115E-04   -0.72032E-04  5760   0.501E-03 0.427E-04
 gam= 0.832 trial= 0.426  step= 0.444 mean= 0.426
 gam= 0.475 g(H,U,f)=  0.134E-03 0.104E-03 0.148E-07 ort(H,U,f) =-0.871E-04 0.830E-04 0.684E-07
CGA: 142    -0.223320436826E+03   -0.11908E-03   -0.11924E-03  5760   0.238E-03-0.410E-05
 gam= 0.475 trial= 0.427  step= 0.737 mean= 0.427
 gam= 0.957 g(H,U,f)=  0.983E-04 0.130E-03 0.911E-07 ort(H,U,f) =-0.268E-04 0.231E-04 0.435E-07
CGA: 143    -0.223320523050E+03   -0.86225E-04   -0.86984E-04  5760   0.228E-03-0.358E-05
 gam= 0.957 trial= 0.443  step= 0.478 mean= 0.443
 gam= 0.740 g(H,U,f)=  0.798E-04 0.889E-04 0.235E-07 ort(H,U,f) =-0.223E-04 0.199E-04-0.827E-07
CGA: 144    -0.223320576642E+03   -0.53592E-04   -0.53697E-04  5760   0.169E-03-0.252E-05
 gam= 0.740 trial= 0.444  step= 0.519 mean= 0.444
 gam= 1.497 g(H,U,f)=  0.602E-04 0.192E-03 0.109E-06 ort(H,U,f) =-0.898E-05 0.168E-04 0.470E-07
CGA: 145    -0.223320619449E+03   -0.42807E-04   -0.43328E-04  5760   0.253E-03 0.783E-05
 gam= 1.497 trial= 0.448  step= 0.210 mean= 0.448
 gam= 0.463 g(H,U,f)=  0.489E-04 0.681E-04 0.597E-07 ort(H,U,f) =-0.282E-04 0.370E-04 0.185E-06
CGA: 146    -0.223320650294E+03   -0.30845E-04   -0.27777E-04  5760   0.117E-03 0.904E-05
 gam= 0.463 trial= 0.436  step= 0.599 mean= 0.436
 gam= 0.921 g(H,U,f)=  0.497E-04 0.581E-04 0.222E-07 ort(H,U,f) =-0.199E-04 0.213E-04 0.309E-07
CGA: 147    -0.223320686765E+03   -0.36471E-04   -0.36328E-04  5760   0.108E-03 0.149E-05
 gam= 0.921 trial= 0.444  step= 0.883 mean= 0.444
 gam= 1.045 g(H,U,f)=  0.535E-04 0.592E-04 0.688E-08 ort(H,U,f) =-0.329E-04 0.309E-04-0.689E-08
CGA: 148    -0.223320734380E+03   -0.47615E-04   -0.48192E-04  5760   0.113E-03-0.204E-05
 gam= 1.045 trial= 0.466  step= 0.330 mean= 0.466
 gam= 1.206 g(H,U,f)=  0.471E-04 0.888E-04 0.313E-07 ort(H,U,f) =-0.789E-05 0.149E-04 0.287E-07
CGA: 149    -0.223320752946E+03   -0.18566E-04   -0.18209E-04  5760   0.136E-03 0.706E-05
 gam= 1.206 trial= 0.460  step= 0.312 mean= 0.460
 gam= 0.675 g(H,U,f)=  0.409E-04 0.508E-04 0.255E-07 ort(H,U,f) =-0.765E-05 0.113E-04 0.851E-07
CGA: 150    -0.223320776351E+03   -0.23405E-04   -0.22522E-04  5760   0.917E-04 0.369E-05
 gam= 0.675 trial= 0.452  step= 0.583 mean= 0.452
 gam= 0.902 g(H,U,f)=  0.350E-04 0.476E-04 0.438E-07 ort(H,U,f) =-0.120E-04 0.109E-04-0.122E-06
CGA: 151    -0.223320803398E+03   -0.27047E-04   -0.27474E-04  5760   0.827E-04-0.122E-05
 gam= 0.902 trial= 0.459  step= 0.331 mean= 0.459
 gam= 0.882 g(H,U,f)=  0.257E-04 0.471E-04 0.329E-07 ort(H,U,f) =-0.550E-05 0.830E-05-0.487E-07
CGA: 152    -0.223320817391E+03   -0.13993E-04   -0.13494E-04  5760   0.729E-04 0.275E-05
 gam= 0.882 trial= 0.452  step= 0.283 mean= 0.452
 gam= 0.745 g(H,U,f)=  0.211E-04 0.332E-04 0.478E-08 ort(H,U,f) =-0.326E-05 0.376E-05 0.468E-08
CGA: 153    -0.223320828735E+03   -0.11343E-04   -0.10661E-04  5760   0.543E-04 0.502E-06
 gam= 0.745 trial= 0.444  step= 0.518 mean= 0.444
 gam= 0.842 g(H,U,f)=  0.190E-04 0.267E-04 0.179E-07 ort(H,U,f) =-0.982E-05 0.957E-05 0.290E-07
CGA: 154    -0.223320842835E+03   -0.14100E-04   -0.14142E-04  5760   0.457E-04-0.212E-06
 gam= 0.842 trial= 0.448  step= 0.565 mean= 0.448
 gam= 1.508 g(H,U,f)=  0.198E-04 0.491E-04 0.338E-07 ort(H,U,f) =-0.106E-04 0.125E-04-0.368E-07
CGA: 155    -0.223320855573E+03   -0.12739E-04   -0.12846E-04  5760   0.689E-04 0.182E-05
 gam= 1.508 trial= 0.453  step= 0.258 mean= 0.453
 gam= 0.737 g(H,U,f)=  0.220E-04 0.288E-04 0.290E-07 ort(H,U,f) =-0.176E-04 0.215E-04-0.620E-07
CGA: 156    -0.223320865705E+03   -0.10132E-04   -0.92344E-05  5760   0.508E-04 0.382E-05
 gam= 0.737 trial= 0.444  step= 0.655 mean= 0.444
 gam= 1.778 g(H,U,f)=  0.333E-04 0.570E-04 0.313E-07 ort(H,U,f) =-0.161E-04 0.132E-04-0.250E-07
CGA: 157    -0.223320882728E+03   -0.17023E-04   -0.17548E-04  5760   0.903E-04-0.289E-05
 gam= 1.778 trial= 0.454  step= 0.513 mean= 0.454
 gam= 1.263 g(H,U,f)=  0.457E-04 0.683E-04 0.440E-07 ort(H,U,f) =-0.330E-04 0.331E-04 0.375E-08
CGA: 158    -0.223320904448E+03   -0.21720E-04   -0.21848E-04  5760   0.114E-03 0.104E-06
 gam= 1.263 trial= 0.457  step= 0.330 mean= 0.457
 gam= 0.948 g(H,U,f)=  0.498E-04 0.583E-04 0.398E-07 ort(H,U,f) =-0.340E-04 0.390E-04-0.272E-07
CGA: 159    -0.223320923815E+03   -0.19366E-04   -0.18850E-04  5760   0.108E-03 0.494E-05
 gam= 0.948 trial= 0.451  step= 0.423 mean= 0.451
 gam= 1.083 g(H,U,f)=  0.548E-04 0.622E-04 0.607E-07 ort(H,U,f) =-0.253E-04 0.268E-04-0.281E-08
CGA: 160    -0.223320947826E+03   -0.24012E-04   -0.23850E-04  5760   0.117E-03 0.149E-05
 gam= 1.083 trial= 0.449  step= 0.511 mean= 0.449
 gam= 1.493 g(H,U,f)=  0.609E-04 0.114E-03 0.100E-06 ort(H,U,f) =-0.236E-04 0.224E-04-0.663E-07
CGA: 161    -0.223320977832E+03   -0.30006E-04   -0.30362E-04  5760   0.175E-03-0.128E-05
 gam= 1.493 trial= 0.452  step= 0.323 mean= 0.452
 gam= 0.824 g(H,U,f)=  0.667E-04 0.772E-04 0.799E-07 ort(H,U,f) =-0.388E-04 0.403E-04-0.963E-07
CGA: 162    -0.223321006425E+03   -0.28593E-04   -0.27927E-04  5760   0.144E-03 0.141E-05
 gam= 0.824 trial= 0.446  step= 0.513 mean= 0.446
 gam= 0.000 g(H,U,f)=  0.648E-04 0.860E-04 0.144E-06 ort(H,U,f) =-0.330E-04 0.336E-04-0.172E-07
SDA: 163    -0.223321043331E+03   -0.36905E-04   -0.37244E-04  5760   0.151E-03 0.594E-06
 gam= 0.000 trial= 0.449  step= 0.205 mean= 0.449
 gam= 0.662 g(H,U,f)=  0.394E-04 0.605E-04 0.514E-08 ort(H,U,f) = 0.372E-04-0.186E-04 0.133E-07
CGA: 164    -0.223321060692E+03   -0.17362E-04   -0.15456E-04  5760   0.999E-04 0.186E-04
 gam= 0.662 trial= 0.437  step= 0.363 mean= 0.437
 gam= 0.936 g(H,U,f)=  0.227E-04 0.707E-04 0.471E-07 ort(H,U,f) = 0.138E-04-0.142E-04-0.460E-07
CGA: 165    -0.223321081249E+03   -0.20557E-04   -0.20384E-04  5760   0.935E-04-0.447E-06
 gam= 0.936 trial= 0.433  step= 0.454 mean= 0.433
 gam= 0.533 g(H,U,f)=  0.237E-04 0.261E-04 0.118E-07 ort(H,U,f) =-0.231E-04 0.231E-04 0.491E-09
CGA: 166    -0.223321102362E+03   -0.21113E-04   -0.21112E-04  5760   0.499E-04 0.212E-07
 gam= 0.533 trial= 0.434  step= 0.656 mean= 0.434
 gam= 1.318 g(H,U,f)=  0.286E-04 0.371E-04 0.929E-09 ort(H,U,f) =-0.120E-04 0.992E-05-0.156E-08
CGA: 167    -0.223321118489E+03   -0.16126E-04   -0.16367E-04  5760   0.657E-04-0.208E-05
 gam= 1.318 trial= 0.446  step= 0.385 mean= 0.446
 gam= 1.588 g(H,U,f)=  0.295E-04 0.749E-04 0.114E-07 ort(H,U,f) =-0.502E-05 0.905E-05-0.995E-08
CGA: 168    -0.223321130719E+03   -0.12230E-04   -0.12118E-04  5760   0.104E-03 0.403E-05
 gam= 1.588 trial= 0.442  step= 0.351 mean= 0.442
 gam= 0.567 g(H,U,f)=  0.249E-04 0.343E-04 0.550E-07 ort(H,U,f) =-0.278E-04 0.293E-04-0.350E-07
CGA: 169    -0.223321150556E+03   -0.19837E-04   -0.19434E-04  5760   0.592E-04 0.149E-05
 gam= 0.567 trial= 0.438  step= 0.446 mean= 0.438
 gam= 1.050 g(H,U,f)=  0.243E-04 0.379E-04 0.440E-07 ort(H,U,f) =-0.122E-04 0.130E-04 0.256E-07
CGA: 170    -0.223321163926E+03   -0.13371E-04   -0.13389E-04  5760   0.622E-04 0.766E-06
 gam= 1.050 trial= 0.438  step= 0.400 mean= 0.438
 gam= 1.238 g(H,U,f)=  0.248E-04 0.523E-04 0.161E-07 ort(H,U,f) =-0.119E-04 0.126E-04-0.430E-07
CGA: 171    -0.223321176646E+03   -0.12720E-04   -0.12600E-04  5760   0.770E-04 0.641E-06
 gam= 1.238 trial= 0.436  step= 0.341 mean= 0.436
 gam= 0.988 g(H,U,f)=  0.293E-04 0.466E-04 0.193E-06 ort(H,U,f) =-0.147E-04 0.143E-04-0.138E-06
CGA: 172    -0.223321190275E+03   -0.13629E-04   -0.13264E-04  5760   0.761E-04-0.581E-06
 gam= 0.988 trial= 0.432  step= 0.615 mean= 0.432
 gam= 0.957 g(H,U,f)=  0.368E-04 0.361E-04 0.171E-07 ort(H,U,f) =-0.235E-04 0.241E-04 0.175E-07
CGA: 173    -0.223321213399E+03   -0.23125E-04   -0.23244E-04  5760   0.729E-04 0.589E-06
 gam= 0.957 trial= 0.441  step= 0.388 mean= 0.441
 gam= 1.260 g(H,U,f)=  0.345E-04 0.572E-04 0.863E-07 ort(H,U,f) =-0.748E-05 0.121E-04-0.660E-07
CGA: 174    -0.223321227768E+03   -0.14368E-04   -0.14239E-04  5760   0.918E-04 0.459E-05
 gam= 1.260 trial= 0.438  step= 0.385 mean= 0.438
 gam= 1.130 g(H,U,f)=  0.308E-04 0.728E-04 0.217E-06 ort(H,U,f) =-0.107E-04 0.110E-04-0.930E-08
CGA: 175    -0.223321246934E+03   -0.19166E-04   -0.18799E-04  5760   0.104E-03 0.259E-06
 gam= 1.130 trial= 0.436  step= 0.359 mean= 0.436
 gam= 0.730 g(H,U,f)=  0.324E-04 0.433E-04 0.150E-07 ort(H,U,f) =-0.228E-04 0.209E-04 0.547E-07
CGA: 176    -0.223321265834E+03   -0.18900E-04   -0.18697E-04  5760   0.758E-04-0.190E-05
 gam= 0.730 trial= 0.432  step= 0.552 mean= 0.432
 gam= 1.134 g(H,U,f)=  0.365E-04 0.494E-04 0.318E-07 ort(H,U,f) =-0.175E-04 0.169E-04-0.807E-07
CGA: 177    -0.223321286163E+03   -0.20329E-04   -0.20530E-04  5760   0.859E-04-0.713E-06
 gam= 1.134 trial= 0.438  step= 0.356 mean= 0.438
 gam= 1.244 g(H,U,f)=  0.336E-04 0.732E-04 0.220E-07 ort(H,U,f) =-0.950E-05 0.155E-04-0.494E-07
CGA: 178    -0.223321301778E+03   -0.15615E-04   -0.15170E-04  5760   0.107E-03 0.596E-05
 gam= 1.244 trial= 0.434  step= 0.414 mean= 0.434
 gam= 1.052 g(H,U,f)=  0.364E-04 0.761E-04 0.312E-07 ort(H,U,f) =-0.246E-04 0.234E-04 0.239E-07
CGA: 179    -0.223321325563E+03   -0.23785E-04   -0.23678E-04  5760   0.112E-03-0.112E-05
 gam= 1.052 trial= 0.433  step= 0.424 mean= 0.433
 gam= 0.958 g(H,U,f)=  0.464E-04 0.613E-04 0.174E-07 ort(H,U,f) =-0.340E-04 0.341E-04 0.528E-07
CGA: 180    -0.223321349143E+03   -0.23580E-04   -0.23572E-04  5760   0.108E-03 0.188E-06
 gam= 0.958 trial= 0.432  step= 0.505 mean= 0.432
 gam= 1.407 g(H,U,f)=  0.532E-04 0.983E-04 0.454E-07 ort(H,U,f) =-0.247E-04 0.274E-04 0.104E-06
CGA: 181    -0.223321375992E+03   -0.26849E-04   -0.27249E-04  5760   0.152E-03 0.285E-05
 gam= 1.407 trial= 0.436  step= 0.353 mean= 0.436
 gam= 1.218 g(H,U,f)=  0.637E-04 0.121E-03 0.778E-07 ort(H,U,f) =-0.309E-04 0.332E-04 0.238E-06
CGA: 182    -0.223321404536E+03   -0.28543E-04   -0.27499E-04  5760   0.185E-03 0.254E-05
 gam= 1.218 trial= 0.432  step= 0.438 mean= 0.432
 gam= 0.854 g(H,U,f)=  0.679E-04 0.897E-04 0.131E-07 ort(H,U,f) =-0.527E-04 0.523E-04 0.105E-06
CGA: 183    -0.223321445618E+03   -0.41082E-04   -0.41099E-04  5760   0.158E-03-0.290E-06
 gam= 0.854 trial= 0.432  step= 0.513 mean= 0.432
 gam= 1.175 g(H,U,f)=  0.757E-04 0.109E-03 0.216E-06 ort(H,U,f) =-0.317E-04 0.343E-04-0.566E-06
CGA: 184    -0.223321485967E+03   -0.40350E-04   -0.40372E-04  5760   0.185E-03 0.202E-05
 gam= 1.175 trial= 0.436  step= 0.491 mean= 0.436
 gam= 1.611 g(H,U,f)=  0.889E-04 0.209E-03 0.149E-06 ort(H,U,f) =-0.252E-04 0.322E-04-0.370E-06
CGA: 185    -0.223321531593E+03   -0.45626E-04   -0.46102E-04  5760   0.298E-03 0.663E-05
 gam= 1.611 trial= 0.439  step= 0.322 mean= 0.439
 gam= 0.878 g(H,U,f)=  0.891E-04 0.173E-03 0.234E-07 ort(H,U,f) =-0.605E-04 0.626E-04 0.435E-07
CGA: 186    -0.223321583865E+03   -0.52272E-04   -0.49794E-04  5760   0.262E-03 0.217E-05
 gam= 0.878 trial= 0.433  step= 0.431 mean= 0.433
 gam= 0.762 g(H,U,f)=  0.947E-04 0.105E-03 0.675E-07 ort(H,U,f) =-0.697E-04 0.680E-04 0.229E-06
CGA: 187    -0.223321640799E+03   -0.56934E-04   -0.56925E-04  5760   0.200E-03-0.144E-05
 gam= 0.762 trial= 0.433  step= 0.578 mean= 0.433
 gam= 1.572 g(H,U,f)=  0.101E-03 0.213E-03 0.632E-07 ort(H,U,f) =-0.303E-04 0.349E-04-0.115E-06
CGA: 188    -0.223321697772E+03   -0.56973E-04   -0.57433E-04  5760   0.314E-03 0.451E-05
 gam= 1.572 trial= 0.440  step= 0.324 mean= 0.440
 gam= 0.944 g(H,U,f)=  0.111E-03 0.185E-03 0.184E-06 ort(H,U,f) =-0.484E-04 0.595E-04-0.569E-06
CGA: 189    -0.223321751223E+03   -0.53452E-04   -0.51962E-04  5760   0.296E-03 0.106E-04
 gam= 0.944 trial= 0.434  step= 0.389 mean= 0.434
 gam= 0.856 g(H,U,f)=  0.975E-04 0.156E-03 0.139E-06 ort(H,U,f) =-0.546E-04 0.497E-04-0.253E-06
CGA: 190    -0.223321811603E+03   -0.60380E-04   -0.59568E-04  5760   0.254E-03-0.515E-05
 gam= 0.856 trial= 0.432  step= 0.427 mean= 0.432
 gam= 0.929 g(H,U,f)=  0.973E-04 0.138E-03 0.184E-06 ort(H,U,f) =-0.426E-04 0.389E-04-0.181E-06
CGA: 191    -0.223321864899E+03   -0.53296E-04   -0.53243E-04  5760   0.236E-03-0.388E-05
 gam= 0.929 trial= 0.432  step= 0.418 mean= 0.432
 gam= 1.480 g(H,U,f)=  0.985E-04 0.250E-03 0.857E-07 ort(H,U,f) =-0.167E-04 0.212E-04 0.240E-07
CGA: 192    -0.223321913502E+03   -0.48603E-04   -0.48446E-04  5760   0.349E-03 0.450E-05
 gam= 1.480 trial= 0.431  step= 0.348 mean= 0.431
 gam= 0.592 g(H,U,f)=  0.887E-04 0.118E-03 0.971E-07 ort(H,U,f) =-0.743E-04 0.762E-04-0.104E-06
CGA: 193    -0.223321976149E+03   -0.62647E-04   -0.61867E-04  5760   0.206E-03 0.179E-05
 gam= 0.592 trial= 0.427  step= 0.500 mean= 0.427
 gam= 0.000 g(H,U,f)=  0.940E-04 0.193E-03 0.166E-06 ort(H,U,f) =-0.282E-04 0.301E-04-0.500E-07
SDA: 194    -0.223322027391E+03   -0.51241E-04   -0.51922E-04  5760   0.288E-03 0.183E-05
 gam= 0.000 trial= 0.431  step= 0.188 mean= 0.431
 gam= 0.570 g(H,U,f)=  0.546E-04 0.109E-03 0.130E-06 ort(H,U,f) = 0.496E-04-0.186E-04-0.116E-06
CGA: 195    -0.223322058244E+03   -0.30854E-04   -0.27088E-04  5760   0.164E-03 0.308E-04
 gam= 0.570 trial= 0.419  step= 0.380 mean= 0.419
 gam= 1.119 g(H,U,f)=  0.386E-04 0.145E-03 0.720E-07 ort(H,U,f) = 0.154E-04-0.191E-04-0.287E-07
CGA: 196    -0.223322092952E+03   -0.34707E-04   -0.34502E-04  5760   0.183E-03-0.368E-05
 gam= 1.119 trial= 0.417  step= 0.524 mean= 0.417
 gam= 0.668 g(H,U,f)=  0.582E-04 0.641E-04 0.554E-07 ort(H,U,f) =-0.539E-04 0.549E-04 0.298E-07
CGA: 197    -0.223322139988E+03   -0.47036E-04   -0.46986E-04  5760   0.122E-03 0.108E-05
 gam= 0.668 trial= 0.422  step= 0.588 mean= 0.422
 gam= 1.371 g(H,U,f)=  0.609E-04 0.107E-03 0.696E-07 ort(H,U,f) =-0.280E-04 0.343E-04 0.426E-07
CGA: 198    -0.223322176394E+03   -0.36406E-04   -0.36185E-04  5760   0.168E-03 0.633E-05
 gam= 1.371 trial= 0.430  step= 0.266 mean= 0.430
 gam= 0.946 g(H,U,f)=  0.556E-04 0.103E-03 0.430E-07 ort(H,U,f) =-0.203E-04 0.302E-04-0.861E-07
CGA: 199    -0.223322200862E+03   -0.24468E-04   -0.23474E-04  5760   0.159E-03 0.977E-05
 gam= 0.946 trial= 0.422  step= 0.485 mean= 0.422
 gam= 1.057 g(H,U,f)=  0.547E-04 0.113E-03 0.482E-07 ort(H,U,f) =-0.391E-04 0.326E-04-0.200E-07
CGA: 200    -0.223322241099E+03   -0.40238E-04   -0.40792E-04  5760   0.168E-03-0.651E-05
 gam= 1.057 trial= 0.425  step= 0.468 mean= 0.425
 gam= 0.788 g(H,U,f)=  0.684E-04 0.638E-04 0.780E-07 ort(H,U,f) =-0.515E-04 0.494E-04-0.120E-06
CGA: 201    -0.223322278639E+03   -0.37540E-04   -0.37664E-04  5760   0.132E-03-0.218E-05
 gam= 0.788 trial= 0.427  step= 0.554 mean= 0.427
 gam= 1.459 g(H,U,f)=  0.645E-04 0.128E-03 0.624E-07 ort(H,U,f) =-0.190E-04 0.231E-04 0.130E-07
CGA: 202    -0.223322314500E+03   -0.35861E-04   -0.36161E-04  5760   0.193E-03 0.418E-05
 gam= 1.459 trial= 0.434  step= 0.318 mean= 0.434
 gam= 1.051 g(H,U,f)=  0.592E-04 0.144E-03 0.194E-06 ort(H,U,f) =-0.200E-04 0.260E-04-0.799E-07
CGA: 203    -0.223322347103E+03   -0.32603E-04   -0.31672E-04  5760   0.203E-03 0.587E-05
 gam= 1.051 trial= 0.428  step= 0.392 mean= 0.428
 gam= 0.763 g(H,U,f)=  0.623E-04 0.924E-04 0.126E-06 ort(H,U,f) =-0.420E-04 0.385E-04 0.158E-06
CGA: 204    -0.223322388301E+03   -0.41198E-04   -0.40970E-04  5760   0.155E-03-0.341E-05
 gam= 0.763 trial= 0.426  step= 0.478 mean= 0.426
 gam= 0.974 g(H,U,f)=  0.693E-04 0.814E-04 0.696E-07 ort(H,U,f) =-0.258E-04 0.227E-04-0.132E-06
CGA: 205    -0.223322424466E+03   -0.36165E-04   -0.36383E-04  5760   0.151E-03-0.316E-05
 gam= 0.974 trial= 0.429  step= 0.512 mean= 0.429
 gam= 1.283 g(H,U,f)=  0.573E-04 0.136E-03 0.177E-06 ort(H,U,f) =-0.106E-04 0.127E-04-0.134E-06
CGA: 206    -0.223322461638E+03   -0.37172E-04   -0.37814E-04  5760   0.194E-03 0.200E-05
 gam= 1.283 trial= 0.433  step= 0.256 mean= 0.433
 gam= 0.693 g(H,U,f)=  0.442E-04 0.898E-04 0.602E-07 ort(H,U,f) =-0.132E-04 0.178E-04-0.123E-06
CGA: 207    -0.223322488192E+03   -0.26553E-04   -0.25068E-04  5760   0.134E-03 0.451E-05
 gam= 0.693 trial= 0.424  step= 0.374 mean= 0.424
 gam= 0.635 g(H,U,f)=  0.363E-04 0.488E-04 0.126E-07 ort(H,U,f) =-0.138E-04 0.150E-04-0.745E-08
CGA: 208    -0.223322513820E+03   -0.25628E-04   -0.25632E-04  5760   0.851E-04 0.114E-05
 gam= 0.635 trial= 0.421  step= 0.653 mean= 0.421
 gam= 1.129 g(H,U,f)=  0.336E-04 0.624E-04 0.440E-07 ort(H,U,f) =-0.133E-04 0.112E-04 0.228E-07
CGA: 209    -0.223322541498E+03   -0.27678E-04   -0.28027E-04  5760   0.961E-04-0.204E-05
 gam= 1.129 trial= 0.433  step= 0.510 mean= 0.433
 gam= 0.892 g(H,U,f)=  0.372E-04 0.483E-04 0.235E-06 ort(H,U,f) =-0.199E-04 0.183E-04 0.951E-07
CGA: 210    -0.223322565318E+03   -0.23820E-04   -0.23895E-04  5760   0.857E-04-0.149E-05
 gam= 0.892 trial= 0.437  step= 0.530 mean= 0.437
 gam= 0.887 g(H,U,f)=  0.313E-04 0.447E-04 0.130E-07 ort(H,U,f) =-0.151E-04 0.198E-04 0.631E-07
CGA: 211    -0.223322587806E+03   -0.22488E-04   -0.22369E-04  5760   0.761E-04 0.480E-05
 gam= 0.887 trial= 0.442  step= 0.279 mean= 0.442
 gam= 1.070 g(H,U,f)=  0.302E-04 0.511E-04 0.451E-07 ort(H,U,f) =-0.729E-06 0.730E-05-0.144E-06
CGA: 212    -0.223322599754E+03   -0.11948E-04   -0.11217E-04  5760   0.813E-04 0.643E-05
 gam= 1.070 trial= 0.433  step= 0.454 mean= 0.433
 gam= 1.102 g(H,U,f)=  0.263E-04 0.630E-04 0.257E-06 ort(H,U,f) =-0.910E-05 0.778E-05-0.262E-06
CGA: 213    -0.223322619746E+03   -0.19992E-04   -0.20027E-04  5760   0.896E-04-0.158E-05
 gam= 1.102 trial= 0.434  step= 0.365 mean= 0.434
 gam= 0.516 g(H,U,f)=  0.262E-04 0.200E-04 0.104E-07 ort(H,U,f) =-0.208E-04 0.199E-04-0.249E-07
CGA: 214    -0.223322635831E+03   -0.16085E-04   -0.16051E-04  5760   0.462E-04-0.944E-06
 gam= 0.516 trial= 0.431  step= 0.635 mean= 0.431
 gam= 1.341 g(H,U,f)=  0.226E-04 0.392E-04 0.196E-06 ort(H,U,f) =-0.475E-05 0.437E-05-0.153E-07
CGA: 215    -0.223322650299E+03   -0.14468E-04   -0.14518E-04  5760   0.620E-04-0.398E-06
 gam= 1.341 trial= 0.441  step= 0.309 mean= 0.441
 gam= 0.898 g(H,U,f)=  0.201E-04 0.355E-04 0.102E-06 ort(H,U,f) =-0.235E-05 0.447E-05 0.130E-06
CGA: 216    -0.223322659866E+03   -0.95668E-05   -0.95026E-05  5760   0.557E-04 0.225E-05
 gam= 0.898 trial= 0.435  step= 0.334 mean= 0.435
 gam= 0.901 g(H,U,f)=  0.164E-04 0.338E-04 0.281E-08 ort(H,U,f) =-0.451E-05 0.612E-05-0.128E-07
CGA: 217    -0.223322669723E+03   -0.98575E-05   -0.96211E-05  5760   0.502E-04 0.160E-05
 gam= 0.901 trial= 0.430  step= 0.370 mean= 0.430
 gam= 0.590 g(H,U,f)=  0.149E-04 0.146E-04 0.440E-07 ort(H,U,f) =-0.990E-05 0.895E-05-0.126E-06
CGA: 218    -0.223322679387E+03   -0.96633E-05   -0.95521E-05  5760   0.296E-04-0.107E-05
 gam= 0.590 trial= 0.427  step= 0.535 mean= 0.427
 gam= 1.311 g(H,U,f)=  0.138E-04 0.250E-04 0.141E-07 ort(H,U,f) =-0.348E-05 0.257E-05-0.108E-07
CGA: 219    -0.223322687061E+03   -0.76739E-05   -0.77466E-05  5760   0.388E-04-0.920E-06
 gam= 1.311 trial= 0.432  step= 0.380 mean= 0.432
 gam= 1.021 g(H,U,f)=  0.143E-04 0.252E-04 0.379E-08 ort(H,U,f) =-0.490E-05 0.524E-05 0.358E-09
CGA: 220    -0.223322694238E+03   -0.71777E-05   -0.71466E-05  5760   0.396E-04 0.341E-06
 gam= 1.021 trial= 0.429  step= 0.342 mean= 0.429
 gam= 0.844 g(H,U,f)=  0.122E-04 0.211E-04 0.156E-08 ort(H,U,f) =-0.664E-05 0.779E-05-0.455E-08
CGA: 221    -0.223322701166E+03   -0.69282E-05   -0.68166E-05  5760   0.334E-04 0.115E-05
 gam= 0.844 trial= 0.425  step= 0.329 mean= 0.425
 gam= 0.738 g(H,U,f)=  0.115E-04 0.132E-04 0.757E-08 ort(H,U,f) =-0.642E-05 0.698E-05 0.222E-08
CGA: 222    -0.223322706938E+03   -0.57714E-05   -0.56533E-05  5760   0.246E-04 0.558E-06
 gam= 0.738 trial= 0.420  step= 0.626 mean= 0.420
 gam= 2.064 g(H,U,f)=  0.129E-04 0.379E-04 0.107E-07 ort(H,U,f) =-0.517E-05 0.474E-05 0.975E-08
CGA: 223    -0.223322714645E+03   -0.77072E-05   -0.78348E-05  5760   0.508E-04-0.420E-06
 gam= 2.064 trial= 0.431  step= 0.346 mean= 0.431
 gam= 0.731 g(H,U,f)=  0.185E-04 0.186E-04 0.152E-07 ort(H,U,f) =-0.224E-04 0.225E-04-0.408E-07
CGA: 224    -0.223322723355E+03   -0.87102E-05   -0.86466E-05  5760   0.372E-04 0.119E-07
 gam= 0.731 trial= 0.426  step= 0.432 mean= 0.426
 gam= 0.000 g(H,U,f)=  0.231E-04 0.335E-04 0.606E-07 ort(H,U,f) =-0.947E-05 0.991E-05-0.361E-07
SDA: 225    -0.223322731375E+03   -0.80196E-05   -0.80299E-05  5760   0.567E-04 0.406E-06
 gam= 0.000 trial= 0.427  step= 0.215 mean= 0.427
 gam= 0.577 g(H,U,f)=  0.127E-04 0.200E-04 0.501E-08 ort(H,U,f) = 0.118E-04-0.615E-05 0.156E-07
CGA: 226    -0.223322738078E+03   -0.67032E-05   -0.60997E-05  5760   0.327E-04 0.565E-05
 gam= 0.577 trial= 0.416  step= 0.305 mean= 0.416
 gam= 0.958 g(H,U,f)=  0.697E-05 0.244E-04 0.109E-07 ort(H,U,f) = 0.613E-05-0.609E-05-0.205E-07
CGA: 227    -0.223322743689E+03   -0.56113E-05   -0.54832E-05  5760   0.314E-04 0.178E-07
 gam= 0.958 trial= 0.410  step= 0.446 mean= 0.410
 gam= 0.456 g(H,U,f)=  0.700E-05 0.729E-05 0.558E-08 ort(H,U,f) =-0.802E-05 0.811E-05-0.515E-08
CGA: 228    -0.223322750692E+03   -0.70023E-05   -0.70024E-05  5760   0.143E-04 0.804E-07
 gam= 0.456 trial= 0.412  step= 0.714 mean= 0.412
 gam= 1.857 g(H,U,f)=  0.823E-05 0.183E-04 0.174E-08 ort(H,U,f) =-0.284E-05 0.244E-05-0.326E-09
CGA: 229    -0.223322755726E+03   -0.50348E-05   -0.51193E-05  5760   0.265E-04-0.398E-06
 gam= 1.857 trial= 0.427  step= 0.272 mean= 0.427
 gam= 0.999 g(H,U,f)=  0.913E-05 0.174E-04 0.466E-08 ort(H,U,f) =-0.352E-05 0.499E-05-0.327E-08
CGA: 230    -0.223322759411E+03   -0.36846E-05   -0.35127E-05  5760   0.265E-04 0.147E-05
 gam= 0.999 trial= 0.420  step= 0.445 mean= 0.420
 gam= 0.756 g(H,U,f)=  0.824E-05 0.118E-04 0.218E-07 ort(H,U,f) =-0.680E-05 0.661E-05 0.339E-08
CGA: 231    -0.223322765616E+03   -0.62049E-05   -0.62299E-05  5760   0.201E-04-0.183E-06
 gam= 0.756 trial= 0.421  step= 0.553 mean= 0.421
 gam= 0.986 g(H,U,f)=  0.887E-05 0.109E-04 0.299E-07 ort(H,U,f) =-0.499E-05 0.529E-05 0.306E-07
CGA: 232    -0.223322771112E+03   -0.54965E-05   -0.55093E-05  5760   0.198E-04 0.334E-06
 gam= 0.986 trial= 0.427  step= 0.595 mean= 0.427
 gam= 1.201 g(H,U,f)=  0.101E-04 0.136E-04 0.296E-07 ort(H,U,f) =-0.497E-05 0.484E-05-0.585E-07
CGA: 233    -0.223322777050E+03   -0.59374E-05   -0.59810E-05  5760   0.238E-04-0.191E-06
 gam= 1.201 trial= 0.436  step= 0.420 mean= 0.436
 gam= 1.723 g(H,U,f)=  0.107E-04 0.301E-04 0.861E-07 ort(H,U,f) =-0.300E-05 0.362E-05-0.741E-07
CGA: 234    -0.223322782006E+03   -0.49563E-05   -0.49405E-05  5760   0.409E-04 0.546E-06
 gam= 1.723 trial= 0.435  step= 0.337 mean= 0.435
 gam= 0.672 g(H,U,f)=  0.133E-04 0.142E-04 0.248E-07 ort(H,U,f) =-0.120E-04 0.122E-04-0.229E-07
CGA: 235    -0.223322789225E+03   -0.72186E-05   -0.70577E-05  5760   0.275E-04 0.171E-06
 gam= 0.672 trial= 0.430  step= 0.556 mean= 0.430
 gam= 1.174 g(H,U,f)=  0.147E-04 0.176E-04 0.741E-07 ort(H,U,f) =-0.603E-05 0.679E-05-0.136E-07
CGA: 236    -0.223322796868E+03   -0.76432E-05   -0.76904E-05  5760   0.323E-04 0.743E-06
 gam= 1.174 trial= 0.436  step= 0.526 mean= 0.436
 gam= 1.402 g(H,U,f)=  0.143E-04 0.310E-04 0.428E-07 ort(H,U,f) =-0.543E-05 0.592E-05 0.433E-07
CGA: 237    -0.223322805479E+03   -0.86108E-05   -0.87358E-05  5760   0.453E-04 0.535E-06
 gam= 1.402 trial= 0.441  step= 0.285 mean= 0.441
 gam= 0.918 g(H,U,f)=  0.141E-04 0.275E-04 0.138E-08 ort(H,U,f) =-0.765E-05 0.800E-05-0.356E-08
CGA: 238    -0.223322812367E+03   -0.68882E-05   -0.65567E-05  5760   0.416E-04 0.353E-06
 gam= 0.918 trial= 0.433  step= 0.444 mean= 0.433
 gam= 0.852 g(H,U,f)=  0.162E-04 0.193E-04 0.464E-07 ort(H,U,f) =-0.104E-04 0.891E-05-0.961E-07
CGA: 239    -0.223322821658E+03   -0.92913E-05   -0.93056E-05  5760   0.355E-04-0.157E-05
 gam= 0.852 trial= 0.434  step= 0.653 mean= 0.434
 gam= 1.109 g(H,U,f)=  0.185E-04 0.208E-04 0.282E-07 ort(H,U,f) =-0.829E-05 0.846E-05-0.306E-07
CGA: 240    -0.223322832711E+03   -0.11053E-04   -0.11142E-04  5760   0.393E-04 0.142E-06
 gam= 1.109 trial= 0.445  step= 0.595 mean= 0.445
 gam= 1.502 g(H,U,f)=  0.177E-04 0.414E-04 0.176E-08 ort(H,U,f) =-0.818E-05 0.938E-05-0.138E-08
CGA: 241    -0.223322844297E+03   -0.11585E-04   -0.11758E-04  5760   0.591E-04 0.120E-05
 gam= 1.502 trial= 0.452  step= 0.255 mean= 0.452
 gam= 0.808 g(H,U,f)=  0.187E-04 0.290E-04 0.214E-07 ort(H,U,f) =-0.119E-04 0.138E-04 0.510E-08
CGA: 242    -0.223322852601E+03   -0.83046E-05   -0.77574E-05  5760   0.477E-04 0.190E-05
 gam= 0.808 trial= 0.442  step= 0.448 mean= 0.442
 gam= 1.063 g(H,U,f)=  0.199E-04 0.307E-04 0.533E-07 ort(H,U,f) =-0.965E-05 0.833E-05 0.399E-07
CGA: 243    -0.223322863617E+03   -0.11016E-04   -0.11022E-04  5760   0.507E-04-0.128E-05
 gam= 1.063 trial= 0.443  step= 0.630 mean= 0.443
 gam= 0.951 g(H,U,f)=  0.243E-04 0.239E-04 0.161E-07 ort(H,U,f) =-0.126E-04 0.127E-04-0.518E-07
CGA: 244    -0.223322879161E+03   -0.15544E-04   -0.15544E-04  5760   0.482E-04 0.376E-07
 gam= 0.951 trial= 0.452  step= 0.606 mean= 0.452
 gam= 0.842 g(H,U,f)=  0.184E-04 0.221E-04 0.373E-07 ort(H,U,f) =-0.890E-05 0.109E-04-0.477E-07
CGA: 245    -0.223322893908E+03   -0.14748E-04   -0.14618E-04  5760   0.406E-04 0.190E-05
 gam= 0.842 trial= 0.460  step= 0.423 mean= 0.460
 gam= 1.509 g(H,U,f)=  0.181E-04 0.431E-04 0.946E-08 ort(H,U,f) =-0.110E-05 0.274E-05 0.286E-08
CGA: 246    -0.223322902856E+03   -0.89473E-05   -0.89174E-05  5760   0.613E-04 0.165E-05
 gam= 1.509 trial= 0.458  step= 0.324 mean= 0.458
 gam= 0.957 g(H,U,f)=  0.189E-04 0.397E-04 0.497E-07 ort(H,U,f) =-0.720E-05 0.790E-05 0.350E-07
CGA: 247    -0.223322913631E+03   -0.10775E-04   -0.10345E-04  5760   0.587E-04 0.738E-06
 gam= 0.957 trial= 0.451  step= 0.391 mean= 0.451
 gam= 0.652 g(H,U,f)=  0.185E-04 0.197E-04 0.113E-07 ort(H,U,f) =-0.131E-04 0.127E-04 0.297E-07
CGA: 248    -0.223322925329E+03   -0.11698E-04   -0.11612E-04  5760   0.382E-04-0.445E-06
 gam= 0.652 trial= 0.448  step= 0.610 mean= 0.448
 gam= 0.820 g(H,U,f)=  0.174E-04 0.139E-04 0.130E-08 ort(H,U,f) =-0.829E-05 0.921E-05-0.829E-08
CGA: 249    -0.223322936904E+03   -0.11575E-04   -0.11562E-04  5760   0.313E-04 0.918E-06
 gam= 0.820 trial= 0.456  step= 0.617 mean= 0.456
 gam= 1.471 g(H,U,f)=  0.151E-04 0.310E-04 0.512E-08 ort(H,U,f) =-0.296E-05 0.245E-05-0.954E-08
CGA: 250    -0.223322946725E+03   -0.98209E-05   -0.98937E-05  5760   0.461E-04-0.525E-06
 gam= 1.471 trial= 0.464  step= 0.308 mean= 0.464
 gam= 0.840 g(H,U,f)=  0.129E-04 0.258E-04 0.179E-07 ort(H,U,f) =-0.565E-05 0.660E-05-0.279E-07
CGA: 251    -0.223322953958E+03   -0.72339E-05   -0.69803E-05  5760   0.387E-04 0.920E-06
 gam= 0.840 trial= 0.456  step= 0.287 mean= 0.456
 gam= 0.684 g(H,U,f)=  0.108E-04 0.157E-04 0.246E-07 ort(H,U,f) =-0.476E-05 0.535E-05-0.221E-07
CGA: 252    -0.223322959939E+03   -0.59804E-05   -0.56692E-05  5760   0.265E-04 0.572E-06
 gam= 0.684 trial= 0.448  step= 0.564 mean= 0.448
 gam= 1.000 g(H,U,f)=  0.114E-04 0.151E-04 0.429E-08 ort(H,U,f) =-0.615E-05 0.601E-05-0.816E-08
CGA: 253    -0.223322967443E+03   -0.75044E-05   -0.75820E-05  5760   0.265E-04-0.147E-06
 gam= 1.000 trial= 0.454  step= 0.581 mean= 0.454
 gam= 1.846 g(H,U,f)=  0.145E-04 0.344E-04 0.262E-07 ort(H,U,f) =-0.625E-05 0.664E-05-0.824E-08
CGA: 254    -0.223322975043E+03   -0.75998E-05   -0.76584E-05  5760   0.489E-04 0.379E-06
 gam= 1.846 trial= 0.460  step= 0.352 mean= 0.460
 gam= 1.119 g(H,U,f)=  0.191E-04 0.356E-04 0.670E-08 ort(H,U,f) =-0.158E-04 0.168E-04-0.341E-08
CGA: 255    -0.223322984007E+03   -0.89638E-05   -0.87223E-05  5760   0.547E-04 0.102E-05
 gam= 1.119 trial= 0.455  step= 0.407 mean= 0.455
 gam= 0.000 g(H,U,f)=  0.252E-04 0.291E-04 0.393E-07 ort(H,U,f) =-0.207E-04 0.203E-04-0.338E-07
SDA: 256    -0.223322995473E+03   -0.11466E-04   -0.11374E-04  5760   0.543E-04-0.433E-06
 gam= 0.000 trial= 0.452  step= 0.259 mean= 0.452
 gam= 0.724 g(H,U,f)=  0.132E-04 0.261E-04 0.542E-08 ort(H,U,f) = 0.123E-04-0.775E-05 0.109E-07
CGA: 257    -0.223323002781E+03   -0.73079E-05   -0.70380E-05  5760   0.393E-04 0.458E-05
 gam= 0.724 trial= 0.443  step= 0.280 mean= 0.443
 gam= 0.794 g(H,U,f)=  0.764E-05 0.236E-04 0.342E-08 ort(H,U,f) = 0.669E-05-0.515E-05-0.312E-08
CGA: 258    -0.223323009113E+03   -0.63317E-05   -0.59697E-05  5760   0.312E-04 0.154E-05
 gam= 0.794 trial= 0.435  step= 0.450 mean= 0.435
 gam= 0.548 g(H,U,f)=  0.650E-05 0.106E-04 0.412E-08 ort(H,U,f) =-0.583E-05 0.577E-05 0.841E-08
CGA: 259    -0.223323016414E+03   -0.73014E-05   -0.73035E-05  5760   0.171E-04-0.535E-07
 gam= 0.548 trial= 0.435  step= 0.652 mean= 0.435
 gam= 1.061 g(H,U,f)=  0.784E-05 0.103E-04 0.347E-08 ort(H,U,f) =-0.408E-05 0.377E-05-0.296E-08
CGA: 260    -0.223323021932E+03   -0.55184E-05   -0.55661E-05  5760   0.182E-04-0.314E-06
 gam= 1.061 trial= 0.446  step= 0.489 mean= 0.446
 gam= 1.745 g(H,U,f)=  0.777E-05 0.239E-04 0.233E-08 ort(H,U,f) =-0.223E-05 0.360E-05-0.124E-08
CGA: 261    -0.223323026279E+03   -0.43464E-05   -0.43600E-05  5760   0.317E-04 0.137E-05
 gam= 1.745 trial= 0.448  step= 0.272 mean= 0.448
 gam= 0.546 g(H,U,f)=  0.772E-05 0.955E-05 0.143E-07 ort(H,U,f) =-0.700E-05 0.866E-05 0.157E-07
CGA: 262    -0.223323031277E+03   -0.49987E-05   -0.46372E-05  5760   0.173E-04 0.168E-05
 gam= 0.546 trial= 0.440  step= 0.634 mean= 0.440
 gam= 1.380 g(H,U,f)=  0.771E-05 0.161E-04 0.720E-08 ort(H,U,f) =-0.397E-05 0.377E-05 0.138E-07
CGA: 263    -0.223323036927E+03   -0.56495E-05   -0.57665E-05  5760   0.238E-04-0.193E-06
 gam= 1.380 trial= 0.449  step= 0.291 mean= 0.449
 gam= 0.922 g(H,U,f)=  0.764E-05 0.143E-04 0.263E-08 ort(H,U,f) =-0.354E-05 0.483E-05-0.903E-08
CGA: 264    -0.223323040591E+03   -0.36643E-05   -0.34283E-05  5760   0.220E-04 0.128E-05
 gam= 0.922 trial= 0.441  step= 0.506 mean= 0.441
 gam= 1.086 g(H,U,f)=  0.865E-05 0.152E-04 0.353E-07 ort(H,U,f) =-0.431E-05 0.339E-05-0.572E-07
CGA: 265    -0.223323046369E+03   -0.57780E-05   -0.58584E-05  5760   0.239E-04-0.975E-06
 gam= 1.086 trial= 0.445  step= 0.429 mean= 0.445
 gam= 1.157 g(H,U,f)=  0.873E-05 0.189E-04 0.890E-08 ort(H,U,f) =-0.369E-05 0.457E-05-0.123E-07
CGA: 266    -0.223323051282E+03   -0.49127E-05   -0.48964E-05  5760   0.276E-04 0.868E-06
 gam= 1.157 trial= 0.444  step= 0.305 mean= 0.444
 gam= 0.710 g(H,U,f)=  0.724E-05 0.124E-04 0.669E-08 ort(H,U,f) =-0.385E-05 0.462E-05-0.305E-08
CGA: 267    -0.223323055875E+03   -0.45932E-05   -0.43666E-05  5760   0.196E-04 0.773E-06
 gam= 0.710 trial= 0.437  step= 0.444 mean= 0.437
 gam= 1.129 g(H,U,f)=  0.760E-05 0.145E-04 0.216E-07 ort(H,U,f) =-0.210E-05 0.185E-05 0.134E-07
CGA: 268    -0.223323060339E+03   -0.44641E-05   -0.44712E-05  5760   0.221E-04-0.241E-06
 gam= 1.129 trial= 0.437  step= 0.420 mean= 0.437
 gam= 1.207 g(H,U,f)=  0.829E-05 0.184E-04 0.110E-07 ort(H,U,f) =-0.232E-05 0.216E-05 0.217E-07
CGA: 269    -0.223323064946E+03   -0.46066E-05   -0.45863E-05  5760   0.267E-04-0.136E-06
 gam= 1.207 trial= 0.436  step= 0.340 mean= 0.436
 gam= 0.636 g(H,U,f)=  0.649E-05 0.105E-04 0.833E-09 ort(H,U,f) =-0.363E-05 0.410E-05-0.634E-08
CGA: 270    -0.223323069612E+03   -0.46661E-05   -0.45045E-05  5760   0.170E-04 0.461E-06
 gam= 0.636 trial= 0.431  step= 0.371 mean= 0.431
 gam= 0.950 g(H,U,f)=  0.529E-05 0.108E-04 0.104E-07 ort(H,U,f) =-0.139E-05 0.196E-05-0.234E-07
CGA: 271    -0.223323072879E+03   -0.32668E-05   -0.32026E-05  5760   0.161E-04 0.544E-06
 gam= 0.950 trial= 0.428  step= 0.332 mean= 0.428
 gam= 0.876 g(H,U,f)=  0.462E-05 0.949E-05 0.530E-08 ort(H,U,f) =-0.130E-05 0.180E-05-0.853E-08
CGA: 272    -0.223323075691E+03   -0.28118E-05   -0.27595E-05  5760   0.141E-04 0.491E-06
 gam= 0.876 trial= 0.424  step= 0.492 mean= 0.424
 gam= 0.970 g(H,U,f)=  0.469E-05 0.899E-05 0.113E-07 ort(H,U,f) =-0.264E-05 0.253E-05 0.451E-08
CGA: 273    -0.223323079235E+03   -0.35446E-05   -0.35801E-05  5760   0.137E-04-0.106E-06
 gam= 0.970 trial= 0.427  step= 0.335 mean= 0.427
 gam= 0.994 g(H,U,f)=  0.473E-05 0.886E-05 0.204E-07 ort(H,U,f) =-0.167E-05 0.237E-05 0.203E-07
CGA: 274    -0.223323081597E+03   -0.23617E-05   -0.22792E-05  5760   0.136E-04 0.720E-06
 gam= 0.994 trial= 0.422  step= 0.374 mean= 0.422
 gam= 0.781 g(H,U,f)=  0.416E-05 0.647E-05 0.104E-08 ort(H,U,f) =-0.185E-05 0.166E-05 0.801E-08
CGA: 275    -0.223323084323E+03   -0.27256E-05   -0.26809E-05  5760   0.106E-04-0.184E-06
 gam= 0.781 trial= 0.420  step= 0.396 mean= 0.420
 gam= 1.028 g(H,U,f)=  0.345E-05 0.747E-05 0.106E-07 ort(H,U,f) =-0.673E-06 0.116E-05-0.247E-07
CGA: 276    -0.223323086400E+03   -0.20777E-05   -0.20751E-05  5760   0.109E-04 0.459E-06
 gam= 1.028 trial= 0.419  step= 0.382 mean= 0.419
 gam= 0.788 g(H,U,f)=  0.300E-05 0.561E-05 0.968E-08 ort(H,U,f) =-0.119E-05 0.163E-05-0.162E-07
CGA: 277    -0.223323088595E+03   -0.21946E-05   -0.21754E-05  5760   0.862E-05 0.426E-06
 gam= 0.788 trial= 0.417  step= 0.311 mean= 0.417
 gam= 0.887 g(H,U,f)=  0.294E-05 0.470E-05 0.108E-08 ort(H,U,f) =-0.511E-06 0.728E-06-0.120E-08
CGA: 278    -0.223323090063E+03   -0.14678E-05   -0.13913E-05  5760   0.764E-05 0.215E-06
 gam= 0.887 trial= 0.412  step= 0.522 mean= 0.412
 gam= 1.290 g(H,U,f)=  0.269E-05 0.716E-05 0.115E-07 ort(H,U,f) =-0.126E-05 0.565E-06 0.292E-08
CGA: 279    -0.223323092030E+03   -0.19678E-05   -0.20435E-05  5760   0.986E-05-0.696E-06
 gam= 1.290 trial= 0.417  step= 0.278 mean= 0.417
 gam= 0.556 g(H,U,f)=  0.258E-05 0.289E-05 0.548E-08 ort(H,U,f) =-0.194E-05 0.212E-05 0.968E-08
CGA: 280    -0.223323093325E+03   -0.12944E-05   -0.12438E-05  5760   0.548E-05 0.192E-06
 gam= 0.556 trial= 0.410  step= 0.453 mean= 0.410
 gam= 0.979 g(H,U,f)=  0.223E-05 0.313E-05 0.254E-08 ort(H,U,f) =-0.488E-06 0.802E-06-0.735E-08
CGA: 281    -0.223323094584E+03   -0.12594E-05   -0.12635E-05  5760   0.536E-05 0.307E-06
 gam= 0.979 trial= 0.412  step= 0.381 mean= 0.412
 gam= 1.145 g(H,U,f)=  0.200E-05 0.413E-05 0.428E-08 ort(H,U,f) =-0.254E-06 0.470E-06-0.622E-08
CGA: 282    -0.223323095672E+03   -0.10877E-05   -0.10796E-05  5760   0.614E-05 0.209E-06
 gam= 1.145 trial= 0.411  step= 0.355 mean= 0.411
 gam= 0.850 g(H,U,f)=  0.178E-05 0.343E-05 0.186E-08 ort(H,U,f) =-0.927E-06 0.592E-06-0.186E-08
CGA: 283    -0.223323096829E+03   -0.11576E-05   -0.11305E-05  5760   0.521E-05-0.337E-06
 gam= 0.850 trial= 0.408  step= 0.390 mean= 0.408
 gam= 0.825 g(H,U,f)=  0.181E-05 0.250E-05 0.650E-09 ort(H,U,f) =-0.875E-06 0.597E-06 0.963E-10
CGA: 284    -0.223323097796E+03   -0.96692E-06   -0.96165E-06  5760   0.430E-05-0.278E-06
 gam= 0.825 trial= 0.407  step= 0.422 mean= 0.407
 final diagonalization
   1 F= -.23276166E+03 E0= -.23275829E+03  d E =-.674700E-02  mag=     6.0000
