 running on   64 total cores
 distrk:  each k-point on   64 cores,    1 groups
 distr:  one band on    4 cores,   16 groups
 using from now: INCAR     
 vasp.5.4.4.18Apr17-6-g9f103f2a35 (build Nov 22 2021 14:44:17) complex          
  
 POSCAR found type information on POSCAR  Li Co O 
 POSCAR found :  3 types and      42 ions
 scaLAPACK will be used
 LDA part: xc-table for Pade appr. of Perdew
 generate k-points for:    6    6    2
 POSCAR, INCAR and KPOINTS ok, starting setup
 FFT: planning ...
 WAVECAR not read
 entering main loop
       N       E                     dE             d eps       ncg     rms          ort
DAV:   1     0.348222883934E+04    0.34822E+04   -0.13922E+05  5760   0.215E+03
DAV:   2     0.418546060514E+03   -0.30637E+04   -0.28231E+04  5760   0.525E+02
DAV:   3    -0.217924760375E+03   -0.63647E+03   -0.58363E+03  5760   0.254E+02
DAV:   4    -0.269911708675E+03   -0.51987E+02   -0.50791E+02  5760   0.745E+01
DAV:   5    -0.271819882369E+03   -0.19082E+01   -0.19041E+01  5760   0.142E+01
 gam= 0.000 g(H,U,f)=  0.191E+04 0.148E+04 0.273E+03 ort(H,U,f) = 0.000E+00 0.000E+00 0.000E+00
SDA:   6     0.163743604601E+03    0.43556E+03   -0.19041E+01  5760   0.367E+04 0.000E+00
 gam= 0.000 trial= 0.400  step= 0.063 mean= 0.400
 gam= 0.884 g(H,U,f)=  0.114E+04 0.122E+04 0.874E+03 ort(H,U,f) = 0.104E+04 0.506E+03-0.208E+02
CGA:   7     0.572376702458E+02   -0.10651E+03   -0.11547E+03  5760   0.324E+04 0.153E+04
 gam= 0.884 trial= 0.383  step= 0.098 mean= 0.383
 gam= 2.247 g(H,U,f)=  0.380E+03 0.270E+04 0.420E+04 ort(H,U,f) = 0.179E+03 0.257E+03-0.410E+03
CGA:   8    -0.687399278807E+02   -0.12598E+03   -0.22424E+03  5760   0.728E+04 0.257E+02
 gam= 2.247 trial= 0.369  step= 0.047 mean= 0.369
 gam= 0.000 g(H,U,f)=  0.235E+04 0.115E+04 0.623E+03 ort(H,U,f) = 0.434E+04 0.151E+04-0.123E+04
CGA:   9     0.251747981864E+03    0.32049E+03   -0.17348E+03  5760   0.413E+04 0.463E+04
 gam= 0.000 trial= 0.353  step= 0.073 mean= 0.353
 gam= 0.552 g(H,U,f)=  0.135E+04 0.691E+03 0.240E+03 ort(H,U,f) = 0.156E+04-0.665E+02-0.288E+03
CGA:  10     0.130980353941E+03   -0.12077E+03   -0.15141E+03  5760   0.228E+04 0.120E+04
 gam= 0.552 trial= 0.339  step= 0.128 mean= 0.339
 gam= 0.397 g(H,U,f)=  0.603E+03 0.264E+03 0.368E+02 ort(H,U,f) = 0.549E+03-0.133E+03 0.325E+01
CGA:  11    -0.206192801916E+02   -0.15160E+03   -0.18756E+03  5760   0.904E+03 0.420E+03
 gam= 0.397 trial= 0.328  step= 0.082 mean= 0.328
 gam= 1.074 g(H,U,f)=  0.449E+03 0.443E+03 0.786E+02 ort(H,U,f) = 0.525E+03-0.156E+03-0.394E+02
CGA:  12    -0.647905273224E+02   -0.44171E+02   -0.44115E+02  5760   0.971E+03 0.330E+03
 gam= 1.074 trial= 0.316  step= 0.123 mean= 0.316
 gam= 1.131 g(H,U,f)=  0.267E+03 0.772E+03 0.593E+02 ort(H,U,f) = 0.210E+03-0.165E+03-0.125E+02
CGA:  13    -0.129665300384E+03   -0.64875E+02   -0.81591E+02  5760   0.110E+04 0.324E+02
 gam= 1.131 trial= 0.306  step= 0.055 mean= 0.306
 gam= 0.945 g(H,U,f)=  0.280E+03 0.672E+03 0.864E+02 ort(H,U,f) = 0.324E+03-0.380E+03-0.684E+02
CGA:  14    -0.124446354376E+03    0.52189E+01   -0.31050E+02  5760   0.104E+04-0.125E+03
 gam= 0.945 trial= 0.294  step= 0.082 mean= 0.294
 gam= 0.702 g(H,U,f)=  0.218E+03 0.471E+03 0.394E+02 ort(H,U,f) = 0.978E+02 0.801E+01-0.815E+01
CGA:  15    -0.137887345067E+03   -0.13441E+02   -0.37915E+02  5760   0.729E+03 0.976E+02
 gam= 0.702 trial= 0.283  step= 0.052 mean= 0.283
 gam= 0.798 g(H,U,f)=  0.213E+03 0.321E+03 0.470E+02 ort(H,U,f) = 0.529E+02-0.209E+03-0.242E+02
CGA:  16    -0.137914561772E+03   -0.27217E-01   -0.20893E+02  5760   0.581E+03-0.180E+03
 gam= 0.798 trial= 0.272  step= 0.066 mean= 0.272
 gam= 0.793 g(H,U,f)=  0.202E+03 0.238E+03 0.205E+02 ort(H,U,f) = 0.711E+02-0.536E+02-0.784E+01
CGA:  17    -0.143062635422E+03   -0.51481E+01   -0.14512E+02  5760   0.461E+03 0.973E+01
 gam= 0.793 trial= 0.261  step= 0.070 mean= 0.261
 gam= 0.876 g(H,U,f)=  0.147E+03 0.240E+03 0.174E+02 ort(H,U,f) = 0.529E+02-0.108E+03-0.916E+01
CGA:  18    -0.150716822886E+03   -0.76542E+01   -0.16404E+02  5760   0.404E+03-0.646E+02
 gam= 0.876 trial= 0.252  step= 0.079 mean= 0.252
 gam= 0.578 g(H,U,f)=  0.981E+02 0.125E+03 0.101E+02 ort(H,U,f) =-0.750E+01-0.239E+02-0.496E+01
CGA:  19    -0.158913348583E+03   -0.81965E+01   -0.13770E+02  5760   0.233E+03-0.364E+02
 gam= 0.578 trial= 0.243  step= 0.081 mean= 0.243
 gam= 0.701 g(H,U,f)=  0.793E+02 0.781E+02 0.609E+01 ort(H,U,f) = 0.751E+01-0.214E+02-0.356E+01
CGA:  20    -0.165359255849E+03   -0.64459E+01   -0.86209E+01  5760   0.163E+03-0.175E+02
 gam= 0.701 trial= 0.235  step= 0.129 mean= 0.235
 gam= 1.044 g(H,U,f)=  0.576E+02 0.986E+02 0.144E+02 ort(H,U,f) = 0.100E+02-0.580E+01-0.272E+01
CGA:  21    -0.174039477615E+03   -0.86802E+01   -0.97703E+01  5760   0.171E+03 0.153E+01
 gam= 1.044 trial= 0.230  step= 0.099 mean= 0.230
 gam= 0.599 g(H,U,f)=  0.431E+02 0.552E+02 0.390E+01 ort(H,U,f) = 0.417E+01-0.153E+02-0.379E+01
CGA:  22    -0.180963960684E+03   -0.69245E+01   -0.85528E+01  5760   0.102E+03-0.149E+02
 gam= 0.599 trial= 0.223  step= 0.138 mean= 0.223
 gam= 0.470 g(H,U,f)=  0.262E+02 0.203E+02 0.148E+01 ort(H,U,f) = 0.909E+00-0.105E+01-0.952E+00
CGA:  23    -0.187141556189E+03   -0.61776E+01   -0.64505E+01  5760   0.480E+02-0.109E+01
 gam= 0.470 trial= 0.219  step= 0.200 mean= 0.219
 gam= 1.190 g(H,U,f)=  0.205E+02 0.338E+02 0.286E+01 ort(H,U,f) = 0.601E+01-0.433E+01-0.114E+01
CGA:  24    -0.191865426443E+03   -0.47239E+01   -0.47532E+01  5760   0.571E+02 0.533E+00
 gam= 1.190 trial= 0.218  step= 0.168 mean= 0.218
 gam= 0.760 g(H,U,f)=  0.162E+02 0.242E+02 0.294E+01 ort(H,U,f) = 0.152E+00-0.177E+00-0.912E+00
CGA:  25    -0.196770880457E+03   -0.49055E+01   -0.48636E+01  5760   0.434E+02-0.937E+00
 gam= 0.760 trial= 0.216  step= 0.191 mean= 0.216
 gam= 0.758 g(H,U,f)=  0.153E+02 0.161E+02 0.151E+01 ort(H,U,f) =-0.323E+01 0.291E+01-0.113E+01
CGA:  26    -0.200817943837E+03   -0.40471E+01   -0.40715E+01  5760   0.329E+02-0.145E+01
 gam= 0.758 trial= 0.214  step= 0.149 mean= 0.214
 gam= 1.297 g(H,U,f)=  0.135E+02 0.262E+02 0.293E+01 ort(H,U,f) = 0.189E+01-0.355E+01-0.541E+00
CGA:  27    -0.203592884378E+03   -0.27749E+01   -0.23697E+01  5760   0.427E+02-0.220E+01
 gam= 1.297 trial= 0.211  step= 0.183 mean= 0.211
 gam= 0.909 g(H,U,f)=  0.175E+02 0.195E+02 0.182E+01 ort(H,U,f) =-0.114E+02 0.581E+01-0.240E+01
CGA:  28    -0.207436599587E+03   -0.38437E+01   -0.36453E+01  5760   0.388E+02-0.801E+01
 gam= 0.909 trial= 0.210  step= 0.050 mean= 0.210
 gam= 0.794 g(H,U,f)=  0.171E+02 0.127E+02 0.969E+00 ort(H,U,f) = 0.434E+00 0.783E+01 0.816E+00
CGA:  29    -0.208513967693E+03   -0.10774E+01   -0.79221E+00  5760   0.308E+02 0.908E+01
 gam= 0.794 trial= 0.202  step= 0.074 mean= 0.202
 gam= 1.229 g(H,U,f)=  0.144E+02 0.213E+02 0.209E+01 ort(H,U,f) = 0.716E+01-0.179E+01-0.319E+00
CGA:  30    -0.210122149875E+03   -0.16082E+01   -0.13989E+01  5760   0.379E+02 0.505E+01
 gam= 1.229 trial= 0.195  step= 0.046 mean= 0.195
 gam= 0.911 g(H,U,f)=  0.135E+02 0.194E+02 0.159E+01 ort(H,U,f) = 0.116E+02-0.641E+01-0.119E+01
CGA:  31    -0.211081956160E+03   -0.95981E+00   -0.10078E+01  5760   0.345E+02 0.395E+01
 gam= 0.911 trial= 0.188  step= 0.050 mean= 0.188
 gam= 1.224 g(H,U,f)=  0.130E+02 0.209E+02 0.836E+01 ort(H,U,f) = 0.109E+02-0.117E+02 0.798E+00
CGA:  32    -0.211874285197E+03   -0.79233E+00   -0.95937E+00  5760   0.422E+02 0.222E-01
 gam= 1.224 trial= 0.181  step= 0.031 mean= 0.181
 gam= 0.772 g(H,U,f)=  0.130E+02 0.172E+02 0.244E+01 ort(H,U,f) = 0.135E+02-0.140E+02 0.243E+01
CGA:  33    -0.212200088741E+03   -0.32580E+00   -0.65528E+00  5760   0.326E+02 0.191E+01
 gam= 0.772 trial= 0.173  step= 0.035 mean= 0.173
 gam= 1.034 g(H,U,f)=  0.123E+02 0.182E+02 0.331E+01 ort(H,U,f) = 0.124E+02-0.100E+02-0.477E+01
CGA:  34    -0.212505364035E+03   -0.30528E+00   -0.60178E+00  5760   0.337E+02-0.242E+01
 gam= 1.034 trial= 0.167  step= 0.028 mean= 0.167
 gam= 0.814 g(H,U,f)=  0.106E+02 0.133E+02 0.348E+01 ort(H,U,f) = 0.144E+02-0.494E+01-0.366E+01
CGA:  35    -0.212918855874E+03   -0.41349E+00   -0.43838E+00  5760   0.274E+02 0.581E+01
 gam= 0.814 trial= 0.160  step= 0.030 mean= 0.160
 gam= 0.560 g(H,U,f)=  0.851E+01 0.632E+01 0.537E+00 ort(H,U,f) = 0.125E+02-0.703E+01-0.409E+00
CGA:  36    -0.213382889400E+03   -0.46403E+00   -0.47901E+00  5760   0.154E+02 0.505E+01
 gam= 0.560 trial= 0.153  step= 0.047 mean= 0.153
 gam= 1.167 g(H,U,f)=  0.653E+01 0.887E+01 0.254E+01 ort(H,U,f) = 0.849E+01-0.622E+01-0.432E+00
CGA:  37    -0.213724455745E+03   -0.34157E+00   -0.43155E+00  5760   0.179E+02 0.184E+01
 gam= 1.167 trial= 0.148  step= 0.055 mean= 0.148
 gam= 1.145 g(H,U,f)=  0.508E+01 0.114E+02 0.406E+01 ort(H,U,f) = 0.408E+01-0.359E+01 0.219E+01
CGA:  38    -0.214137401820E+03   -0.41295E+00   -0.55262E+00  5760   0.205E+02 0.269E+01
 gam= 1.145 trial= 0.143  step= 0.040 mean= 0.143
 gam= 0.532 g(H,U,f)=  0.476E+01 0.586E+01 0.303E+00 ort(H,U,f) =-0.189E+01-0.616E+00 0.135E+01
CGA:  39    -0.214424412140E+03   -0.28701E+00   -0.47307E+00  5760   0.109E+02-0.116E+01
 gam= 0.532 trial= 0.138  step= 0.050 mean= 0.138
 gam= 0.000 g(H,U,f)=  0.444E+01 0.486E+01 0.349E+00 ort(H,U,f) =-0.502E+00 0.145E+01-0.213E-02
SDA:  40    -0.214606998101E+03   -0.18259E+00   -0.25778E+00  5760   0.965E+01 0.947E+00
 gam= 0.000 trial= 0.134  step= 0.199 mean= 0.134
 gam= 2.066 g(H,U,f)=  0.230E+01 0.118E+02 0.580E+01 ort(H,U,f) = 0.190E+01-0.132E+01-0.189E+01
CGA:  41    -0.215508127624E+03   -0.90113E+00   -0.95973E+00  5760   0.199E+02-0.131E+01
 gam= 2.066 trial= 0.137  step= 0.102 mean= 0.137
 gam= 0.472 g(H,U,f)=  0.245E+01 0.652E+01 0.452E+00 ort(H,U,f) =-0.586E-01-0.450E-01 0.263E+00
CGA:  42    -0.216388419123E+03   -0.88029E+00   -0.88332E+00  5760   0.941E+01 0.159E+00
 gam= 0.472 trial= 0.135  step= 0.169 mean= 0.135
 gam= 1.210 g(H,U,f)=  0.204E+01 0.585E+01 0.351E+01 ort(H,U,f) = 0.203E+00 0.229E+01-0.103E+01
CGA:  43    -0.217218622954E+03   -0.83020E+00   -0.80344E+00  5760   0.114E+02 0.146E+01
 gam= 1.210 trial= 0.137  step= 0.144 mean= 0.137
 gam= 0.402 g(H,U,f)=  0.126E+01 0.308E+01 0.242E+00 ort(H,U,f) =-0.171E+01 0.260E+01-0.181E+00
CGA:  44    -0.218173634630E+03   -0.95501E+00   -0.94927E+00  5760   0.459E+01 0.709E+00
 gam= 0.402 trial= 0.137  step= 0.158 mean= 0.137
 gam= 1.108 g(H,U,f)=  0.101E+01 0.323E+01 0.838E+00 ort(H,U,f) =-0.506E+00 0.607E+00-0.263E+00
CGA:  45    -0.218553695762E+03   -0.38006E+00   -0.38555E+00  5760   0.508E+01-0.162E+00
 gam= 1.108 trial= 0.138  step= 0.134 mean= 0.138
 gam= 0.640 g(H,U,f)=  0.119E+01 0.197E+01 0.944E-01 ort(H,U,f) =-0.639E+00 0.727E+00 0.106E+00
CGA:  46    -0.218880377441E+03   -0.32668E+00   -0.32723E+00  5760   0.325E+01 0.194E+00
 gam= 0.640 trial= 0.138  step= 0.189 mean= 0.138
 gam= 1.512 g(H,U,f)=  0.871E+00 0.351E+01 0.531E+00 ort(H,U,f) = 0.115E+00 0.272E+00-0.102E+00
CGA:  47    -0.219205218500E+03   -0.32484E+00   -0.31848E+00  5760   0.492E+01 0.285E+00
 gam= 1.512 trial= 0.141  step= 0.101 mean= 0.141
 gam= 0.299 g(H,U,f)=  0.522E+00 0.888E+00 0.589E-01 ort(H,U,f) =-0.800E-01 0.137E+00 0.136E+00
CGA:  48    -0.219476102668E+03   -0.27088E+00   -0.26996E+00  5760   0.147E+01 0.193E+00
 gam= 0.299 trial= 0.139  step= 0.169 mean= 0.139
 gam= 0.719 g(H,U,f)=  0.184E+00 0.688E+00 0.183E+00 ort(H,U,f) = 0.684E-01 0.666E-01-0.158E+00
CGA:  49    -0.219608266505E+03   -0.13216E+00   -0.12915E+00  5760   0.106E+01-0.232E-01
 gam= 0.719 trial= 0.140  step= 0.096 mean= 0.140
 gam= 0.767 g(H,U,f)=  0.145E+00 0.512E+00 0.153E+00 ort(H,U,f) = 0.328E-01 0.306E-01-0.163E+00
CGA:  50    -0.219660439533E+03   -0.52173E-01   -0.49645E-01  5760   0.809E+00-0.992E-01
 gam= 0.767 trial= 0.138  step= 0.222 mean= 0.138
 gam= 1.394 g(H,U,f)=  0.208E+00 0.597E+00 0.323E+00 ort(H,U,f) =-0.946E-01 0.223E+00-0.324E-01
CGA:  51    -0.219744396807E+03   -0.83957E-01   -0.81388E-01  5760   0.113E+01 0.964E-01
 gam= 1.394 trial= 0.142  step= 0.130 mean= 0.142
 gam= 1.095 g(H,U,f)=  0.255E+00 0.645E+00 0.335E+00 ort(H,U,f) =-0.168E+00 0.373E+00 0.227E+00
CGA:  52    -0.219823938653E+03   -0.79542E-01   -0.82039E-01  5760   0.124E+01 0.432E+00
 gam= 1.095 trial= 0.142  step= 0.136 mean= 0.142
 gam= 0.717 g(H,U,f)=  0.240E+00 0.472E+00 0.174E+00 ort(H,U,f) =-0.182E+00 0.602E+00-0.467E+00
CGA:  53    -0.219938087725E+03   -0.11415E+00   -0.11632E+00  5760   0.886E+00-0.465E-01
 gam= 0.717 trial= 0.141  step= 0.660 mean= 0.141
 gam= 0.000 g(H,U,f)=  0.302E+01 0.631E+01 0.172E+01 ort(H,U,f) =-0.726E+00-0.576E+00-0.720E+00
CGA:  54    -0.219705027187E+03    0.23306E+00   -0.28160E+00  5760   0.110E+02-0.202E+01
 gam= 0.000 trial= 0.167  step= 0.085 mean= 0.167
 gam= 0.214 g(H,U,f)=  0.724E+00 0.132E+01 0.318E+00 ort(H,U,f) = 0.994E+00 0.197E+00-0.254E+00
CGA:  55    -0.220231263743E+03   -0.52624E+00   -0.46911E+00  5760   0.236E+01 0.936E+00
 gam= 0.214 trial= 0.163  step= 0.128 mean= 0.163
 gam= 0.301 g(H,U,f)=  0.212E+00 0.364E+00 0.136E+00 ort(H,U,f) = 0.131E+00 0.148E-01-0.131E+00
CGA:  56    -0.220390884036E+03   -0.15962E+00   -0.16461E+00  5760   0.713E+00 0.154E-01
 gam= 0.301 trial= 0.161  step= 0.261 mean= 0.161
 gam= 1.013 g(H,U,f)=  0.232E+00 0.448E+00 0.413E-01 ort(H,U,f) =-0.225E-01 0.595E-01-0.175E-01
CGA:  57    -0.220486252843E+03   -0.95369E-01   -0.93562E-01  5760   0.722E+00 0.195E-01
 gam= 1.013 trial= 0.166  step= 0.323 mean= 0.166
 gam= 2.502 g(H,U,f)=  0.332E+00 0.110E+01 0.373E+00 ort(H,U,f) =-0.639E-01 0.746E-01-0.116E-02
CGA:  58    -0.220599255068E+03   -0.11300E+00   -0.11968E+00  5760   0.181E+01 0.951E-02
 gam= 2.502 trial= 0.174  step= 0.144 mean= 0.174
 gam= 0.440 g(H,U,f)=  0.355E+00 0.393E+00 0.477E-01 ort(H,U,f) =-0.654E+00 0.601E+00 0.107E+00
CGA:  59    -0.220729740663E+03   -0.13049E+00   -0.13207E+00  5760   0.795E+00 0.541E-01
 gam= 0.440 trial= 0.173  step= 0.220 mean= 0.173
 gam= 1.691 g(H,U,f)=  0.410E+00 0.804E+00 0.130E+00 ort(H,U,f) =-0.180E+00 0.334E+00-0.463E-01
CGA:  60    -0.220822633890E+03   -0.92893E-01   -0.89925E-01  5760   0.134E+01 0.107E+00
 gam= 1.691 trial= 0.175  step= 0.289 mean= 0.175
 gam= 1.826 g(H,U,f)=  0.970E+00 0.989E+00 0.497E+00 ort(H,U,f) =-0.702E+00 0.357E+00 0.227E+00
CGA:  61    -0.221008979840E+03   -0.18635E+00   -0.22054E+00  5760   0.245E+01-0.117E+00
 gam= 1.826 trial= 0.181  step= 0.156 mean= 0.181
 gam= 1.131 g(H,U,f)=  0.134E+01 0.110E+01 0.341E+00 ort(H,U,f) =-0.911E+00 0.406E+00 0.460E+00
CGA:  62    -0.221191106150E+03   -0.18213E+00   -0.17456E+00  5760   0.278E+01-0.451E-01
 gam= 1.131 trial= 0.179  step= 0.077 mean= 0.179
 gam= 0.839 g(H,U,f)=  0.121E+01 0.110E+01 0.256E-01 ort(H,U,f) =-0.149E+00-0.341E-01 0.344E-01
CGA:  63    -0.221288234541E+03   -0.97128E-01   -0.10428E+00  5760   0.233E+01-0.149E+00
 gam= 0.839 trial= 0.174  step= 0.089 mean= 0.174
 gam= 0.884 g(H,U,f)=  0.911E+00 0.115E+01 0.399E-03 ort(H,U,f) = 0.394E+00-0.339E+00 0.774E-03
CGA:  64    -0.221383637348E+03   -0.95403E-01   -0.97559E-01  5760   0.206E+01 0.559E-01
 gam= 0.884 trial= 0.170  step= 0.104 mean= 0.170
 gam= 0.833 g(H,U,f)=  0.642E+00 0.107E+01 0.436E-03 ort(H,U,f) = 0.180E+00-0.178E+00 0.121E-02
CGA:  65    -0.221488921250E+03   -0.10528E+00   -0.10928E+00  5760   0.172E+01 0.328E-02
 gam= 0.833 trial= 0.167  step= 0.113 mean= 0.167
 gam= 0.861 g(H,U,f)=  0.614E+00 0.862E+00 0.213E-02 ort(H,U,f) =-0.245E+00 0.247E+00 0.447E-02
CGA:  66    -0.221586124495E+03   -0.97203E-01   -0.96786E-01  5760   0.148E+01 0.556E-02
 gam= 0.861 trial= 0.164  step= 0.130 mean= 0.164
 gam= 0.957 g(H,U,f)=  0.738E+00 0.674E+00 0.294E-02 ort(H,U,f) =-0.385E+00 0.473E+00 0.717E-02
CGA:  67    -0.221680974688E+03   -0.94850E-01   -0.96006E-01  5760   0.141E+01 0.954E-01
 gam= 0.957 trial= 0.162  step= 0.152 mean= 0.162
 gam= 0.912 g(H,U,f)=  0.818E+00 0.472E+00 0.961E-04 ort(H,U,f) =-0.329E+00 0.325E+00 0.927E-03
CGA:  68    -0.221795430431E+03   -0.11446E+00   -0.11450E+00  5760   0.129E+01-0.332E-02
 gam= 0.912 trial= 0.162  step= 0.145 mean= 0.162
 gam= 0.853 g(H,U,f)=  0.664E+00 0.421E+00 0.150E-01 ort(H,U,f) =-0.118E+00 0.129E+00-0.611E-02
CGA:  69    -0.221889024167E+03   -0.93594E-01   -0.93453E-01  5760   0.110E+01 0.462E-02
 gam= 0.853 trial= 0.161  step= 0.138 mean= 0.161
 gam= 0.779 g(H,U,f)=  0.456E+00 0.392E+00 0.877E-02 ort(H,U,f) =-0.149E+00 0.136E+00 0.916E-02
CGA:  70    -0.221965451530E+03   -0.76427E-01   -0.76266E-01  5760   0.857E+00-0.403E-02
 gam= 0.779 trial= 0.160  step= 0.142 mean= 0.160
 gam= 0.993 g(H,U,f)=  0.425E+00 0.404E+00 0.213E-01 ort(H,U,f) =-0.224E+00 0.246E+00-0.279E-01
CGA:  71    -0.222026202280E+03   -0.60751E-01   -0.60689E-01  5760   0.851E+00-0.553E-02
 gam= 0.993 trial= 0.159  step= 0.158 mean= 0.159
 gam= 1.039 g(H,U,f)=  0.509E+00 0.350E+00 0.248E-01 ort(H,U,f) =-0.309E+00 0.319E+00-0.651E-02
CGA:  72    -0.222092800405E+03   -0.66598E-01   -0.66602E-01  5760   0.884E+00 0.402E-02
 gam= 1.039 trial= 0.159  step= 0.134 mean= 0.159
 gam= 0.741 g(H,U,f)=  0.447E+00 0.204E+00 0.431E-02 ort(H,U,f) =-0.184E+00 0.196E+00-0.627E-02
CGA:  73    -0.222152147999E+03   -0.59348E-01   -0.59542E-01  5760   0.655E+00 0.586E-02
 gam= 0.741 trial= 0.158  step= 0.131 mean= 0.158
 gam= 0.670 g(H,U,f)=  0.273E+00 0.154E+00 0.109E-01 ort(H,U,f) = 0.919E-02-0.779E-02 0.130E-02
CGA:  74    -0.222195298092E+03   -0.43150E-01   -0.43235E-01  5760   0.438E+00 0.270E-02
 gam= 0.670 trial= 0.156  step= 0.138 mean= 0.156
 gam= 0.835 g(H,U,f)=  0.185E+00 0.178E+00 0.332E-02 ort(H,U,f) = 0.283E-01-0.219E-01-0.692E-02
CGA:  75    -0.222225573794E+03   -0.30276E-01   -0.30296E-01  5760   0.366E+00-0.489E-03
 gam= 0.835 trial= 0.155  step= 0.162 mean= 0.155
 gam= 0.994 g(H,U,f)=  0.168E+00 0.183E+00 0.124E-01 ort(H,U,f) =-0.400E-01 0.415E-01-0.506E-02
CGA:  76    -0.222255137697E+03   -0.29564E-01   -0.29574E-01  5760   0.364E+00-0.352E-02
 gam= 0.994 trial= 0.156  step= 0.136 mean= 0.156
 gam= 0.782 g(H,U,f)=  0.160E+00 0.124E+00 0.457E-03 ort(H,U,f) =-0.676E-01 0.695E-01-0.123E-02
CGA:  77    -0.222279679222E+03   -0.24542E-01   -0.24544E-01  5760   0.284E+00 0.688E-03
 gam= 0.782 trial= 0.155  step= 0.138 mean= 0.155
 gam= 0.801 g(H,U,f)=  0.128E+00 0.926E-01 0.693E-02 ort(H,U,f) =-0.249E-01 0.277E-01-0.313E-02
CGA:  78    -0.222299301768E+03   -0.19623E-01   -0.19623E-01  5760   0.228E+00-0.334E-03
 gam= 0.801 trial= 0.154  step= 0.136 mean= 0.154
 gam= 0.807 g(H,U,f)=  0.100E+00 0.834E-01 0.663E-04 ort(H,U,f) =-0.777E-02 0.864E-02-0.615E-04
CGA:  79    -0.222314743034E+03   -0.15441E-01   -0.15448E-01  5760   0.184E+00 0.816E-03
 gam= 0.807 trial= 0.153  step= 0.146 mean= 0.153
 gam= 0.911 g(H,U,f)=  0.841E-01 0.773E-01 0.582E-02 ort(H,U,f) =-0.190E-01 0.227E-01-0.338E-02
CGA:  80    -0.222328153309E+03   -0.13410E-01   -0.13413E-01  5760   0.167E+00 0.367E-03
 gam= 0.911 trial= 0.153  step= 0.142 mean= 0.153
 gam= 0.862 g(H,U,f)=  0.814E-01 0.620E-01 0.750E-03 ort(H,U,f) =-0.397E-01 0.393E-01 0.925E-03
CGA:  81    -0.222340079218E+03   -0.11926E-01   -0.11932E-01  5760   0.144E+00 0.528E-03
 gam= 0.862 trial= 0.152  step= 0.153 mean= 0.152
 gam= 0.997 g(H,U,f)=  0.826E-01 0.577E-01 0.339E-02 ort(H,U,f) =-0.367E-01 0.392E-01-0.317E-02
CGA:  82    -0.222351168071E+03   -0.11089E-01   -0.11089E-01  5760   0.144E+00-0.657E-03
 gam= 0.997 trial= 0.152  step= 0.148 mean= 0.152
 gam= 0.864 g(H,U,f)=  0.761E-01 0.471E-01 0.958E-03 ort(H,U,f) =-0.334E-01 0.331E-01 0.142E-03
CGA:  83    -0.222361745281E+03   -0.10577E-01   -0.10576E-01  5760   0.124E+00-0.208E-03
 gam= 0.864 trial= 0.152  step= 0.135 mean= 0.152
 gam= 0.818 g(H,U,f)=  0.605E-01 0.392E-01 0.176E-02 ort(H,U,f) =-0.175E-01 0.183E-01-0.137E-02
CGA:  84    -0.222370115109E+03   -0.83698E-02   -0.83656E-02  5760   0.101E+00-0.572E-03
 gam= 0.818 trial= 0.151  step= 0.138 mean= 0.151
 gam= 0.000 g(H,U,f)=  0.481E-01 0.382E-01 0.959E-03 ort(H,U,f) =-0.119E-01 0.118E-01 0.391E-03
SDA:  85    -0.222377063422E+03   -0.69483E-02   -0.69510E-02  5760   0.872E-01 0.330E-03
 gam= 0.000 trial= 0.150  step= 0.290 mean= 0.150
 gam= 0.552 g(H,U,f)=  0.188E-01 0.194E-01 0.994E-02 ort(H,U,f) = 0.358E-02-0.151E-03-0.315E-02
CGA:  86    -0.222389776500E+03   -0.12713E-01   -0.12647E-01  5760   0.481E-01 0.274E-03
 gam= 0.552 trial= 0.157  step= 0.242 mean= 0.157
 gam= 1.084 g(H,U,f)=  0.155E-01 0.238E-01 0.129E-01 ort(H,U,f) = 0.576E-02 0.531E-02-0.919E-02
CGA:  87    -0.222395864708E+03   -0.60882E-02   -0.58395E-02  5760   0.522E-01 0.189E-02
 gam= 1.084 trial= 0.162  step= 0.351 mean= 0.162
 gam= 0.368 g(H,U,f)=  0.995E-02 0.891E-02 0.347E-03 ort(H,U,f) =-0.154E-01 0.168E-01-0.494E-03
CGA:  88    -0.222405476428E+03   -0.96117E-02   -0.95039E-02  5760   0.192E-01 0.882E-03
 gam= 0.368 trial= 0.171  step= 0.503 mean= 0.171
 gam= 0.917 g(H,U,f)=  0.791E-02 0.834E-02 0.135E-02 ort(H,U,f) =-0.383E-02 0.426E-02-0.315E-03
CGA:  89    -0.222410417266E+03   -0.49408E-02   -0.49124E-02  5760   0.176E-01 0.113E-03
 gam= 0.917 trial= 0.188  step= 0.414 mean= 0.188
 gam= 1.838 g(H,U,f)=  0.623E-02 0.129E-01 0.132E-01 ort(H,U,f) =-0.189E-02 0.516E-02-0.342E-02
CGA:  90    -0.222414143803E+03   -0.37265E-02   -0.36659E-02  5760   0.324E-01-0.151E-03
 gam= 1.838 trial= 0.199  step= 0.202 mean= 0.199
 gam= 0.334 g(H,U,f)=  0.698E-02 0.365E-02 0.186E-03 ort(H,U,f) =-0.770E-02 0.102E-01-0.821E-03
CGA:  91    -0.222417392156E+03   -0.32484E-02   -0.32422E-02  5760   0.108E-01 0.172E-02
 gam= 0.334 trial= 0.199  step= 0.782 mean= 0.199
 gam= 1.747 g(H,U,f)=  0.654E-02 0.836E-02 0.401E-02 ort(H,U,f) =-0.165E-02 0.177E-02-0.456E-03
CGA:  92    -0.222421768929E+03   -0.43768E-02   -0.44561E-02  5760   0.189E-01-0.334E-03
 gam= 1.747 trial= 0.228  step= 0.214 mean= 0.228
 gam= 0.902 g(H,U,f)=  0.538E-02 0.778E-02 0.389E-02 ort(H,U,f) =-0.214E-02 0.515E-02-0.324E-02
CGA:  93    -0.222423718603E+03   -0.19497E-02   -0.19602E-02  5760   0.170E-01-0.233E-03
 gam= 0.902 trial= 0.228  step= 0.293 mean= 0.228
 gam= 0.592 g(H,U,f)=  0.577E-02 0.432E-02 0.850E-05 ort(H,U,f) =-0.409E-02 0.464E-02-0.221E-04
CGA:  94    -0.222426219117E+03   -0.25005E-02   -0.24701E-02  5760   0.101E-01 0.530E-03
 gam= 0.592 trial= 0.231  step= 0.680 mean= 0.231
 gam= 2.436 g(H,U,f)=  0.610E-02 0.106E-01 0.791E-02 ort(H,U,f) =-0.280E-02 0.327E-02-0.743E-03
CGA:  95    -0.222429736303E+03   -0.35172E-02   -0.35377E-02  5760   0.246E-01-0.279E-03
 gam= 2.436 trial= 0.253  step= 0.173 mean= 0.253
 gam= 0.599 g(H,U,f)=  0.686E-02 0.600E-02 0.188E-02 ort(H,U,f) =-0.725E-02 0.982E-02-0.303E-02
CGA:  96    -0.222431695413E+03   -0.19591E-02   -0.20698E-02  5760   0.147E-01-0.466E-03
 gam= 0.599 trial= 0.249  step= 0.552 mean= 0.249
 gam= 1.451 g(H,U,f)=  0.932E-02 0.750E-02 0.457E-02 ort(H,U,f) =-0.466E-02 0.505E-02 0.111E-03
CGA:  97    -0.222435748715E+03   -0.40533E-02   -0.39911E-02  5760   0.214E-01 0.502E-03
 gam= 1.451 trial= 0.264  step= 0.205 mean= 0.264
 gam= 1.085 g(H,U,f)=  0.856E-02 0.749E-02 0.715E-02 ort(H,U,f) =-0.149E-02 0.582E-02-0.586E-02
CGA:  98    -0.222437936964E+03   -0.21882E-02   -0.22657E-02  5760   0.232E-01-0.153E-02
 gam= 1.085 trial= 0.261  step= 0.350 mean= 0.261
 gam= 0.636 g(H,U,f)=  0.675E-02 0.608E-02 0.193E-02 ort(H,U,f) =-0.401E-02 0.429E-02 0.283E-03
CGA:  99    -0.222441742947E+03   -0.38060E-02   -0.37677E-02  5760   0.148E-01 0.563E-03
 gam= 0.636 trial= 0.266  step= 0.209 mean= 0.266
 gam= 1.114 g(H,U,f)=  0.527E-02 0.681E-02 0.436E-02 ort(H,U,f) = 0.627E-03 0.261E-02-0.325E-02
CGA: 100    -0.222443325882E+03   -0.15829E-02   -0.15832E-02  5760   0.164E-01-0.736E-05
 gam= 1.114 trial= 0.263  step= 0.293 mean= 0.263
 gam= 0.470 g(H,U,f)=  0.385E-02 0.348E-02 0.388E-03 ort(H,U,f) =-0.226E-02 0.206E-02 0.226E-03
CGA: 101    -0.222445730602E+03   -0.24047E-02   -0.24043E-02  5760   0.772E-02 0.268E-04
 gam= 0.470 trial= 0.265  step= 0.304 mean= 0.265
 gam= 1.835 g(H,U,f)=  0.298E-02 0.675E-02 0.443E-02 ort(H,U,f) = 0.108E-03 0.149E-02-0.164E-02
CGA: 102    -0.222446905568E+03   -0.11750E-02   -0.11749E-02  5760   0.142E-01-0.393E-04
 gam= 1.835 trial= 0.267  step= 0.246 mean= 0.267
 gam= 0.434 g(H,U,f)=  0.297E-02 0.313E-02 0.524E-04 ort(H,U,f) =-0.438E-02 0.429E-02 0.141E-03
CGA: 103    -0.222448638280E+03   -0.17327E-02   -0.17339E-02  5760   0.615E-02 0.528E-04
 gam= 0.434 trial= 0.265  step= 0.377 mean= 0.265
 gam= 2.354 g(H,U,f)=  0.313E-02 0.599E-02 0.536E-02 ort(H,U,f) =-0.100E-02 0.218E-02-0.122E-02
CGA: 104    -0.222449804225E+03   -0.11659E-02   -0.11654E-02  5760   0.145E-01-0.451E-04
 gam= 2.354 trial= 0.271  step= 0.230 mean= 0.271
 gam= 0.588 g(H,U,f)=  0.467E-02 0.383E-02 0.134E-04 ort(H,U,f) =-0.463E-02 0.484E-02-0.181E-04
CGA: 105    -0.222451444712E+03   -0.16405E-02   -0.16504E-02  5760   0.852E-02 0.184E-03
 gam= 0.588 trial= 0.269  step= 0.415 mean= 0.269
 gam= 2.455 g(H,U,f)=  0.451E-02 0.789E-02 0.850E-02 ort(H,U,f) =-0.117E-02 0.266E-02-0.185E-02
CGA: 106    -0.222453228190E+03   -0.17835E-02   -0.17875E-02  5760   0.209E-01-0.357E-03
 gam= 2.455 trial= 0.276  step= 0.173 mean= 0.276
 gam= 0.390 g(H,U,f)=  0.522E-02 0.282E-02 0.124E-03 ort(H,U,f) =-0.574E-02 0.550E-02 0.454E-03
CGA: 107    -0.222454910809E+03   -0.16826E-02   -0.17352E-02  5760   0.816E-02 0.214E-03
 gam= 0.390 trial= 0.271  step= 0.260 mean= 0.271
 gam= 1.799 g(H,U,f)=  0.389E-02 0.471E-02 0.608E-02 ort(H,U,f) = 0.536E-03 0.126E-02-0.225E-02
CGA: 108    -0.222455982724E+03   -0.10719E-02   -0.10721E-02  5760   0.147E-01-0.446E-03
 gam= 1.799 trial= 0.271  step= 0.191 mean= 0.271
 gam= 0.568 g(H,U,f)=  0.361E-02 0.363E-02 0.110E-02 ort(H,U,f) =-0.143E-02 0.115E-02 0.884E-03
CGA: 109    -0.222457268022E+03   -0.12853E-02   -0.13249E-02  5760   0.834E-02 0.604E-03
 gam= 0.568 trial= 0.267  step= 0.152 mean= 0.267
 gam= 0.897 g(H,U,f)=  0.233E-02 0.304E-02 0.211E-02 ort(H,U,f) = 0.518E-03 0.105E-02-0.222E-02
CGA: 110    -0.222457898740E+03   -0.63072E-03   -0.65834E-03  5760   0.749E-02-0.658E-03
 gam= 0.897 trial= 0.261  step= 0.200 mean= 0.261
 gam= 0.700 g(H,U,f)=  0.170E-02 0.183E-02 0.171E-02 ort(H,U,f) =-0.696E-03 0.637E-03 0.967E-04
CGA: 111    -0.222458587366E+03   -0.68863E-03   -0.68982E-03  5760   0.524E-02 0.374E-04
 gam= 0.700 trial= 0.258  step= 0.121 mean= 0.258
 gam= 0.601 g(H,U,f)=  0.151E-02 0.136E-02 0.278E-03 ort(H,U,f) = 0.131E-03 0.254E-03-0.715E-03
CGA: 112    -0.222458877113E+03   -0.28975E-03   -0.31817E-03  5760   0.315E-02-0.330E-03
 gam= 0.601 trial= 0.251  step= 0.292 mean= 0.251
 gam= 1.685 g(H,U,f)=  0.998E-03 0.185E-02 0.246E-02 ort(H,U,f) =-0.533E-04 0.448E-03-0.471E-03
CGA: 113    -0.222459306348E+03   -0.42923E-03   -0.43107E-03  5760   0.531E-02-0.769E-04
 gam= 1.685 trial= 0.253  step= 0.113 mean= 0.253
 gam= 0.341 g(H,U,f)=  0.968E-03 0.769E-03 0.707E-04 ort(H,U,f) =-0.102E-02 0.760E-03 0.276E-03
CGA: 114    -0.222459551512E+03   -0.24516E-03   -0.29238E-03  5760   0.181E-02 0.207E-04
 gam= 0.341 trial= 0.246  step= 0.168 mean= 0.246
 gam= 1.348 g(H,U,f)=  0.670E-03 0.886E-03 0.881E-03 ort(H,U,f) = 0.775E-04 0.312E-03-0.587E-03
CGA: 115    -0.222459701974E+03   -0.15046E-03   -0.15266E-03  5760   0.244E-02-0.198E-03
 gam= 1.348 trial= 0.242  step= 0.170 mean= 0.242
 gam= 0.000 g(H,U,f)=  0.612E-03 0.740E-03 0.684E-03 ort(H,U,f) =-0.420E-03 0.405E-03 0.778E-04
SDA: 116    -0.222459883571E+03   -0.18160E-03   -0.18418E-03  5760   0.204E-02 0.621E-04
 gam= 0.000 trial= 0.239  step= 0.130 mean= 0.239
 gam= 0.328 g(H,U,f)=  0.217E-03 0.280E-03 0.170E-03 ort(H,U,f) = 0.207E-03 0.262E-04-0.341E-03
CGA: 117    -0.222460004589E+03   -0.12102E-03   -0.13204E-03  5760   0.667E-03-0.108E-03
 gam= 0.328 trial= 0.233  step= 0.418 mean= 0.233
 gam= 0.771 g(H,U,f)=  0.194E-03 0.307E-03 0.132E-04 ort(H,U,f) =-0.269E-04 0.980E-04-0.163E-04
CGA: 118    -0.222460145158E+03   -0.14057E-03   -0.13198E-03  5760   0.514E-03 0.548E-04
 gam= 0.771 trial= 0.242  step= 0.662 mean= 0.242
 gam= 0.997 g(H,U,f)=  0.249E-03 0.251E-03 0.116E-04 ort(H,U,f) =-0.177E-03 0.190E-03 0.714E-06
CGA: 119    -0.222460332308E+03   -0.18715E-03   -0.18405E-03  5760   0.512E-03 0.141E-04
 gam= 0.997 trial= 0.263  step= 0.640 mean= 0.263
 gam= 2.555 g(H,U,f)=  0.329E-03 0.453E-03 0.527E-03 ort(H,U,f) =-0.161E-03 0.226E-03-0.798E-04
CGA: 120    -0.222460498452E+03   -0.16614E-03   -0.16830E-03  5760   0.131E-02-0.151E-04
 gam= 2.555 trial= 0.282  step= 0.204 mean= 0.282
 gam= 0.629 g(H,U,f)=  0.388E-03 0.375E-03 0.609E-04 ort(H,U,f) =-0.392E-03 0.518E-03-0.111E-03
CGA: 121    -0.222460619318E+03   -0.12087E-03   -0.12964E-03  5760   0.824E-03 0.149E-04
 gam= 0.629 trial= 0.278  step= 0.517 mean= 0.278
 gam= 1.374 g(H,U,f)=  0.494E-03 0.427E-03 0.210E-03 ort(H,U,f) =-0.252E-03 0.231E-03-0.167E-04
CGA: 122    -0.222460831325E+03   -0.21201E-03   -0.21536E-03  5760   0.113E-02-0.375E-04
 gam= 1.374 trial= 0.290  step= 0.272 mean= 0.290
 gam= 1.665 g(H,U,f)=  0.493E-03 0.759E-03 0.632E-03 ort(H,U,f) =-0.504E-04 0.315E-03-0.324E-03
CGA: 123    -0.222460977449E+03   -0.14612E-03   -0.14666E-03  5760   0.188E-02-0.590E-04
 gam= 1.665 trial= 0.289  step= 0.328 mean= 0.289
 gam= 0.556 g(H,U,f)=  0.438E-03 0.438E-03 0.171E-03 ort(H,U,f) =-0.378E-03 0.531E-03 0.467E-04
CGA: 124    -0.222461275188E+03   -0.29774E-03   -0.29302E-03  5760   0.105E-02 0.199E-03
 gam= 0.556 trial= 0.291  step= 0.203 mean= 0.291
 gam= 1.332 g(H,U,f)=  0.361E-03 0.531E-03 0.503E-03 ort(H,U,f) =-0.124E-04 0.228E-03-0.339E-03
CGA: 125    -0.222461387629E+03   -0.11244E-03   -0.11724E-03  5760   0.139E-02-0.123E-03
 gam= 1.332 trial= 0.287  step= 0.363 mean= 0.287
 gam= 1.215 g(H,U,f)=  0.587E-03 0.796E-03 0.311E-03 ort(H,U,f) =-0.354E-03 0.304E-03 0.410E-04
CGA: 126    -0.222461610859E+03   -0.22323E-03   -0.22344E-03  5760   0.169E-02-0.899E-05
 gam= 1.215 trial= 0.291  step= 0.167 mean= 0.291
 gam= 0.939 g(H,U,f)=  0.499E-03 0.628E-03 0.464E-03 ort(H,U,f) =-0.253E-03 0.572E-03-0.442E-03
CGA: 127    -0.222461744553E+03   -0.13369E-03   -0.14069E-03  5760   0.159E-02-0.122E-03
 gam= 0.939 trial= 0.284  step= 0.304 mean= 0.284
 gam= 1.039 g(H,U,f)=  0.598E-03 0.606E-03 0.449E-03 ort(H,U,f) =-0.471E-03 0.508E-03 0.480E-04
CGA: 128    -0.222461969309E+03   -0.22476E-03   -0.22399E-03  5760   0.165E-02 0.853E-04
 gam= 1.039 trial= 0.285  step= 0.155 mean= 0.285
 gam= 0.848 g(H,U,f)=  0.585E-03 0.491E-03 0.324E-03 ort(H,U,f) =-0.204E-03 0.457E-03-0.422E-03
CGA: 129    -0.222462092168E+03   -0.12286E-03   -0.13460E-03  5760   0.140E-02-0.169E-03
 gam= 0.848 trial= 0.279  step= 0.391 mean= 0.279
 gam= 1.899 g(H,U,f)=  0.613E-03 0.903E-03 0.114E-02 ort(H,U,f) =-0.284E-03 0.336E-03-0.641E-04
CGA: 130    -0.222462337300E+03   -0.24513E-03   -0.24590E-03  5760   0.266E-02-0.122E-04
 gam= 1.899 trial= 0.284  step= 0.132 mean= 0.284
 gam= 0.436 g(H,U,f)=  0.694E-03 0.442E-03 0.239E-04 ort(H,U,f) =-0.572E-03 0.615E-03-0.147E-03
CGA: 131    -0.222462481193E+03   -0.14389E-03   -0.17344E-03  5760   0.116E-02-0.104E-03
 gam= 0.436 trial= 0.277  step= 0.333 mean= 0.277
 gam= 2.013 g(H,U,f)=  0.461E-03 0.782E-03 0.109E-02 ort(H,U,f) =-0.290E-04 0.169E-03-0.278E-03
CGA: 132    -0.222462665027E+03   -0.18383E-03   -0.18535E-03  5760   0.233E-02-0.138E-03
 gam= 2.013 trial= 0.280  step= 0.138 mean= 0.280
 gam= 0.453 g(H,U,f)=  0.500E-03 0.519E-03 0.393E-04 ort(H,U,f) =-0.336E-03 0.247E-03 0.989E-04
CGA: 133    -0.222462796760E+03   -0.13173E-03   -0.14215E-03  5760   0.106E-02 0.108E-04
 gam= 0.453 trial= 0.273  step= 0.180 mean= 0.273
 gam= 1.355 g(H,U,f)=  0.324E-03 0.556E-03 0.554E-03 ort(H,U,f) = 0.357E-04 0.190E-03-0.316E-03
CGA: 134    -0.222462892402E+03   -0.95642E-04   -0.95915E-04  5760   0.143E-02-0.899E-04
 gam= 1.355 trial= 0.268  step= 0.160 mean= 0.268
 gam= 0.785 g(H,U,f)=  0.342E-03 0.447E-03 0.337E-03 ort(H,U,f) =-0.222E-03 0.232E-03 0.956E-04
CGA: 135    -0.222462990311E+03   -0.97909E-04   -0.10480E-03  5760   0.113E-02 0.105E-03
 gam= 0.785 trial= 0.263  step= 0.118 mean= 0.263
 gam= 0.708 g(H,U,f)=  0.325E-03 0.388E-03 0.841E-04 ort(H,U,f) =-0.923E-04 0.182E-03-0.207E-03
CGA: 136    -0.222463050045E+03   -0.59734E-04   -0.71185E-04  5760   0.797E-03-0.117E-03
 gam= 0.708 trial= 0.255  step= 0.281 mean= 0.255
 gam= 2.192 g(H,U,f)=  0.298E-03 0.606E-03 0.843E-03 ort(H,U,f) =-0.140E-03 0.219E-03-0.196E-03
CGA: 137    -0.222463149553E+03   -0.99508E-04   -0.10033E-03  5760   0.175E-02-0.117E-03
 gam= 2.192 trial= 0.257  step= 0.107 mean= 0.257
 gam= 0.470 g(H,U,f)=  0.389E-03 0.313E-03 0.119E-03 ort(H,U,f) =-0.614E-03 0.485E-03 0.155E-03
CGA: 138    -0.222463221477E+03   -0.71924E-04   -0.79812E-04  5760   0.821E-03 0.258E-04
 gam= 0.470 trial= 0.249  step= 0.116 mean= 0.249
 gam= 0.952 g(H,U,f)=  0.304E-03 0.300E-03 0.177E-03 ort(H,U,f) =-0.607E-04 0.212E-03-0.233E-03
CGA: 139    -0.222463266793E+03   -0.45316E-04   -0.48504E-04  5760   0.781E-03-0.822E-04
 gam= 0.952 trial= 0.242  step= 0.207 mean= 0.242
 gam= 1.811 g(H,U,f)=  0.306E-03 0.493E-03 0.616E-03 ort(H,U,f) =-0.910E-04 0.177E-03-0.854E-04
CGA: 140    -0.222463339592E+03   -0.72799E-04   -0.72713E-04  5760   0.141E-02 0.334E-06
 gam= 1.811 trial= 0.241  step= 0.108 mean= 0.241
 gam= 0.561 g(H,U,f)=  0.393E-03 0.370E-03 0.308E-04 ort(H,U,f) =-0.310E-03 0.223E-03 0.101E-03
CGA: 141    -0.222463403343E+03   -0.63751E-04   -0.76564E-04  5760   0.793E-03 0.140E-04
 gam= 0.561 trial= 0.234  step= 0.138 mean= 0.234
 gam= 1.266 g(H,U,f)=  0.257E-03 0.415E-03 0.333E-03 ort(H,U,f) = 0.987E-05 0.161E-03-0.290E-03
CGA: 142    -0.222463457727E+03   -0.54384E-04   -0.55425E-04  5760   0.100E-02-0.119E-03
 gam= 1.266 trial= 0.229  step= 0.138 mean= 0.229
 gam= 0.860 g(H,U,f)=  0.217E-03 0.368E-03 0.279E-03 ort(H,U,f) =-0.151E-03 0.177E-03-0.321E-04
CGA: 143    -0.222463517442E+03   -0.59715E-04   -0.58997E-04  5760   0.864E-03-0.538E-05
 gam= 0.860 trial= 0.225  step= 0.093 mean= 0.225
 gam= 0.454 g(H,U,f)=  0.205E-03 0.186E-03 0.837E-06 ort(H,U,f) =-0.115E-03 0.104E-03 0.107E-04
CGA: 144    -0.222463557731E+03   -0.40289E-04   -0.40078E-04  5760   0.392E-03-0.422E-06
 gam= 0.454 trial= 0.218  step= 0.172 mean= 0.218
 gam= 1.765 g(H,U,f)=  0.158E-03 0.318E-03 0.215E-03 ort(H,U,f) = 0.452E-04 0.662E-04-0.111E-03
CGA: 145    -0.222463591392E+03   -0.33660E-04   -0.33647E-04  5760   0.692E-03 0.493E-06
 gam= 1.765 trial= 0.216  step= 0.196 mean= 0.216
 gam= 1.064 g(H,U,f)=  0.202E-03 0.328E-03 0.207E-03 ort(H,U,f) =-0.164E-03 0.142E-03 0.190E-04
CGA: 146    -0.222463659208E+03   -0.67817E-04   -0.67797E-04  5760   0.736E-03-0.215E-05
 gam= 1.064 trial= 0.215  step= 0.099 mean= 0.215
 gam= 0.000 g(H,U,f)=  0.191E-03 0.198E-03 0.495E-05 ort(H,U,f) =-0.166E-03 0.189E-03-0.271E-04
SDA: 147    -0.222463695702E+03   -0.36494E-04   -0.36161E-04  5760   0.394E-03-0.455E-05
 gam= 0.000 trial= 0.209  step= 0.278 mean= 0.209
 gam= 0.407 g(H,U,f)=  0.551E-04 0.969E-04 0.848E-05 ort(H,U,f) =-0.634E-05 0.711E-05-0.548E-05
CGA: 148    -0.222463750273E+03   -0.54571E-04   -0.54718E-04  5760   0.161E-03-0.472E-05
 gam= 0.407 trial= 0.212  step= 0.615 mean= 0.212
 gam= 2.442 g(H,U,f)=  0.825E-04 0.186E-03 0.123E-03 ort(H,U,f) =-0.240E-04 0.492E-04-0.241E-04
CGA: 149    -0.222463799177E+03   -0.48903E-04   -0.48749E-04  5760   0.392E-03 0.113E-05
 gam= 2.442 trial= 0.233  step= 0.222 mean= 0.233
 gam= 0.570 g(H,U,f)=  0.118E-03 0.857E-04 0.200E-04 ort(H,U,f) =-0.132E-03 0.161E-03-0.250E-04
CGA: 150    -0.222463843066E+03   -0.43889E-04   -0.43909E-04  5760   0.223E-03 0.376E-05
 gam= 0.570 trial= 0.232  step= 0.799 mean= 0.232
 gam= 0.808 g(H,U,f)=  0.103E-03 0.721E-04 0.548E-05 ort(H,U,f) =-0.675E-04 0.701E-04-0.282E-05
CGA: 151    -0.222463932961E+03   -0.89896E-04   -0.90122E-04  5760   0.180E-03-0.212E-06
 gam= 0.808 trial= 0.260  step= 0.687 mean= 0.260
 gam= 1.591 g(H,U,f)=  0.878E-04 0.123E-03 0.757E-04 ort(H,U,f) =-0.307E-04 0.414E-04-0.125E-04
CGA: 152    -0.222463994610E+03   -0.61649E-04   -0.61940E-04  5760   0.287E-03-0.174E-05
 gam= 1.591 trial= 0.282  step= 0.228 mean= 0.282
 gam= 0.896 g(H,U,f)=  0.890E-04 0.121E-03 0.468E-04 ort(H,U,f) =-0.224E-04 0.660E-04-0.443E-04
CGA: 153    -0.222464027101E+03   -0.32491E-04   -0.32440E-04  5760   0.257E-03-0.675E-06
 gam= 0.896 trial= 0.279  step= 0.515 mean= 0.279
 gam= 0.610 g(H,U,f)=  0.852E-04 0.687E-04 0.294E-05 ort(H,U,f) =-0.565E-04 0.600E-04-0.194E-05
CGA: 154    -0.222464093360E+03   -0.66259E-04   -0.66027E-04  5760   0.157E-03 0.156E-05
 gam= 0.610 trial= 0.291  step= 0.818 mean= 0.291
 gam= 1.311 g(H,U,f)=  0.948E-04 0.878E-04 0.231E-04 ort(H,U,f) =-0.420E-04 0.422E-04-0.505E-05
CGA: 155    -0.222464156614E+03   -0.63254E-04   -0.64552E-04  5760   0.206E-03-0.480E-05
 gam= 1.311 trial= 0.317  step= 0.411 mean= 0.317
 gam= 1.321 g(H,U,f)=  0.787E-04 0.109E-03 0.841E-04 ort(H,U,f) =-0.315E-04 0.615E-04-0.312E-04
CGA: 156    -0.222464197503E+03   -0.40889E-04   -0.40940E-04  5760   0.272E-03-0.113E-05
 gam= 1.321 trial= 0.322  step= 0.212 mean= 0.322
 gam= 0.503 g(H,U,f)=  0.710E-04 0.564E-04 0.926E-05 ort(H,U,f) =-0.383E-04 0.521E-04-0.138E-04
CGA: 157    -0.222464226118E+03   -0.28614E-04   -0.28605E-04  5760   0.137E-03-0.347E-07
 gam= 0.503 trial= 0.316  step= 0.727 mean= 0.316
 gam= 0.605 g(H,U,f)=  0.428E-04 0.368E-04 0.318E-05 ort(H,U,f) =-0.233E-04 0.253E-04-0.101E-05
CGA: 158    -0.222464275933E+03   -0.49816E-04   -0.49660E-04  5760   0.827E-04 0.964E-06
 gam= 0.605 trial= 0.337  step= 0.513 mean= 0.337
 gam= 1.421 g(H,U,f)=  0.334E-04 0.450E-04 0.391E-04 ort(H,U,f) =-0.563E-05 0.127E-04-0.854E-05
CGA: 159    -0.222464297201E+03   -0.21268E-04   -0.21383E-04  5760   0.118E-03-0.148E-05
 gam= 1.421 trial= 0.346  step= 0.214 mean= 0.346
 gam= 0.661 g(H,U,f)=  0.291E-04 0.394E-04 0.918E-05 ort(H,U,f) =-0.521E-05 0.178E-04-0.121E-04
CGA: 160    -0.222464309559E+03   -0.12358E-04   -0.12336E-04  5760   0.777E-04 0.440E-06
 gam= 0.661 trial= 0.339  step= 0.527 mean= 0.339
 gam= 0.576 g(H,U,f)=  0.209E-04 0.235E-04 0.416E-06 ort(H,U,f) =-0.144E-04 0.175E-04-0.810E-07
CGA: 161    -0.222464330419E+03   -0.20860E-04   -0.20550E-04  5760   0.447E-04 0.304E-05
 gam= 0.576 trial= 0.349  step= 0.585 mean= 0.349
 gam= 0.834 g(H,U,f)=  0.170E-04 0.196E-04 0.660E-06 ort(H,U,f) =-0.918E-05 0.884E-05-0.147E-06
CGA: 162    -0.222464343957E+03   -0.13538E-04   -0.13602E-04  5760   0.373E-04-0.479E-06
 gam= 0.834 trial= 0.360  step= 0.782 mean= 0.360
 gam= 1.461 g(H,U,f)=  0.167E-04 0.231E-04 0.147E-04 ort(H,U,f) =-0.781E-05 0.889E-05-0.123E-05
CGA: 163    -0.222464358425E+03   -0.14468E-04   -0.14433E-04  5760   0.545E-04-0.149E-06
 gam= 1.461 trial= 0.381  step= 0.210 mean= 0.381
 gam= 0.773 g(H,U,f)=  0.160E-04 0.177E-04 0.849E-05 ort(H,U,f) =-0.385E-05 0.141E-04-0.100E-04
CGA: 164    -0.222464364154E+03   -0.57293E-05   -0.57030E-05  5760   0.422E-04 0.192E-06
 gam= 0.773 trial= 0.373  step= 0.492 mean= 0.373
 gam= 0.672 g(H,U,f)=  0.137E-04 0.143E-04 0.374E-06 ort(H,U,f) =-0.811E-05 0.723E-05-0.105E-06
CGA: 165    -0.222464374496E+03   -0.10342E-04   -0.10402E-04  5760   0.283E-04-0.985E-06
 gam= 0.672 trial= 0.379  step= 0.826 mean= 0.379
 gam= 1.089 g(H,U,f)=  0.137E-04 0.149E-04 0.225E-05 ort(H,U,f) =-0.696E-05 0.713E-05-0.670E-06
CGA: 166    -0.222464385796E+03   -0.11300E-04   -0.11419E-04  5760   0.308E-04-0.496E-06
 gam= 1.089 trial= 0.401  step= 0.535 mean= 0.401
 gam= 2.512 g(H,U,f)=  0.148E-04 0.348E-04 0.279E-04 ort(H,U,f) =-0.482E-05 0.906E-05-0.559E-05
CGA: 167    -0.222464393824E+03   -0.80280E-05   -0.81091E-05  5760   0.775E-04-0.135E-05
 gam= 2.512 trial= 0.408  step= 0.254 mean= 0.408
 gam= 0.506 g(H,U,f)=  0.207E-04 0.167E-04 0.183E-05 ort(H,U,f) =-0.284E-04 0.310E-04-0.368E-05
CGA: 168    -0.222464403354E+03   -0.95291E-05   -0.94182E-05  5760   0.392E-04-0.104E-05
 gam= 0.506 trial= 0.400  step= 1.065 mean= 0.400
 gam= 1.843 g(H,U,f)=  0.379E-04 0.333E-04 0.965E-06 ort(H,U,f) =-0.149E-04 0.149E-04 0.329E-07
CGA: 169    -0.222464423953E+03   -0.20599E-04   -0.20585E-04  5760   0.722E-04 0.106E-07
 gam= 1.843 trial= 0.433  step= 0.681 mean= 0.433
 gam= 2.084 g(H,U,f)=  0.434E-04 0.567E-04 0.504E-04 ort(H,U,f) =-0.186E-04 0.239E-04-0.648E-05
CGA: 170    -0.222464448310E+03   -0.24357E-04   -0.24580E-04  5760   0.150E-03-0.117E-05
 gam= 2.084 trial= 0.446  step= 0.200 mean= 0.446
 gam= 0.634 g(H,U,f)=  0.472E-04 0.378E-04 0.104E-04 ort(H,U,f) =-0.251E-04 0.411E-04-0.168E-04
CGA: 171    -0.222464463122E+03   -0.14812E-04   -0.14822E-04  5760   0.955E-04-0.891E-06
 gam= 0.634 trial= 0.433  step= 0.686 mean= 0.433
 gam= 0.904 g(H,U,f)=  0.420E-04 0.413E-04 0.298E-05 ort(H,U,f) =-0.189E-04 0.175E-04 0.183E-06
CGA: 172    -0.222464495523E+03   -0.32401E-04   -0.32541E-04  5760   0.863E-04-0.122E-05
 gam= 0.904 trial= 0.446  step= 0.420 mean= 0.446
 gam= 1.402 g(H,U,f)=  0.339E-04 0.503E-04 0.367E-04 ort(H,U,f) =-0.968E-05 0.203E-04-0.985E-05
CGA: 173    -0.222464513403E+03   -0.17880E-04   -0.17881E-04  5760   0.121E-03 0.774E-06
 gam= 1.402 trial= 0.445  step= 0.212 mean= 0.445
 gam= 0.666 g(H,U,f)=  0.325E-04 0.407E-04 0.736E-05 ort(H,U,f) =-0.143E-04 0.244E-04-0.962E-05
CGA: 174    -0.222464526153E+03   -0.12750E-04   -0.12922E-04  5760   0.806E-04 0.516E-06
 gam= 0.666 trial= 0.433  step= 0.786 mean= 0.433
 gam= 1.057 g(H,U,f)=  0.452E-04 0.382E-04 0.175E-05 ort(H,U,f) =-0.281E-04 0.251E-04 0.730E-06
CGA: 175    -0.222464557528E+03   -0.31375E-04   -0.31795E-04  5760   0.852E-04-0.227E-05
 gam= 1.057 trial= 0.451  step= 0.516 mean= 0.451
 gam= 2.204 g(H,U,f)=  0.435E-04 0.737E-04 0.706E-04 ort(H,U,f) =-0.161E-04 0.282E-04-0.133E-04
CGA: 176    -0.222464578793E+03   -0.21265E-04   -0.21353E-04  5760   0.188E-03-0.124E-05
 gam= 2.204 trial= 0.454  step= 0.224 mean= 0.454
 gam= 0.555 g(H,U,f)=  0.486E-04 0.504E-04 0.509E-05 ort(H,U,f) =-0.503E-04 0.599E-04-0.113E-04
CGA: 177    -0.222464599338E+03   -0.20545E-04   -0.20694E-04  5760   0.104E-03-0.164E-05
 gam= 0.555 trial= 0.443  step= 0.628 mean= 0.443
 gam= 0.000 g(H,U,f)=  0.526E-04 0.493E-04 0.103E-04 ort(H,U,f) =-0.261E-04 0.265E-04-0.111E-05
SDA: 178    -0.222464631682E+03   -0.32344E-04   -0.32410E-04  5760   0.112E-03-0.701E-06
 gam= 0.000 trial= 0.452  step= 0.299 mean= 0.452
 gam= 1.010 g(H,U,f)=  0.262E-04 0.495E-04 0.376E-04 ort(H,U,f) = 0.136E-04 0.431E-05-0.196E-04
CGA: 179    -0.222464648631E+03   -0.16948E-04   -0.16778E-04  5760   0.113E-03-0.169E-05
 gam= 1.010 trial= 0.444  step= 0.240 mean= 0.444
 gam= 0.713 g(H,U,f)=  0.250E-04 0.508E-04 0.505E-05 ort(H,U,f) =-0.166E-05 0.707E-05-0.645E-05
CGA: 180    -0.222464662087E+03   -0.13456E-04   -0.13419E-04  5760   0.808E-04-0.103E-05
 gam= 0.713 trial= 0.434  step= 0.621 mean= 0.434
 gam= 0.826 g(H,U,f)=  0.345E-04 0.322E-04 0.122E-06 ort(H,U,f) =-0.254E-04 0.278E-04-0.351E-07
CGA: 181    -0.222464687172E+03   -0.25086E-04   -0.24863E-04  5760   0.668E-04 0.230E-05
 gam= 0.826 trial= 0.443  step= 0.733 mean= 0.443
 gam= 1.798 g(H,U,f)=  0.397E-04 0.513E-04 0.291E-04 ort(H,U,f) =-0.238E-04 0.252E-04-0.160E-05
CGA: 182    -0.222464712304E+03   -0.25132E-04   -0.25164E-04  5760   0.120E-03-0.168E-06
 gam= 1.798 trial= 0.458  step= 0.215 mean= 0.458
 gam= 0.865 g(H,U,f)=  0.395E-04 0.409E-04 0.235E-04 ort(H,U,f) =-0.296E-04 0.527E-04-0.235E-04
CGA: 183    -0.222464725182E+03   -0.12878E-04   -0.12878E-04  5760   0.104E-03-0.358E-06
 gam= 0.865 trial= 0.446  step= 0.662 mean= 0.446
 gam= 1.248 g(H,U,f)=  0.699E-04 0.589E-04 0.927E-06 ort(H,U,f) =-0.362E-04 0.354E-04-0.471E-06
CGA: 184    -0.222464759353E+03   -0.34171E-04   -0.34311E-04  5760   0.130E-03-0.133E-05
 gam= 1.248 trial= 0.457  step= 0.681 mean= 0.457
 gam= 0.947 g(H,U,f)=  0.674E-04 0.432E-04 0.122E-04 ort(H,U,f) =-0.377E-04 0.395E-04-0.690E-06
CGA: 185    -0.222464803000E+03   -0.43647E-04   -0.43574E-04  5760   0.123E-03 0.112E-05
 gam= 0.947 trial= 0.468  step= 0.408 mean= 0.468
 gam= 2.161 g(H,U,f)=  0.612E-04 0.109E-03 0.955E-04 ort(H,U,f) = 0.195E-05 0.308E-04-0.324E-04
CGA: 186    -0.222464828200E+03   -0.25199E-04   -0.25247E-04  5760   0.265E-03 0.311E-06
 gam= 2.161 trial= 0.465  step= 0.310 mean= 0.465
 gam= 0.425 g(H,U,f)=  0.554E-04 0.547E-04 0.252E-05 ort(H,U,f) =-0.451E-04 0.487E-04-0.318E-05
CGA: 187    -0.222464869479E+03   -0.41279E-04   -0.41221E-04  5760   0.113E-03 0.406E-06
 gam= 0.425 trial= 0.457  step= 0.591 mean= 0.457
 gam= 0.655 g(H,U,f)=  0.421E-04 0.315E-04 0.210E-06 ort(H,U,f) =-0.234E-04 0.222E-04 0.396E-06
CGA: 188    -0.222464902778E+03   -0.33299E-04   -0.33340E-04  5760   0.738E-04-0.845E-06
 gam= 0.655 trial= 0.464  step= 0.809 mean= 0.464
 gam= 1.808 g(H,U,f)=  0.359E-04 0.593E-04 0.383E-04 ort(H,U,f) =-0.103E-04 0.152E-04-0.372E-05
CGA: 189    -0.222464932788E+03   -0.30010E-04   -0.29617E-04  5760   0.133E-03 0.117E-05
 gam= 1.808 trial= 0.481  step= 0.188 mean= 0.481
 gam= 0.585 g(H,U,f)=  0.306E-04 0.309E-04 0.166E-04 ort(H,U,f) =-0.135E-04 0.358E-04-0.204E-04
CGA: 190    -0.222464945636E+03   -0.12848E-04   -0.12761E-04  5760   0.780E-04 0.188E-05
 gam= 0.585 trial= 0.466  step= 0.511 mean= 0.466
 gam= 0.594 g(H,U,f)=  0.234E-04 0.217E-04 0.120E-05 ort(H,U,f) =-0.166E-04 0.191E-04-0.107E-05
CGA: 191    -0.222464965909E+03   -0.20273E-04   -0.20224E-04  5760   0.464E-04 0.137E-05
 gam= 0.594 trial= 0.469  step= 0.934 mean= 0.469
 gam= 1.583 g(H,U,f)=  0.311E-04 0.364E-04 0.588E-05 ort(H,U,f) =-0.114E-04 0.109E-04-0.962E-06
CGA: 192    -0.222464987500E+03   -0.21591E-04   -0.22027E-04  5760   0.734E-04-0.148E-05
 gam= 1.583 trial= 0.492  step= 0.400 mean= 0.492
 gam= 1.703 g(H,U,f)=  0.290E-04 0.523E-04 0.437E-04 ort(H,U,f) =-0.113E-04 0.224E-04-0.114E-04
CGA: 193    -0.222465001640E+03   -0.14139E-04   -0.14216E-04  5760   0.125E-03-0.314E-06
 gam= 1.703 trial= 0.487  step= 0.260 mean= 0.487
 gam= 0.409 g(H,U,f)=  0.265E-04 0.204E-04 0.424E-05 ort(H,U,f) =-0.328E-04 0.420E-04-0.773E-05
CGA: 194    -0.222465017997E+03   -0.16357E-04   -0.16183E-04  5760   0.512E-04 0.151E-05
 gam= 0.409 trial= 0.476  step= 1.138 mean= 0.476
 gam= 2.304 g(H,U,f)=  0.406E-04 0.520E-04 0.252E-04 ort(H,U,f) =-0.153E-04 0.174E-04-0.296E-05
CGA: 195    -0.222465047522E+03   -0.29525E-04   -0.29469E-04  5760   0.118E-03-0.906E-06
 gam= 2.304 trial= 0.509  step= 0.275 mean= 0.509
 gam= 1.136 g(H,U,f)=  0.407E-04 0.552E-04 0.380E-04 ort(H,U,f) =-0.219E-04 0.461E-04-0.233E-04
CGA: 196    -0.222465063649E+03   -0.16127E-04   -0.15897E-04  5760   0.134E-03 0.810E-06
 gam= 1.136 trial= 0.497  step= 0.416 mean= 0.497
 gam= 0.665 g(H,U,f)=  0.443E-04 0.400E-04 0.470E-05 ort(H,U,f) =-0.367E-04 0.412E-04-0.387E-05
CGA: 197    -0.222465091585E+03   -0.27936E-04   -0.28044E-04  5760   0.890E-04 0.567E-06
 gam= 0.665 trial= 0.493  step= 0.849 mean= 0.493
 gam= 2.180 g(H,U,f)=  0.571E-04 0.882E-04 0.488E-04 ort(H,U,f) =-0.182E-04 0.248E-04-0.695E-05
CGA: 198    -0.222465129266E+03   -0.37681E-04   -0.37953E-04  5760   0.194E-03-0.353E-06
 gam= 2.180 trial= 0.511  step= 0.245 mean= 0.511
 gam= 0.879 g(H,U,f)=  0.624E-04 0.704E-04 0.377E-04 ort(H,U,f) =-0.325E-04 0.606E-04-0.293E-04
CGA: 199    -0.222465152799E+03   -0.23534E-04   -0.23686E-04  5760   0.170E-03-0.116E-05
 gam= 0.879 trial= 0.498  step= 0.502 mean= 0.498
 gam= 0.701 g(H,U,f)=  0.576E-04 0.512E-04 0.108E-04 ort(H,U,f) =-0.403E-04 0.455E-04-0.605E-05
CGA: 200    -0.222465195315E+03   -0.42515E-04   -0.42521E-04  5760   0.120E-03-0.850E-06
 gam= 0.701 trial= 0.498  step= 0.767 mean= 0.498
 gam= 2.008 g(H,U,f)=  0.665E-04 0.100E-03 0.734E-04 ort(H,U,f) =-0.206E-04 0.354E-04-0.156E-04
CGA: 201    -0.222465240984E+03   -0.45670E-04   -0.45622E-04  5760   0.240E-03-0.831E-06
 gam= 2.008 trial= 0.511  step= 0.222 mean= 0.511
 gam= 0.689 g(H,U,f)=  0.620E-04 0.783E-04 0.251E-04 ort(H,U,f) =-0.329E-04 0.580E-04-0.232E-04
CGA: 202    -0.222465267682E+03   -0.26698E-04   -0.26463E-04  5760   0.165E-03 0.194E-05
 gam= 0.689 trial= 0.497  step= 0.512 mean= 0.497
 gam= 0.644 g(H,U,f)=  0.516E-04 0.480E-04 0.700E-05 ort(H,U,f) =-0.310E-04 0.361E-04-0.419E-05
CGA: 203    -0.222465310401E+03   -0.42719E-04   -0.42715E-04  5760   0.107E-03 0.898E-06
 gam= 0.644 trial= 0.498  step= 0.600 mean= 0.498
 gam= 1.683 g(H,U,f)=  0.470E-04 0.708E-04 0.616E-04 ort(H,U,f) =-0.990E-05 0.209E-04-0.125E-04
CGA: 204    -0.222465342458E+03   -0.32056E-04   -0.32153E-04  5760   0.179E-03-0.149E-05
 gam= 1.683 trial= 0.503  step= 0.217 mean= 0.503
 gam= 0.608 g(H,U,f)=  0.440E-04 0.526E-04 0.125E-04 ort(H,U,f) =-0.151E-04 0.326E-04-0.180E-04
CGA: 205    -0.222465361823E+03   -0.19365E-04   -0.19226E-04  5760   0.109E-03-0.530E-06
 gam= 0.608 trial= 0.489  step= 0.506 mean= 0.489
 gam= 0.509 g(H,U,f)=  0.269E-04 0.261E-04 0.247E-05 ort(H,U,f) =-0.172E-04 0.169E-04-0.657E-06
CGA: 206    -0.222465389358E+03   -0.27535E-04   -0.27546E-04  5760   0.555E-04-0.904E-06
 gam= 0.509 trial= 0.489  step= 0.655 mean= 0.489
 gam= 1.583 g(H,U,f)=  0.213E-04 0.374E-04 0.291E-04 ort(H,U,f) =-0.616E-05 0.136E-04-0.718E-05
CGA: 207    -0.222465407420E+03   -0.18062E-04   -0.18039E-04  5760   0.879E-04 0.239E-06
 gam= 1.583 trial= 0.498  step= 0.233 mean= 0.498
 gam= 0.860 g(H,U,f)=  0.247E-04 0.395E-04 0.114E-04 ort(H,U,f) =-0.949E-05 0.206E-04-0.112E-04
CGA: 208    -0.222465417796E+03   -0.10376E-04   -0.10287E-04  5760   0.756E-04-0.840E-07
 gam= 0.860 trial= 0.484  step= 0.594 mean= 0.484
 gam= 0.000 g(H,U,f)=  0.255E-04 0.204E-04 0.154E-05 ort(H,U,f) =-0.239E-04 0.231E-04-0.353E-06
SDA: 209    -0.222465440175E+03   -0.22379E-04   -0.22438E-04  5760   0.475E-04-0.119E-05
 gam= 0.000 trial= 0.490  step= 0.468 mean= 0.490
 gam= 1.641 g(H,U,f)=  0.139E-04 0.365E-04 0.275E-04 ort(H,U,f) = 0.422E-05 0.193E-05-0.628E-05
CGA: 210    -0.222465451297E+03   -0.11121E-04   -0.11117E-04  5760   0.779E-04-0.124E-06
 gam= 1.641 trial= 0.489  step= 0.214 mean= 0.489
 gam= 0.535 g(H,U,f)=  0.126E-04 0.247E-04 0.447E-05 ort(H,U,f) =-0.761E-05 0.147E-04-0.691E-05
CGA: 211    -0.222465459568E+03   -0.82714E-05   -0.83174E-05  5760   0.417E-04 0.207E-06
 gam= 0.535 trial= 0.475  step= 0.653 mean= 0.475
 gam= 0.941 g(H,U,f)=  0.188E-04 0.203E-04 0.164E-06 ort(H,U,f) =-0.137E-04 0.142E-04 0.158E-06
CGA: 212    -0.222465473272E+03   -0.13704E-04   -0.13652E-04  5760   0.393E-04 0.664E-06
 gam= 0.941 trial= 0.484  step= 0.854 mean= 0.484
 gam= 1.249 g(H,U,f)=  0.227E-04 0.223E-04 0.409E-05 ort(H,U,f) =-0.119E-04 0.125E-04-0.113E-05
CGA: 213    -0.222465490183E+03   -0.16911E-04   -0.17024E-04  5760   0.490E-04-0.495E-06
 gam= 1.249 trial= 0.502  step= 0.479 mean= 0.502
 gam= 1.917 g(H,U,f)=  0.225E-04 0.404E-04 0.310E-04 ort(H,U,f) =-0.745E-05 0.159E-04-0.788E-05
CGA: 214    -0.222465501775E+03   -0.11592E-04   -0.11600E-04  5760   0.940E-04 0.573E-06
 gam= 1.917 trial= 0.501  step= 0.238 mean= 0.501
 gam= 0.528 g(H,U,f)=  0.237E-04 0.222E-04 0.370E-05 ort(H,U,f) =-0.176E-04 0.234E-04-0.518E-05
CGA: 215    -0.222465513088E+03   -0.11313E-04   -0.11318E-04  5760   0.496E-04 0.658E-06
 gam= 0.528 trial= 0.488  step= 0.685 mean= 0.488
 gam= 0.847 g(H,U,f)=  0.221E-04 0.186E-04 0.134E-05 ort(H,U,f) =-0.103E-04 0.102E-04-0.720E-06
CGA: 216    -0.222465530154E+03   -0.17066E-04   -0.17127E-04  5760   0.420E-04-0.866E-06
 gam= 0.847 trial= 0.498  step= 0.776 mean= 0.498
 gam= 1.143 g(H,U,f)=  0.189E-04 0.192E-04 0.998E-05 ort(H,U,f) =-0.732E-05 0.857E-05-0.242E-05
CGA: 217    -0.222465546018E+03   -0.15865E-04   -0.16025E-04  5760   0.481E-04-0.117E-05
 gam= 1.143 trial= 0.512  step= 0.296 mean= 0.512
 gam= 1.297 g(H,U,f)=  0.180E-04 0.279E-04 0.164E-04 ort(H,U,f) =-0.111E-05 0.106E-04-0.926E-05
CGA: 218    -0.222465552936E+03   -0.69178E-05   -0.69184E-05  5760   0.623E-04 0.244E-06
 gam= 1.297 trial= 0.501  step= 0.313 mean= 0.501
 gam= 0.371 g(H,U,f)=  0.126E-04 0.100E-04 0.505E-06 ort(H,U,f) =-0.105E-04 0.115E-04-0.747E-06
CGA: 219    -0.222465562691E+03   -0.97548E-05   -0.97881E-05  5760   0.231E-04 0.302E-06
 gam= 0.371 trial= 0.492  step= 0.895 mean= 0.492
 gam= 0.909 g(H,U,f)=  0.102E-04 0.929E-05 0.151E-05 ort(H,U,f) =-0.489E-05 0.457E-05-0.291E-06
CGA: 220    -0.222465572947E+03   -0.10256E-04   -0.10394E-04  5760   0.210E-04-0.604E-06
 gam= 0.909 trial= 0.512  step= 0.396 mean= 0.512
 gam= 1.362 g(H,U,f)=  0.744E-05 0.112E-04 0.995E-05 ort(H,U,f) =-0.566E-06 0.359E-05-0.299E-05
CGA: 221    -0.222465576984E+03   -0.40366E-05   -0.40516E-05  5760   0.286E-04 0.350E-07
 gam= 1.362 trial= 0.506  step= 0.229 mean= 0.506
 gam= 0.517 g(H,U,f)=  0.650E-05 0.684E-05 0.146E-05 ort(H,U,f) =-0.190E-05 0.447E-05-0.210E-05
CGA: 222    -0.222465580262E+03   -0.32785E-05   -0.32756E-05  5760   0.148E-04 0.474E-06
 gam= 0.517 trial= 0.492  step= 0.639 mean= 0.492
 gam= 0.546 g(H,U,f)=  0.408E-05 0.319E-05 0.806E-06 ort(H,U,f) =-0.322E-05 0.359E-05-0.197E-06
CGA: 223    -0.222465585087E+03   -0.48248E-05   -0.48018E-05  5760   0.807E-05 0.173E-06
 gam= 0.546 trial= 0.500  step= 0.554 mean= 0.500
 gam= 2.434 g(H,U,f)=  0.406E-05 0.805E-05 0.754E-05 ort(H,U,f) =-0.173E-06 0.217E-05-0.207E-05
CGA: 224    -0.222465587344E+03   -0.22569E-05   -0.22634E-05  5760   0.197E-04-0.801E-07
 gam= 2.434 trial= 0.502  step= 0.246 mean= 0.502
 gam= 0.491 g(H,U,f)=  0.418E-05 0.513E-05 0.348E-06 ort(H,U,f) =-0.389E-05 0.419E-05-0.500E-06
CGA: 225    -0.222465589726E+03   -0.23818E-05   -0.23949E-05  5760   0.966E-05-0.203E-06
 gam= 0.491 trial= 0.489  step= 0.557 mean= 0.489
 gam= 0.530 g(H,U,f)=  0.307E-05 0.204E-05 0.122E-08 ort(H,U,f) =-0.210E-05 0.260E-05-0.107E-07
CGA: 226    -0.222465592403E+03   -0.26769E-05   -0.26614E-05  5760   0.512E-05 0.488E-06
 gam= 0.530 trial= 0.493  step= 1.089 mean= 0.493
 gam= 1.535 g(H,U,f)=  0.332E-05 0.396E-05 0.571E-06 ort(H,U,f) =-0.138E-05 0.103E-05-0.615E-07
CGA: 227    -0.222465595206E+03   -0.28031E-05   -0.29285E-05  5760   0.785E-05-0.404E-06
 gam= 1.535 trial= 0.523  step= 0.337 mean= 0.523
 gam= 1.327 g(H,U,f)=  0.297E-05 0.389E-05 0.356E-05 ort(H,U,f) =-0.110E-05 0.206E-05-0.124E-05
CGA: 228    -0.222465596446E+03   -0.12406E-05   -0.12187E-05  5760   0.104E-04-0.279E-06
 gam= 1.327 trial= 0.513  step= 0.258 mean= 0.513
 gam= 0.522 g(H,U,f)=  0.277E-05 0.238E-05 0.287E-06 ort(H,U,f) =-0.162E-05 0.210E-05-0.562E-06
CGA: 229    -0.222465597763E+03   -0.13165E-05   -0.12989E-05  5760   0.544E-05-0.822E-07
 gam= 0.522 trial= 0.501  step= 0.701 mean= 0.501
 gam= 0.847 g(H,U,f)=  0.222E-05 0.235E-05 0.258E-07 ort(H,U,f) =-0.907E-06 0.972E-06 0.254E-08
CGA: 230    -0.222465599659E+03   -0.18964E-05   -0.18891E-05  5760   0.460E-05 0.675E-07
 gam= 0.847 trial= 0.511  step= 0.791 mean= 0.511
 gam= 0.629 g(H,U,f)=  0.166E-05 0.122E-05 0.126E-07 ort(H,U,f) =-0.114E-05 0.113E-05-0.168E-08
CGA: 231    -0.222465601502E+03   -0.18427E-05   -0.18437E-05  5760   0.290E-05-0.516E-08
 gam= 0.629 trial= 0.525  step= 0.855 mean= 0.525
 gam= 1.428 g(H,U,f)=  0.185E-05 0.199E-05 0.296E-06 ort(H,U,f) =-0.540E-06 0.200E-06 0.850E-09
CGA: 232    -0.222465602684E+03   -0.11824E-05   -0.12368E-05  5760   0.413E-05-0.339E-06
 gam= 1.428 trial= 0.541  step= 0.353 mean= 0.541
 gam= 1.249 g(H,U,f)=  0.134E-05 0.212E-05 0.171E-05 ort(H,U,f) =-0.804E-07 0.806E-06-0.667E-06
CGA: 233    -0.222465603326E+03   -0.64210E-06   -0.64403E-06  5760   0.517E-05 0.586E-07
 gam= 1.249 trial= 0.532  step= 0.225 mean= 0.532
 final diagonalization
   1 F= -.23200533E+03 E0= -.23200051E+03  d E =-.963911E-02  mag=     6.0000
