 vasp.5.4.4.18Apr17-6-g9f103f2a35 (build Nov 22 2021 14:44:17) complex          
  
 executed on             LinuxIFC date 2022.08.06  11:39:54
 running on   64 total cores
 distrk:  each k-point on   64 cores,    1 groups
 distr:  one band on NCORES_PER_BAND=   4 cores,   16 groups


--------------------------------------------------------------------------------------------------------


 INCAR:
 POTCAR:    PAW_PBE Li 17Jan2003                  
 POTCAR:    PAW_PBE Co 02Aug2007                  
 POTCAR:    PAW_PBE O 08Apr2002                   
 POTCAR:    PAW_PBE Li 17Jan2003                  
   VRHFIN =Li: s1p0                                                             
   LEXCH  = PE                                                                  
   EATOM  =     5.3001 eV,    0.3895 Ry                                         
                                                                                
   TITEL  = PAW_PBE Li 17Jan2003                                                
   LULTRA =        F    use ultrasoft PP ?                                      
   IUNSCR =        1    unscreen: 0-lin 1-nonlin 2-no                           
   RPACOR =    1.500    partial core radius                                     
   POMASS =    7.010; ZVAL   =    1.000    mass and valenz                      
   RCORE  =    2.050    outmost cutoff radius                                   
   RWIGS  =    2.600; RWIGS  =    1.376    wigner-seitz radius (au A)           
   ENMAX  =  140.000; ENMIN  =  100.000 eV                                      
   ICORE  =        2    local potential                                         
   LCOR   =        T    correct aug charges                                     
   LPAW   =        T    paw PP                                                  
   EAUG   =  331.638                                                            
   DEXC   =    0.000                                                            
   RMAX   =    2.098    core radius for proj-oper                               
   RAUG   =    1.300    factor for augmentation sphere                          
   RDEP   =    2.094    radius for radial grids                                 
   RDEPT  =    1.810    core radius for aug-charge                              
                                                                                
   Atomic configuration                                                         
    4 entries                                                                   
     n  l   j            E        occ.                                          
     1  0  0.50       -51.8549   2.0000                                         
     2  0  0.50        -2.8742   1.0000                                         
     2  1  0.50        -1.3606   0.0000                                         
     3  2  1.50        -1.3606   0.0000                                         
   Description                                                                  
     l       E           TYP  RCUT    TYP  RCUT                                 
     0     -2.8742052     23  2.050                                             
     0     27.2116520     23  2.050                                             
     1     -1.3605826     23  2.050                                             
     2     -1.3605826     23  2.050                                             
  local pseudopotential read in
  partial core-charges read in
  partial kinetic energy density read in
  atomic valenz-charges read in
  non local Contribution for L=           0  read in
    real space projection operators read in
  non local Contribution for L=           0  read in
    real space projection operators read in
  non local Contribution for L=           1  read in
    real space projection operators read in
    PAW grid and wavefunctions read in
 
   number of l-projection  operators is LMAX  =           3
   number of lm-projection operators is LMMAX =           5
 
 POTCAR:    PAW_PBE Co 02Aug2007                  
   VRHFIN =Co: d8 s1                                                            
   LEXCH  = PE                                                                  
   EATOM  =   813.3670 eV,   59.7808 Ry                                         
                                                                                
   TITEL  = PAW_PBE Co 02Aug2007                                                
   LULTRA =        F    use ultrasoft PP ?                                      
   IUNSCR =        1    unscreen: 0-lin 1-nonlin 2-no                           
   RPACOR =    2.000    partial core radius                                     
   POMASS =   58.933; ZVAL   =    9.000    mass and valenz                      
   RCORE  =    2.300    outmost cutoff radius                                   
   RWIGS  =    2.460; RWIGS  =    1.302    wigner-seitz radius (au A)           
   ENMAX  =  267.968; ENMIN  =  200.976 eV                                      
   RCLOC  =    1.203    cutoff for local pot                                    
   LCOR   =        T    correct aug charges                                     
   LPAW   =        T    paw PP                                                  
   EAUG   =  477.818                                                            
   DEXC   =    0.000                                                            
   RMAX   =    2.360    core radius for proj-oper                               
   RAUG   =    1.300    factor for augmentation sphere                          
   RDEP   =    2.393    radius for radial grids                                 
   RDEPT  =    1.864    core radius for aug-charge                              
                                                                                
   Atomic configuration                                                         
    9 entries                                                                   
     n  l   j            E        occ.                                          
     1  0  0.50     -7587.6674   2.0000                                         
     2  0  0.50      -893.6084   2.0000                                         
     2  1  1.50      -764.5805   6.0000                                         
     3  0  0.50       -97.5973   2.0000                                         
     3  1  1.50       -60.9648   6.0000                                         
     3  2  2.50        -4.2382   8.0000                                         
     4  0  0.50        -4.3746   1.0000                                         
     4  1  1.50        -4.0817   0.0000                                         
     4  3  2.50        -1.3606   0.0000                                         
   Description                                                                  
     l       E           TYP  RCUT    TYP  RCUT                                 
     2     -4.2382362     23  2.300                                             
     2     -5.5988188     23  2.300                                             
     0     -4.3745797     23  2.300                                             
     0      5.7660125     23  2.300                                             
     1     -2.7211652     23  2.300                                             
     1     16.9860234     23  2.300                                             
  local pseudopotential read in
  partial core-charges read in
  partial kinetic energy density read in
  atomic valenz-charges read in
  non local Contribution for L=           2  read in
    real space projection operators read in
  non local Contribution for L=           2  read in
    real space projection operators read in
  non local Contribution for L=           0  read in
    real space projection operators read in
  non local Contribution for L=           0  read in
    real space projection operators read in
  non local Contribution for L=           1  read in
    real space projection operators read in
  non local Contribution for L=           1  read in
    real space projection operators read in
    PAW grid and wavefunctions read in
 
   number of l-projection  operators is LMAX  =           6
   number of lm-projection operators is LMMAX =          18
 
 POTCAR:    PAW_PBE O 08Apr2002                   
   VRHFIN =O: s2p4                                                              
   LEXCH  = PE                                                                  
   EATOM  =   432.3788 eV,   31.7789 Ry                                         
                                                                                
   TITEL  = PAW_PBE O 08Apr2002                                                 
   LULTRA =        F    use ultrasoft PP ?                                      
   IUNSCR =        1    unscreen: 0-lin 1-nonlin 2-no                           
   RPACOR =    1.200    partial core radius                                     
   POMASS =   16.000; ZVAL   =    6.000    mass and valenz                      
   RCORE  =    1.520    outmost cutoff radius                                   
   RWIGS  =    1.550; RWIGS  =    0.820    wigner-seitz radius (au A)           
   ENMAX  =  400.000; ENMIN  =  300.000 eV                                      
   ICORE  =        2    local potential                                         
   LCOR   =        T    correct aug charges                                     
   LPAW   =        T    paw PP                                                  
   EAUG   =  605.392                                                            
   DEXC   =    0.000                                                            
   RMAX   =    1.553    core radius for proj-oper                               
   RAUG   =    1.300    factor for augmentation sphere                          
   RDEP   =    1.550    radius for radial grids                                 
   RDEPT  =    1.329    core radius for aug-charge                              
                                                                                
   Atomic configuration                                                         
    4 entries                                                                   
     n  l   j            E        occ.                                          
     1  0  0.50      -514.6923   2.0000                                         
     2  0  0.50       -23.9615   2.0000                                         
     2  1  0.50        -9.0305   4.0000                                         
     3  2  1.50        -9.5241   0.0000                                         
   Description                                                                  
     l       E           TYP  RCUT    TYP  RCUT                                 
     0    -23.9615318     23  1.200                                             
     0     -9.5240782     23  1.200                                             
     1     -9.0304911     23  1.520                                             
     1      8.1634956     23  1.520                                             
     2     -9.5240782      7  1.500                                             
  local pseudopotential read in
  partial core-charges read in
  partial kinetic energy density read in
  kinetic energy density of atom read in
  atomic valenz-charges read in
  non local Contribution for L=           0  read in
    real space projection operators read in
  non local Contribution for L=           0  read in
    real space projection operators read in
  non local Contribution for L=           1  read in
    real space projection operators read in
  non local Contribution for L=           1  read in
    real space projection operators read in
    PAW grid and wavefunctions read in
 
   number of l-projection  operators is LMAX  =           4
   number of lm-projection operators is LMMAX =           8
 
 Optimization of the real space projectors (new method)

 maximal supplied QI-value         = 18.33
 optimisation between [QCUT,QGAM] = [ 12.46, 24.93] = [ 43.51,174.03] Ry 
 Optimized for a Real-space Cutoff    1.13 Angstroem

   l    n(q)    QCUT    max X(q) W(low)/X(q) W(high)/X(q)  e(spline) 
   0      8    12.465    33.825    0.12E-03    0.29E-03    0.99E-07
   0      8    12.465     8.944    0.86E-04    0.22E-03    0.72E-07
   1      8    12.465     4.214    0.27E-03    0.11E-03    0.82E-07
 Optimization of the real space projectors (new method)

 maximal supplied QI-value         = 16.25
 optimisation between [QCUT,QGAM] = [ 12.51, 25.03] = [ 43.85,175.40] Ry 
 Optimized for a Real-space Cutoff    1.31 Angstroem

   l    n(q)    QCUT    max X(q) W(low)/X(q) W(high)/X(q)  e(spline) 
   2      9    12.514    65.824    0.30E-03    0.46E-03    0.43E-06
   2      9    12.514    61.429    0.31E-03    0.46E-03    0.44E-06
   0     10    12.514    56.174    0.90E-04    0.33E-03    0.30E-06
   0     10    12.514    31.263    0.81E-04    0.30E-03    0.28E-06
   1      9    12.514    19.828    0.38E-03    0.65E-04    0.24E-06
   1      9    12.514    15.139    0.32E-03    0.60E-04    0.20E-06
 Optimization of the real space projectors (new method)

 maximal supplied QI-value         = 24.76
 optimisation between [QCUT,QGAM] = [ 12.38, 25.00] = [ 42.90,175.06] Ry 
 Optimized for a Real-space Cutoff    1.13 Angstroem

   l    n(q)    QCUT    max X(q) W(low)/X(q) W(high)/X(q)  e(spline) 
   0      8    12.378    20.381    0.16E-03    0.54E-05    0.27E-06
   0      8    12.378    15.268    0.17E-03    0.61E-05    0.29E-06
   1      8    12.378     5.964    0.38E-03    0.23E-03    0.28E-06
   1      8    12.378     5.382    0.33E-03    0.20E-03    0.25E-06
  PAW_PBE Li 17Jan2003                  :
 energy of atom  1       EATOM=   -5.3001
 kinetic energy error for atom=    0.0000 (will be added to EATOM!!)
  PAW_PBE Co 02Aug2007                  :
 energy of atom  2       EATOM= -813.3670
 kinetic energy error for atom=    0.0018 (will be added to EATOM!!)
  PAW_PBE O 08Apr2002                   :
 energy of atom  3       EATOM= -432.3788
 kinetic energy error for atom=    0.0168 (will be added to EATOM!!)
 
 
 POSCAR: Li6 Co12 O24                            
  positions in cartesian coordinates
  No initial velocities read in
 exchange correlation table for  LEXCH =        8
   RHO(1)=    0.500       N(1)  =     2000
   RHO(2)=  100.500       N(2)  =     4000
 


--------------------------------------------------------------------------------------------------------


 ion  position               nearest neighbor table
   1  0.523  0.961  0.990-  38 2.03  37 2.13  24 2.23  36 2.25  25 2.26  17 2.77  10 2.85  16 2.88
                            15 2.90
   2  0.798  0.171  0.347-  33 1.90  34 1.92  21 2.19  31 2.27  20 2.29  19 2.31  13 2.56   3 2.69
                            12 2.86   3 2.90  11 2.92   9 2.94  10 3.06   7 3.08
   3  0.787  0.685  0.321-  22 1.84  19 2.04  34 2.08  33 2.19  20 2.20  32 2.42  10 2.65   2 2.69
                             8 2.73   9 2.76  14 2.83   2 2.90  11 3.11
   4  0.136  0.317  0.659-  29 1.75  40 2.04  42 2.09  28 2.17  39 2.21  27 2.25   6 2.54   5 2.54
                            12 2.75  11 2.80  17 2.90  16 2.93   6 3.00   5 3.06  14 3.06  15 3.09
   5  0.225  0.909  0.657-  27 1.95  30 2.04  41 2.05  39 2.06  28 2.15   4 2.54  40 2.58   6 2.63
                            11 2.71  13 2.77  15 2.84   6 2.94  12 2.97   4 3.06  16 3.17  18 3.17
   6  0.674  0.863  0.653-  29 1.93  28 2.06  30 2.15  39 2.18  41 2.30  42 2.42   4 2.54   5 2.63
                            13 2.68  11 2.86  17 2.89  14 2.90   5 2.94   4 3.00  16 3.11  18 3.13
   7  0.157  0.361  0.173-  24 1.81  20 1.82  19 1.85  25 1.92  22 1.92  23 1.93  10 2.70   8 2.76
                             9 2.77   8 2.78   9 2.79  10 2.84   2 3.08
   8  0.149  0.854  0.179-  20 1.81  19 1.82  21 1.84  23 1.87  26 1.90  24 1.91   9 2.70   3 2.73
                             7 2.76  10 2.78   7 2.78  10 2.78   9 2.84
   9  0.643  0.335  0.174-  22 1.83  23 1.89  25 1.90  26 1.90  21 1.90  20 2.02   8 2.70  10 2.71
                             3 2.76   7 2.77   7 2.79  10 2.83   8 2.84   2 2.94
  10  0.645  0.847  0.169-  24 1.70  25 1.72  26 1.78  22 1.85  21 1.86  19 1.93   3 2.65   7 2.70
                             9 2.71   8 2.78   8 2.78   9 2.83   7 2.84   1 2.85   2 3.06
  11  0.037  0.015  0.499-  32 1.77  30 1.83  29 1.84  34 1.91  31 1.93  27 1.94   5 2.71  12 2.72
                            13 2.73  14 2.73   4 2.80  14 2.81  12 2.82  13 2.83   6 2.86   2 2.92
  12  0.034  0.523  0.500-  28 1.75  32 1.86  31 1.91  30 1.92  33 1.95  29 1.95  11 2.72  13 2.74
                             4 2.75  14 2.77  14 2.79  13 2.80  11 2.82   2 2.86   5 2.97
  13  0.536  0.031  0.499-  27 1.87  34 1.89  33 1.91  28 1.97  29 2.03  32 2.06   2 2.56   6 2.68
                            14 2.68  11 2.73  12 2.74   5 2.77  12 2.80  11 2.83  14 2.86
  14  0.527  0.511  0.494-  27 1.77  33 1.80  31 1.86  34 1.92  28 2.04  30 2.10  13 2.68  11 2.73
                            12 2.77  12 2.79  11 2.81   3 2.83  13 2.86   6 2.90   4 3.06
  15  0.297  0.118  0.836-  41 1.84  37 1.85  35 1.86  36 1.86  39 1.88  42 2.01  18 2.64  16 2.71
                            17 2.71  16 2.83   5 2.84  17 2.85   1 2.90  18 2.91   4 3.09
  16  0.326  0.622  0.830-  42 1.83  38 1.85  35 1.87  36 1.88  41 1.91  40 1.97  15 2.71  18 2.75
                            17 2.77  17 2.78  18 2.81  15 2.83   1 2.88   4 2.93   6 3.11   5 3.17
  17  0.816  0.132  0.827-  35 1.84  41 1.86  40 1.87  38 1.89  37 1.97  39 1.99  15 2.71  18 2.75
                            16 2.77   1 2.77  16 2.78  18 2.78  15 2.85   6 2.89   4 2.90
  18  0.827  0.635  0.827-  36 1.87  39 1.87  38 1.88  37 1.89  40 1.90  42 2.07  15 2.64  16 2.75
                            17 2.75  17 2.78  16 2.81  15 2.91   6 3.13   5 3.17
  19  0.988  0.025  0.237-   8 1.82   7 1.85  10 1.93   3 2.04   2 2.31
  20  0.009  0.526  0.241-   8 1.81   7 1.82   9 2.02   3 2.20   2 2.29
  21  0.476  0.993  0.242-   8 1.84  10 1.86   9 1.90   2 2.19
  22  0.504  0.520  0.238-   9 1.83   3 1.84  10 1.85   7 1.92
  23  0.312  0.177  0.105-   8 1.87   9 1.89   7 1.93
  24  0.334  0.696  0.114-  10 1.70   7 1.81   8 1.91   1 2.23
  25  0.808  0.160  0.110-  10 1.72   9 1.90   7 1.92   1 2.26
  26  0.810  0.687  0.113-  10 1.78   8 1.90   9 1.90
  27  0.384  0.208  0.565-  14 1.77  13 1.87  11 1.94   5 1.95   4 2.25
  28  0.335  0.677  0.568-  12 1.75  13 1.97  14 2.04   6 2.06   5 2.15   4 2.17
  29  0.891  0.177  0.572-   4 1.75  11 1.84   6 1.93  12 1.95  13 2.03
  30  0.889  0.706  0.573-  11 1.83  12 1.92   5 2.04  14 2.10   6 2.15
  31  0.198  0.359  0.428-  14 1.86  12 1.91  11 1.93   2 2.27
  32  0.163  0.845  0.430-  11 1.77  12 1.86  13 2.06   3 2.42
  33  0.697  0.369  0.428-  14 1.80   2 1.90  13 1.91  12 1.95   3 2.19
  34  0.699  0.864  0.431-  13 1.89  11 1.91  14 1.92   2 1.92   3 2.08
  35  0.132  0.288  0.898-  17 1.84  15 1.86  16 1.87
  36  0.150  0.777  0.897-  15 1.86  18 1.87  16 1.88   1 2.25
  37  0.635  0.298  0.896-  15 1.85  18 1.89  17 1.97   1 2.13
  38  0.656  0.794  0.894-  16 1.85  18 1.88  17 1.89   1 2.03
  39  0.994  0.961  0.756-  18 1.87  15 1.88  17 1.99   5 2.06   6 2.18   4 2.21
  40  0.984  0.463  0.757-  17 1.87  18 1.90  16 1.97   4 2.04   5 2.58
  41  0.474  0.975  0.769-  15 1.84  17 1.86  16 1.91   5 2.05   6 2.30
  42  0.460  0.459  0.754-  16 1.83  15 2.01  18 2.07   4 2.09   6 2.42
 

IMPORTANT INFORMATION: All symmetrisations will be switched off!
NOSYMM: (Re-)initialisation of all symmetry stuff for point group C_1.

 
 

Automatic generation of k-mesh.
 generate k-points for:    6    6    2
Space group operators:
 irot       det(A)        alpha          n_x          n_y          n_z        tau_x        tau_y        tau_z
    1     1.000000     0.000000     1.000000     0.000000     0.000000     0.000000     0.000000     0.000000
 
 Subroutine IBZKPT returns following result:
 ===========================================
 
 Found     36 irreducible k-points:
 
 Following reciprocal coordinates:
            Coordinates               Weight
  0.083333  0.083333  0.250000      2.000000
  0.250000  0.083333  0.250000      2.000000
  0.416667  0.083333  0.250000      2.000000
 -0.416667  0.083333  0.250000      2.000000
 -0.250000  0.083333  0.250000      2.000000
 -0.083333  0.083333  0.250000      2.000000
  0.083333  0.250000  0.250000      2.000000
  0.250000  0.250000  0.250000      2.000000
  0.416667  0.250000  0.250000      2.000000
 -0.416667  0.250000  0.250000      2.000000
 -0.250000  0.250000  0.250000      2.000000
 -0.083333  0.250000  0.250000      2.000000
  0.083333  0.416667  0.250000      2.000000
  0.250000  0.416667  0.250000      2.000000
  0.416667  0.416667  0.250000      2.000000
 -0.416667  0.416667  0.250000      2.000000
 -0.250000  0.416667  0.250000      2.000000
 -0.083333  0.416667  0.250000      2.000000
  0.083333 -0.416667  0.250000      2.000000
  0.250000 -0.416667  0.250000      2.000000
  0.416667 -0.416667  0.250000      2.000000
 -0.416667 -0.416667  0.250000      2.000000
 -0.250000 -0.416667  0.250000      2.000000
 -0.083333 -0.416667  0.250000      2.000000
  0.083333 -0.250000  0.250000      2.000000
  0.250000 -0.250000  0.250000      2.000000
  0.416667 -0.250000  0.250000      2.000000
 -0.416667 -0.250000  0.250000      2.000000
 -0.250000 -0.250000  0.250000      2.000000
 -0.083333 -0.250000  0.250000      2.000000
  0.083333 -0.083333  0.250000      2.000000
  0.250000 -0.083333  0.250000      2.000000
  0.416667 -0.083333  0.250000      2.000000
 -0.416667 -0.083333  0.250000      2.000000
 -0.250000 -0.083333  0.250000      2.000000
 -0.083333 -0.083333  0.250000      2.000000
 
 Following cartesian coordinates:
            Coordinates               Weight
  0.015002  0.026068  0.016692      2.000000
  0.045005  0.043420  0.016621      2.000000
  0.075008  0.060773  0.016550      2.000000
 -0.075008 -0.025990  0.016905      2.000000
 -0.045005 -0.008638  0.016834      2.000000
 -0.015002  0.008715  0.016763      2.000000
  0.015002  0.060850  0.016085      2.000000
  0.045005  0.078203  0.016014      2.000000
  0.075008  0.095556  0.015943      2.000000
 -0.075008  0.008792  0.016298      2.000000
 -0.045005  0.026145  0.016227      2.000000
 -0.015002  0.043498  0.016156      2.000000
  0.015002  0.095633  0.015478      2.000000
  0.045005  0.112986  0.015407      2.000000
  0.075008  0.130338  0.015336      2.000000
 -0.075008  0.043575  0.015692      2.000000
 -0.045005  0.060928  0.015621      2.000000
 -0.015002  0.078280  0.015549      2.000000
  0.015002 -0.078280  0.018511      2.000000
  0.045005 -0.060928  0.018440      2.000000
  0.075008 -0.043575  0.018369      2.000000
 -0.075008 -0.130338  0.018725      2.000000
 -0.045005 -0.112986  0.018654      2.000000
 -0.015002 -0.095633  0.018583      2.000000
  0.015002 -0.043498  0.017905      2.000000
  0.045005 -0.026145  0.017834      2.000000
  0.075008 -0.008792  0.017763      2.000000
 -0.075008 -0.095556  0.018118      2.000000
 -0.045005 -0.078203  0.018047      2.000000
 -0.015002 -0.060850  0.017976      2.000000
  0.015002 -0.008715  0.017298      2.000000
  0.045005  0.008638  0.017227      2.000000
  0.075008  0.025990  0.017156      2.000000
 -0.075008 -0.060773  0.017511      2.000000
 -0.045005 -0.043420  0.017440      2.000000
 -0.015002 -0.026068  0.017369      2.000000
 


--------------------------------------------------------------------------------------------------------




 Dimension of arrays:
   k-points           NKPTS =     36   k-points in BZ     NKDIM =     36   number of bands    NBANDS=    160
   number of dos      NEDOS =    301   number of ions     NIONS =     42
   non local maximal  LDIM  =      6   non local SUM 2l+1 LMDIM =     18
   total plane-waves  NPLWV = 116640
   max r-space proj   IRMAX =   2840   max aug-charges    IRDMAX=  11971
   dimension x,y,z NGX =    36 NGY =   36 NGZ =   90
   dimension x,y,z NGXF=    72 NGYF=   72 NGZF=  180
   support grid    NGXF=    72 NGYF=   72 NGZF=  180
   ions per type =               6  12  24
   NGX,Y,Z   is equivalent  to a cutoff of  10.77, 10.81, 10.19 a.u.
   NGXF,Y,Z  is equivalent  to a cutoff of  21.55, 21.62, 20.38 a.u.

 SYSTEM =  LiCoO2                                  
 POSCAR =  Li6 Co12 O24                            

 Startparameter for this run:
   NWRITE =      2    write-flag & timer
   PREC   = normal    normal or accurate (medium, high low for compatibility)
   ISTART =      0    job   : 0-new  1-cont  2-samecut
   ICHARG =      2    charge: 1-file 2-atom 10-const
   ISPIN  =      2    spin polarized calculation?
   LNONCOLLINEAR =      F non collinear calculations
   LSORBIT =      F    spin-orbit coupling
   INIWAV =      1    electr: 0-lowe 1-rand  2-diag
   LASPH  =      F    aspherical Exc in radial PAW
   METAGGA=      F    non-selfconsistent MetaGGA calc.

 Electronic Relaxation 1
   ENCUT  =  600.0 eV  44.10 Ry    6.64 a.u.  11.09 11.06 29.32*2*pi/ulx,y,z
   ENINI  =  600.0     initial cutoff
   ENAUG  =  605.4 eV  augmentation charge cutoff
   NELM   =    600;   NELMIN=  2; NELMDL= -5     # of ELM steps 
   EDIFF  = 0.1E-05   stopping-criterion for ELM
   LREAL  =      T    real-space projection
   NLSPLINE    = F    spline interpolate recip. space projectors
   LCOMPAT=      F    compatible to vasp.4.4
   GGA_COMPAT  = T    GGA compatible to vasp.4.4-vasp.4.6
   LMAXPAW     = -100 max onsite density
   LMAXMIX     =    2 max onsite mixed and CHGCAR
   VOSKOWN=      0    Vosko Wilk Nusair interpolation
   ROPT   =   -0.00050  -0.00050  -0.00050
 Ionic relaxation
   EDIFFG = 0.1E-04   stopping-criterion for IOM
   NSW    =      0    number of steps for IOM
   NBLOCK =      1;   KBLOCK =      1    inner block; outer block 
   IBRION =     -1    ionic relax: 0-MD 1-quasi-New 2-CG
   NFREE  =      0    steps in history (QN), initial steepest desc. (CG)
   ISIF   =      2    stress and relaxation
   IWAVPR =     10    prediction:  0-non 1-charg 2-wave 3-comb
   ISYM   =      0    0-nonsym 1-usesym 2-fastsym
   LCORR  =      T    Harris-Foulkes like correction to forces

   POTIM  = 0.5000    time-step for ionic-motion
   TEIN   =    0.0    initial temperature
   TEBEG  =    0.0;   TEEND  =   0.0 temperature during run
   SMASS  =  -3.00    Nose mass-parameter (am)
   estimated Nose-frequenzy (Omega)   =  0.10E-29 period in steps =****** mass=  -0.705E-27a.u.
   SCALEE = 1.0000    scale energy and forces
   NPACO  =    256;   APACO  = 16.0  distance and # of slots for P.C.
   PSTRESS=    0.0 pullay stress

  Mass of Ions in am
   POMASS =   7.01 58.93 16.00
  Ionic Valenz
   ZVAL   =   1.00  9.00  6.00
  Atomic Wigner-Seitz radii
   RWIGS  =  -1.00 -1.00 -1.00
  virtual crystal weights 
   VCA    =   1.00  1.00  1.00
   NELECT =     258.0000    total number of electrons
   NUPDOWN=       6.0000    fix difference up-down

 DOS related values:
   EMIN   =  10.00;   EMAX   =-10.00  energy-range for DOS
   EFERMI =   0.00
   ISMEAR =     0;   SIGMA  =   0.05  broadening in eV -4-tet -1-fermi 0-gaus

 Electronic relaxation 2 (details)
   IALGO  =     58    algorithm
   LDIAG  =      T    sub-space diagonalisation (order eigenvalues)
   LSUBROT=      F    optimize rotation matrix (better conditioning)
   TURBO    =      0    0=normal 1=particle mesh
   IRESTART =      0    0=no restart 2=restart with 2 vectors
   NREBOOT  =      0    no. of reboots
   NMIN     =      0    reboot dimension
   EREF     =   0.00    reference energy to select bands
   IMIX   =      4    mixing-type and parameters
     AMIX     =   0.40;   BMIX     =  1.00
     AMIX_MAG =   1.60;   BMIX_MAG =  1.00
     AMIN     =   0.10
     WC   =   100.;   INIMIX=   1;  MIXPRE=   1;  MAXMIX= -45

 Intra band minimization:
   WEIMIN = 0.0000     energy-eigenvalue tresh-hold
   EBREAK =  0.16E-08  absolut break condition
   DEPER  =   0.30     relativ break condition  

   TIME   =   0.40     timestep for ELM

  volume/ion in A,a.u.               =       9.30        62.78
  Fermi-wavevector in a.u.,A,eV,Ry     =   1.425567  2.693931 27.650329  2.032242
  Thomas-Fermi vector in A             =   2.545938
 
 Write flags
   LWAVE        =      F    write WAVECAR
   LDOWNSAMPLE  =      F    k-point downsampling of WAVECAR
   LCHARG       =      F    write CHGCAR
   LVTOT        =      F    write LOCPOT, total local potential
   LVHAR        =      F    write LOCPOT, Hartree potential only
   LELF         =      F    write electronic localiz. function (ELF)
   LORBIT       =     11    0 simple, 1 ext, 2 COOP (PROOUT), +10 PAW based schemes


 Dipole corrections
   LMONO  =      F    monopole corrections only (constant potential shift)
   LDIPOL =      F    correct potential (dipole corrections)
   IDIPOL =      0    1-x, 2-y, 3-z, 4-all directions 
   EPSILON=  1.0000000 bulk dielectric constant

 LDA+U is selected, type is set to LDAUTYPE =  2
   angular momentum for each species LDAUL =    -1    2   -1
   U (eV)           for each species LDAUU =   0.0  5.1  0.0
   J (eV)           for each species LDAUJ =   0.0  0.0  0.0
 Exchange correlation treatment:
   GGA     =    --    GGA type
   LEXCH   =     8    internal setting for exchange type
   VOSKOWN=      0    Vosko Wilk Nusair interpolation
   LHFCALC =     F    Hartree Fock is set to
   LHFONE  =     F    Hartree Fock one center treatment
   AEXX    =    0.0000 exact exchange contribution

 Linear response parameters
   LEPSILON=     F    determine dielectric tensor
   LRPA    =     F    only Hartree local field effects (RPA)
   LNABLA  =     F    use nabla operator in PAW spheres
   LVEL    =     F    velocity operator in full k-point grid
   LINTERFAST=   F  fast interpolation
   KINTER  =     0    interpolate to denser k-point grid
   CSHIFT  =0.1000    complex shift for real part using Kramers Kronig
   OMEGAMAX=  -1.0    maximum frequency
   DEG_THRESHOLD= 0.2000000E-02 threshold for treating states as degnerate
   RTIME   =   -0.100 relaxation time in fs
  (WPLASMAI=    0.000 imaginary part of plasma frequency in eV, 0.658/RTIME)
   DFIELD  = 0.0000000 0.0000000 0.0000000 field for delta impulse in time
 
 Orbital magnetization related:
   ORBITALMAG=     F  switch on orbital magnetization
   LCHIMAG   =     F  perturbation theory with respect to B field
   DQ        =  0.001000  dq finite difference perturbation B field
   LLRAUG    =     F  two centre corrections for induced B field



--------------------------------------------------------------------------------------------------------


 Static calculation
 charge density and potential will be updated during run
 spin polarized calculation
 Conjugate gradient for all bands (Freysoldt, et al. PRB 79, 241103 (2009))
 preconditioned conjugated gradient                                        
 perform sub-space diagonalisation
    before iterative eigenvector-optimisation
 modified Broyden-mixing scheme, WC =      100.0
 initial mixing is a Kerker type mixing with AMIX =  0.4000 and BMIX =      1.0000
 Hartree-type preconditioning will be used
 using additional bands           31
 real space projection scheme for non local part
 use partial core corrections
 no Harris-corrections to forces 
 use gradient corrections 
 use of overlap-Matrix (Vanderbilt PP)
 Gauss-broadening in eV      SIGMA  =   0.05


--------------------------------------------------------------------------------------------------------


  energy-cutoff  :      600.00
  volume of cell :      390.73
      direct lattice vectors                 reciprocal lattice vectors
     5.554963589  0.000000000  0.000000000     0.180019182  0.104116114 -0.000426280
    -2.771312714  4.791664124  0.000000000     0.000000000  0.208695763 -0.003639659
    -0.113306679  0.256012172 14.679576874     0.000000000  0.000000000  0.068121855

  length of vectors
     5.554963589  5.535360804 14.682246348     0.207959738  0.208727498  0.068121855


 
 k-points in units of 2pi/SCALE and weight: read from INCAR                         
   0.01500160  0.02606766  0.01669164       0.028
   0.04500480  0.04342034  0.01662059       0.028
   0.07500799  0.06077303  0.01654954       0.028
  -0.07500799 -0.02599040  0.01690478       0.028
  -0.04500480 -0.00863771  0.01683373       0.028
  -0.01500160  0.00871497  0.01676268       0.028
   0.01500160  0.06085028  0.01608503       0.028
   0.04500480  0.07820297  0.01601398       0.028
   0.07500799  0.09555565  0.01594293       0.028
  -0.07500799  0.00879223  0.01629817       0.028
  -0.04500480  0.02614491  0.01622712       0.028
  -0.01500160  0.04349760  0.01615607       0.028
   0.01500160  0.09563291  0.01547842       0.028
   0.04500480  0.11298560  0.01540737       0.028
   0.07500799  0.13033828  0.01533632       0.028
  -0.07500799  0.04357485  0.01569156       0.028
  -0.04500480  0.06092754  0.01562051       0.028
  -0.01500160  0.07828023  0.01554946       0.028
   0.01500160 -0.07828023  0.01851146       0.028
   0.04500480 -0.06092754  0.01844042       0.028
   0.07500799 -0.04357485  0.01836937       0.028
  -0.07500799 -0.13033828  0.01872461       0.028
  -0.04500480 -0.11298560  0.01865356       0.028
  -0.01500160 -0.09563291  0.01858251       0.028
   0.01500160 -0.04349760  0.01790486       0.028
   0.04500480 -0.02614491  0.01783381       0.028
   0.07500799 -0.00879223  0.01776276       0.028
  -0.07500799 -0.09555565  0.01811800       0.028
  -0.04500480 -0.07820297  0.01804695       0.028
  -0.01500160 -0.06085028  0.01797590       0.028
   0.01500160 -0.00871497  0.01729825       0.028
   0.04500480  0.00863771  0.01722720       0.028
   0.07500799  0.02599040  0.01715615       0.028
  -0.07500799 -0.06077303  0.01751139       0.028
  -0.04500480 -0.04342034  0.01744034       0.028
  -0.01500160 -0.02606766  0.01736929       0.028
 
 k-points in reciprocal lattice and weights: read from INCAR                         
   0.08333333  0.08333333  0.25000000       0.028
   0.25000000  0.08333333  0.25000000       0.028
   0.41666667  0.08333333  0.25000000       0.028
  -0.41666667  0.08333333  0.25000000       0.028
  -0.25000000  0.08333333  0.25000000       0.028
  -0.08333333  0.08333333  0.25000000       0.028
   0.08333333  0.25000000  0.25000000       0.028
   0.25000000  0.25000000  0.25000000       0.028
   0.41666667  0.25000000  0.25000000       0.028
  -0.41666667  0.25000000  0.25000000       0.028
  -0.25000000  0.25000000  0.25000000       0.028
  -0.08333333  0.25000000  0.25000000       0.028
   0.08333333  0.41666667  0.25000000       0.028
   0.25000000  0.41666667  0.25000000       0.028
   0.41666667  0.41666667  0.25000000       0.028
  -0.41666667  0.41666667  0.25000000       0.028
  -0.25000000  0.41666667  0.25000000       0.028
  -0.08333333  0.41666667  0.25000000       0.028
   0.08333333 -0.41666667  0.25000000       0.028
   0.25000000 -0.41666667  0.25000000       0.028
   0.41666667 -0.41666667  0.25000000       0.028
  -0.41666667 -0.41666667  0.25000000       0.028
  -0.25000000 -0.41666667  0.25000000       0.028
  -0.08333333 -0.41666667  0.25000000       0.028
   0.08333333 -0.25000000  0.25000000       0.028
   0.25000000 -0.25000000  0.25000000       0.028
   0.41666667 -0.25000000  0.25000000       0.028
  -0.41666667 -0.25000000  0.25000000       0.028
  -0.25000000 -0.25000000  0.25000000       0.028
  -0.08333333 -0.25000000  0.25000000       0.028
   0.08333333 -0.08333333  0.25000000       0.028
   0.25000000 -0.08333333  0.25000000       0.028
   0.41666667 -0.08333333  0.25000000       0.028
  -0.41666667 -0.08333333  0.25000000       0.028
  -0.25000000 -0.08333333  0.25000000       0.028
  -0.08333333 -0.08333333  0.25000000       0.028
 
 position of ions in fractional coordinates (direct lattice) 
   0.52316502  0.96149906  0.98995085
   0.79786708  0.17091145  0.34705293
   0.78659291  0.68530278  0.32130967
   0.13621568  0.31722355  0.65942704
   0.22548284  0.90907445  0.65688473
   0.67404465  0.86325770  0.65262237
   0.15683658  0.36073203  0.17289530
   0.14901376  0.85419821  0.17850378
   0.64303970  0.33522306  0.17434221
   0.64459074  0.84688248  0.16938022
   0.03666374  0.01518079  0.49895580
   0.03439652  0.52268512  0.50047763
   0.53600763  0.03131784  0.49874736
   0.52699025  0.51118004  0.49433918
   0.29697579  0.11809056  0.83581835
   0.32569149  0.62155868  0.83023237
   0.81598703  0.13239170  0.82704429
   0.82747058  0.63541451  0.82737127
   0.98841872  0.02463038  0.23697890
   0.00932659  0.52571103  0.24119700
   0.47637319  0.99312419  0.24206896
   0.50444558  0.51983508  0.23750821
   0.31203244  0.17693683  0.10459702
   0.33405693  0.69637330  0.11399034
   0.80787822  0.16025009  0.10997661
   0.81012876  0.68704520  0.11269058
   0.38425228  0.20812081  0.56518792
   0.33540274  0.67659865  0.56769418
   0.89092700  0.17739545  0.57224064
   0.88907427  0.70575002  0.57349949
   0.19821590  0.35940751  0.42814312
   0.16324235  0.84528953  0.42957438
   0.69650667  0.36944399  0.42790333
   0.69940036  0.86356574  0.43053760
   0.13242020  0.28790446  0.89752994
   0.15009508  0.77660269  0.89742099
   0.63452854  0.29840189  0.89604488
   0.65594070  0.79361734  0.89434186
   0.99407358  0.96062187  0.75563892
   0.98416014  0.46255354  0.75691284
   0.47411166  0.97480843  0.76865702
   0.46018715  0.45889471  0.75399041
 
 position of ions in cartesian coordinates  (Angst):
   0.12938000  4.86062002 14.53205967
   3.91915011  0.90780002  5.09459019
   2.43390012  3.36599994  4.71669006
  -0.19717000  1.68885005  9.68010998
  -1.34121001  4.52414989  9.64278984
   1.27798998  4.30352020  9.58022022
  -0.14806999  1.77277005  2.53802991
  -1.55971003  4.13873005  2.62035990
   2.62330008  1.65091002  2.55926991
   1.21450996  4.10133982  2.48642993
   0.10506000  0.20048000  7.32446003
  -1.31415999  2.63265991  7.34679985
   2.83419991  0.27774999  7.32140017
   1.45475996  2.57595992  7.25669003
   1.22772002  0.77982998 12.26945972
  -0.00740000  3.19085002 12.18745995
   4.07216978  0.84610999 12.14066029
   2.74188995  3.25651002 12.14546013
   5.39552021  0.17869000  3.47874999
  -1.43243003  2.58078003  3.54066992
  -0.13345000  4.82069016  3.55346990
   1.33464003  2.55168009  3.48652005
   1.23113000  0.87459999  1.53543997
  -0.08711000  3.36596990  1.67332995
   4.03116989  0.79601997  1.61441004
   2.58345008  3.32094002  1.65425003
   1.49370003  1.14194000  8.29671955
  -0.07624000  3.38737011  8.33351040
   4.39261007  0.99651998  8.40025043
   2.91793990  3.52853990  8.41872978
   0.05654000  1.83176994  6.28495979
  -1.48442996  4.16031981  6.30597019
   2.79674006  1.87979996  6.28143978
   1.44315004  4.24813986  6.32010984
  -0.16398001  1.60932004 13.17535973
  -1.42012000  3.95096993 13.17376041
   2.59629011  1.65924001 13.15355968
   1.34302998  4.03171015 13.12856007
   2.77424002  4.79643011 11.09245968
   4.09932995  2.41018009 11.11116028
  -0.15492000  4.86774015 11.28355980
   1.19914997  2.39190006 11.06826019
 


--------------------------------------------------------------------------------------------------------


 k-point  1 :   0.0833 0.0833 0.2500  plane waves:   13002
 k-point  2 :   0.2500 0.0833 0.2500  plane waves:   13038
 k-point  3 :   0.4167 0.0833 0.2500  plane waves:   13057
 k-point  4 :  -0.4167 0.0833 0.2500  plane waves:   13047
 k-point  5 :  -0.2500 0.0833 0.2500  plane waves:   13026
 k-point  6 :  -0.0833 0.0833 0.2500  plane waves:   12983
 k-point  7 :   0.0833 0.2500 0.2500  plane waves:   13041
 k-point  8 :   0.2500 0.2500 0.2500  plane waves:   13054
 k-point  9 :   0.4167 0.2500 0.2500  plane waves:   13067
 k-point 10 :  -0.4167 0.2500 0.2500  plane waves:   13039
 k-point 11 :  -0.2500 0.2500 0.2500  plane waves:   13022
 k-point 12 :  -0.0833 0.2500 0.2500  plane waves:   13021
 k-point 13 :   0.0833 0.4167 0.2500  plane waves:   13044
 k-point 14 :   0.2500 0.4167 0.2500  plane waves:   13046
 k-point 15 :   0.4167 0.4167 0.2500  plane waves:   13039
 k-point 16 :  -0.4167 0.4167 0.2500  plane waves:   13045
 k-point 17 :  -0.2500 0.4167 0.2500  plane waves:   13058
 k-point 18 :  -0.0833 0.4167 0.2500  plane waves:   13037
 k-point 19 :   0.0833-0.4167 0.2500  plane waves:   13060
 k-point 20 :   0.2500-0.4167 0.2500  plane waves:   13066
 k-point 21 :   0.4167-0.4167 0.2500  plane waves:   13055
 k-point 22 :  -0.4167-0.4167 0.2500  plane waves:   13046
 k-point 23 :  -0.2500-0.4167 0.2500  plane waves:   13058
 k-point 24 :  -0.0833-0.4167 0.2500  plane waves:   13048
 k-point 25 :   0.0833-0.2500 0.2500  plane waves:   13026
 k-point 26 :   0.2500-0.2500 0.2500  plane waves:   13029
 k-point 27 :   0.4167-0.2500 0.2500  plane waves:   13063
 k-point 28 :  -0.4167-0.2500 0.2500  plane waves:   13046
 k-point 29 :  -0.2500-0.2500 0.2500  plane waves:   13064
 k-point 30 :  -0.0833-0.2500 0.2500  plane waves:   13046
 k-point 31 :   0.0833-0.0833 0.2500  plane waves:   13000
 k-point 32 :   0.2500-0.0833 0.2500  plane waves:   13013
 k-point 33 :   0.4167-0.0833 0.2500  plane waves:   13045
 k-point 34 :  -0.4167-0.0833 0.2500  plane waves:   13055
 k-point 35 :  -0.2500-0.0833 0.2500  plane waves:   13036
 k-point 36 :  -0.0833-0.0833 0.2500  plane waves:   13000

 maximum and minimum number of plane-waves per node :      3291     3230

 maximum number of plane-waves:     13067
 maximum index in each direction: 
   IXMAX=   11   IYMAX=   11   IZMAX=   29
   IXMIN=  -11   IYMIN=  -11   IZMIN=  -29


 real space projection operators:
  total allocation   :       7580.45 KBytes
  max/ min on nodes  :       1906.84       1887.51


 parallel 3D FFT for wavefunctions:
    minimum data exchange during FFTs selected (reduces bandwidth)
 parallel 3D FFT for charge:
    minimum data exchange during FFTs selected (reduces bandwidth)


 total amount of memory used by VASP MPI-rank0   158785. kBytes
=======================================================================

   base      :      30000. kBytes
   nonlr-proj:       4330. kBytes
   fftplans  :       1689. kBytes
   grid      :       4644. kBytes
   one-center:        342. kBytes
   wavefun   :     117780. kBytes
 
     INWAV:  cpu time    0.0000: real time    0.0002
 Broyden mixing: mesh for mixing (old mesh)
   NGX = 23   NGY = 23   NGZ = 59
  (NGX  = 72   NGY  = 72   NGZ  =180)
  gives a total of  31211 points

 initial charge density was supplied:
 charge density of overlapping atoms calculated
 number of electron     258.0000000 magnetization       6.0000000
 keeping initial charge density in first step


--------------------------------------------------------------------------------------------------------


 Maximum index for non-local projection operator          690
 Maximum index for augmentation-charges          833 (set IRDMAX)


--------------------------------------------------------------------------------------------------------


 First call to EWALD:  gamma=   0.242
 Maximum number of real-space cells 4x 4x 2
 Maximum number of reciprocal cells 2x 2x 5

    FEWALD:  cpu time    0.0037: real time    0.0037


--------------------------------------- Iteration      1(   1)  ---------------------------------------


    POTLOK:  cpu time    0.0573: real time    0.0678
    SETDIJ:  cpu time    0.0174: real time    0.0175
    TRIAL :  cpu time   24.8011: real time   24.8732
    CORREC:  cpu time    0.0038: real time    0.0038
    --------------------------------------------
      LOOP:  cpu time   25.0715: real time   25.1550

 eigenvalue-minimisations  : 23040
 total energy-change (2. order) : 0.3512325E+04  (-0.1397526E+05)
 number of electron     258.0000000 magnetization       6.0000000
 augmentation part      258.0000000 magnetization       6.0000000

 Free energy of the ion-electron system (eV)
  ---------------------------------------------------
  alpha Z        PSCENC =       750.29764885
  Ewald energy   TEWEN  =    -13369.63589753
  -Hartree energ DENC   =     -7636.88758632
  -exchange      EXHF   =         0.00000000
  -V(xc)+E(xc)   XCENC  =       845.35988165
  PAW double counting   =     17015.18481625   -17491.61297812
  entropy T*S    EENTRO =        -0.00535018
  eigenvalues    EBANDS =      3230.75378591
  atomic energy  EATOM  =     20168.87094289
  ---------------------------------------------------
  free energy    TOTEN  =      3512.32526339 eV

  energy without entropy =     3512.33061357  energy(sigma->0) =     3512.32793848


--------------------------------------------------------------------------------------------------------




--------------------------------------- Iteration      1(   2)  ---------------------------------------


    TRIAL :  cpu time   27.0142: real time   27.0558
    CORREC:  cpu time    0.0040: real time    0.0040
    --------------------------------------------
      LOOP:  cpu time   27.0224: real time   27.0639

 eigenvalue-minimisations  : 24768
 total energy-change (2. order) :-0.3091872E+04  (-0.2850403E+04)
 number of electron     258.0000000 magnetization       6.0000000
 augmentation part      258.0000000 magnetization       6.0000000

 Free energy of the ion-electron system (eV)
  ---------------------------------------------------
  alpha Z        PSCENC =       750.29764885
  Ewald energy   TEWEN  =    -13369.63589753
  -Hartree energ DENC   =     -7636.88758632
  -exchange      EXHF   =         0.00000000
  -V(xc)+E(xc)   XCENC  =       845.35988165
  PAW double counting   =     17015.18481625   -17491.61297812
  entropy T*S    EENTRO =        -0.01937933
  eigenvalues    EBANDS =       138.89597775
  atomic energy  EATOM  =     20168.87094289
  ---------------------------------------------------
  free energy    TOTEN  =       420.45342608 eV

  energy without entropy =      420.47280541  energy(sigma->0) =      420.46311575


--------------------------------------------------------------------------------------------------------




--------------------------------------- Iteration      1(   3)  ---------------------------------------


    TRIAL :  cpu time   26.5370: real time   26.7650
    CORREC:  cpu time    0.0040: real time    0.0041
    --------------------------------------------
      LOOP:  cpu time   26.5449: real time   26.7730

 eigenvalue-minimisations  : 25888
 total energy-change (2. order) :-0.6380706E+03  (-0.5837127E+03)
 number of electron     258.0000000 magnetization       6.0000000
 augmentation part      258.0000000 magnetization       6.0000000

 Free energy of the ion-electron system (eV)
  ---------------------------------------------------
  alpha Z        PSCENC =       750.29764885
  Ewald energy   TEWEN  =    -13369.63589753
  -Hartree energ DENC   =     -7636.88758632
  -exchange      EXHF   =         0.00000000
  -V(xc)+E(xc)   XCENC  =       845.35988165
  PAW double counting   =     17015.18481625   -17491.61297812
  entropy T*S    EENTRO =        -0.03304892
  eigenvalues    EBANDS =      -499.16092801
  atomic energy  EATOM  =     20168.87094289
  ---------------------------------------------------
  free energy    TOTEN  =      -217.61714926 eV

  energy without entropy =     -217.58410034  energy(sigma->0) =     -217.60062480


--------------------------------------------------------------------------------------------------------




--------------------------------------- Iteration      1(   4)  ---------------------------------------


    TRIAL :  cpu time   25.9614: real time   25.9964
    CORREC:  cpu time    0.0040: real time    0.0040
    --------------------------------------------
      LOOP:  cpu time   25.9693: real time   26.0044

 eigenvalue-minimisations  : 25312
 total energy-change (2. order) :-0.5156057E+02  (-0.5043660E+02)
 number of electron     258.0000000 magnetization       6.0000000
 augmentation part      258.0000000 magnetization       6.0000000

 Free energy of the ion-electron system (eV)
  ---------------------------------------------------
  alpha Z        PSCENC =       750.29764885
  Ewald energy   TEWEN  =    -13369.63589753
  -Hartree energ DENC   =     -7636.88758632
  -exchange      EXHF   =         0.00000000
  -V(xc)+E(xc)   XCENC  =       845.35988165
  PAW double counting   =     17015.18481625   -17491.61297812
  entropy T*S    EENTRO =        -0.02563659
  eigenvalues    EBANDS =      -550.72891268
  atomic energy  EATOM  =     20168.87094289
  ---------------------------------------------------
  free energy    TOTEN  =      -269.17772160 eV

  energy without entropy =     -269.15208501  energy(sigma->0) =     -269.16490331


--------------------------------------------------------------------------------------------------------




--------------------------------------- Iteration      1(   5)  ---------------------------------------


    TRIAL :  cpu time   28.7042: real time   28.7452
    CORREC:  cpu time    0.0046: real time    0.0046
    CHARGE:  cpu time    0.5020: real time    0.5026
    --------------------------------------------
      LOOP:  cpu time   29.2149: real time   29.2565

 eigenvalue-minimisations  : 28448
 total energy-change (2. order) :-0.1762597E+01  (-0.1759217E+01)
 number of electron     258.0000007 magnetization       5.9999999
 augmentation part       68.3206245 magnetization       4.3183125

 Free energy of the ion-electron system (eV)
  ---------------------------------------------------
  alpha Z        PSCENC =       750.29764885
  Ewald energy   TEWEN  =    -13369.63589753
  -Hartree energ DENC   =     -7636.88758632
  -exchange      EXHF   =         0.00000000
  -V(xc)+E(xc)   XCENC  =       845.35988165
  PAW double counting   =     17015.18481625   -17491.61297812
  entropy T*S    EENTRO =        -0.02593219
  eigenvalues    EBANDS =      -552.49121406
  atomic energy  EATOM  =     20168.87094289
  ---------------------------------------------------
  free energy    TOTEN  =      -270.94031859 eV

  energy without entropy =     -270.91438639  energy(sigma->0) =     -270.92735249


--------------------------------------------------------------------------------------------------------




--------------------------------------- Iteration      1(   6)  ---------------------------------------


    POTLOK:  cpu time    0.0455: real time    0.0456
    SETDIJ:  cpu time    0.0121: real time    0.0121
    TRIAL :  cpu time   13.7935: real time   13.8139
    CORREC:  cpu time    4.3781: real time    4.3844
    CHARGE:  cpu time    0.4893: real time    0.4897
    --------------------------------------------
      LOOP:  cpu time   18.7227: real time   18.7499

 eigenvalue-minimisations  :     0
 total energy-change (2. order) : 0.3519252E+03  (-0.7574557E+02)
 number of electron     258.0000011 magnetization       5.9999995
 augmentation part       69.7921854 magnetization       4.3768280

 Free energy of the ion-electron system (eV)
  ---------------------------------------------------
  alpha Z        PSCENC =       750.29764885
  Ewald energy   TEWEN  =    -13369.63589753
  -Hartree energ DENC   =     -7358.51451129
  -exchange      EXHF   =         0.00000000
  -V(xc)+E(xc)   XCENC  =       880.04622661
  PAW double counting   =     24423.97213197   -24638.90136817
  entropy T*S    EENTRO =        -0.04642406
  eigenvalues    EBANDS =      -775.12438990
  atomic energy  EATOM  =     20168.87094289
  ---------------------------------------------------
  free energy    TOTEN  =        80.98485123 eV

  energy without entropy =       81.03127529  energy(sigma->0) =       81.00806326


--------------------------------------------------------------------------------------------------------




--------------------------------------- Iteration      1(   7)  ---------------------------------------


    POTLOK:  cpu time    0.0451: real time    0.0451
    SETDIJ:  cpu time    0.0122: real time    0.0122
    TRIAL :  cpu time   13.7294: real time   13.7932
    CORREC:  cpu time    4.5129: real time    4.5189
    CHARGE:  cpu time    0.4913: real time    0.4918
    --------------------------------------------
      LOOP:  cpu time   18.7954: real time   18.8661

 eigenvalue-minimisations  :     0
 total energy-change (2. order) :-0.6362466E+02  (-0.5226204E+03)
 number of electron     257.9999992 magnetization       6.0000006
 augmentation part       72.1057069 magnetization       4.3949220

 Free energy of the ion-electron system (eV)
  ---------------------------------------------------
  alpha Z        PSCENC =       750.29764885
  Ewald energy   TEWEN  =    -13369.63589753
  -Hartree energ DENC   =     -7254.71509587
  -exchange      EXHF   =         0.00000000
  -V(xc)+E(xc)   XCENC  =       873.37974926
  PAW double counting   =     24297.76217594   -24570.67677916
  entropy T*S    EENTRO =        -0.06342790
  eigenvalues    EBANDS =      -877.87613218
  atomic energy  EATOM  =     20168.87094289
  ---------------------------------------------------
  free energy    TOTEN  =        17.36018814 eV

  energy without entropy =       17.42361605  energy(sigma->0) =       17.39190210


--------------------------------------------------------------------------------------------------------




--------------------------------------- Iteration      1(   8)  ---------------------------------------


    POTLOK:  cpu time    0.0448: real time    0.0449
    SETDIJ:  cpu time    0.0122: real time    0.0122
    TRIAL :  cpu time   13.8212: real time   13.8421
    CORREC:  cpu time    4.3670: real time    4.3724
    CHARGE:  cpu time    0.4734: real time    0.4739
    --------------------------------------------
      LOOP:  cpu time   18.7233: real time   18.7501

 eigenvalue-minimisations  :     0
 total energy-change (2. order) : 0.2323139E+03  (-0.3941296E+04)
 number of electron     258.0000033 magnetization       5.9999996
 augmentation part       73.8828660 magnetization       4.2549646

 Free energy of the ion-electron system (eV)
  ---------------------------------------------------
  alpha Z        PSCENC =       750.29764885
  Ewald energy   TEWEN  =    -13369.63589753
  -Hartree energ DENC   =     -7866.91504287
  -exchange      EXHF   =         0.00000000
  -V(xc)+E(xc)   XCENC  =       868.39734093
  PAW double counting   =     24763.19958331   -25157.19082487
  entropy T*S    EENTRO =        -0.01770652
  eigenvalues    EBANDS =        92.71380277
  atomic energy  EATOM  =     20168.87094289
  ---------------------------------------------------
  free energy    TOTEN  =       249.67412556 eV

  energy without entropy =      249.69183208  energy(sigma->0) =      249.68297882


--------------------------------------------------------------------------------------------------------




--------------------------------------- Iteration      1(   9)  ---------------------------------------


    POTLOK:  cpu time    0.0452: real time    0.0452
    SETDIJ:  cpu time    0.0156: real time    0.0156
    TRIAL :  cpu time   13.7919: real time   13.8069
    CORREC:  cpu time    4.3636: real time    4.3710
    CHARGE:  cpu time    0.4625: real time    0.4629
    --------------------------------------------
      LOOP:  cpu time   18.6834: real time   18.7063

 eigenvalue-minimisations  :     0
 total energy-change (2. order) : 0.3621659E+04  (-0.1453158E+04)
 number of electron     257.9999981 magnetization       6.0000008
 augmentation part       74.6943085 magnetization       4.3444438

 Free energy of the ion-electron system (eV)
  ---------------------------------------------------
  alpha Z        PSCENC =       750.29764885
  Ewald energy   TEWEN  =    -13369.63589753
  -Hartree energ DENC   =    -10549.86129018
  -exchange      EXHF   =         0.00000000
  -V(xc)+E(xc)   XCENC  =       898.41491832
  PAW double counting   =     28927.32842645   -29598.01261356
  entropy T*S    EENTRO =        -0.02273362
  eigenvalues    EBANDS =      6643.94897614
  atomic energy  EATOM  =     20168.87094289
  ---------------------------------------------------
  free energy    TOTEN  =      3871.33340485 eV

  energy without entropy =     3871.35613847  energy(sigma->0) =     3871.34477166


--------------------------------------------------------------------------------------------------------




--------------------------------------- Iteration      1(  10)  ---------------------------------------


    POTLOK:  cpu time    0.0451: real time    0.0452
    SETDIJ:  cpu time    0.0122: real time    0.0121
    TRIAL :  cpu time   13.7173: real time   13.7366
    CORREC:  cpu time    4.3665: real time    4.3723
    CHARGE:  cpu time    0.4869: real time    0.4872
    --------------------------------------------
      LOOP:  cpu time   18.6322: real time   18.6576

 eigenvalue-minimisations  :     0
 total energy-change (2. order) :-0.4398561E+03  (-0.3623393E+03)
 number of electron     258.0000000 magnetization       6.0000001
 augmentation part       77.0550060 magnetization       4.2528720

 Free energy of the ion-electron system (eV)
  ---------------------------------------------------
  alpha Z        PSCENC =       750.29764885
  Ewald energy   TEWEN  =    -13369.63589753
  -Hartree energ DENC   =    -11499.50003729
  -exchange      EXHF   =         0.00000000
  -V(xc)+E(xc)   XCENC  =       884.88841932
  PAW double counting   =     28191.07626500   -28853.27961088
  entropy T*S    EENTRO =        -0.03214191
  eigenvalues    EBANDS =      7158.78230200
  atomic energy  EATOM  =     20168.87094289
  ---------------------------------------------------
  free energy    TOTEN  =      3431.47729872 eV

  energy without entropy =     3431.50944063  energy(sigma->0) =     3431.49336967


--------------------------------------------------------------------------------------------------------




--------------------------------------- Iteration      1(  11)  ---------------------------------------


    POTLOK:  cpu time    0.0449: real time    0.0450
    SETDIJ:  cpu time    0.0121: real time    0.0122
    TRIAL :  cpu time   13.7812: real time   13.8064
    CORREC:  cpu time    4.5514: real time    4.5570
    CHARGE:  cpu time    0.4903: real time    0.4910
    --------------------------------------------
      LOOP:  cpu time   18.8844: real time   18.9158

 eigenvalue-minimisations  :     0
 total energy-change (2. order) :-0.3062011E+04  (-0.3300119E+04)
 number of electron     258.0000036 magnetization       5.9999997
 augmentation part       75.8669865 magnetization       4.0761907

 Free energy of the ion-electron system (eV)
  ---------------------------------------------------
  alpha Z        PSCENC =       750.29764885
  Ewald energy   TEWEN  =    -13369.63589753
  -Hartree energ DENC   =     -8197.28440347
  -exchange      EXHF   =         0.00000000
  -V(xc)+E(xc)   XCENC  =       856.00896767
  PAW double counting   =     25786.95217091   -26387.47156124
  entropy T*S    EENTRO =        -0.02466763
  eigenvalues    EBANDS =       761.76035770
  atomic energy  EATOM  =     20168.87094289
  ---------------------------------------------------
  free energy    TOTEN  =       369.46608386 eV

  energy without entropy =      369.49075149  energy(sigma->0) =      369.47841767


--------------------------------------------------------------------------------------------------------




--------------------------------------- Iteration      1(  12)  ---------------------------------------


    POTLOK:  cpu time    0.0459: real time    0.0459
    SETDIJ:  cpu time    0.0122: real time    0.0122
    TRIAL :  cpu time   13.7467: real time   13.8423
    CORREC:  cpu time    4.3944: real time    4.4003
    CHARGE:  cpu time    0.4891: real time    0.4896
    --------------------------------------------
      LOOP:  cpu time   18.6926: real time   18.7946

 eigenvalue-minimisations  :     0
 total energy-change (2. order) : 0.3016564E+04  (-0.2987221E+04)
 number of electron     257.9999975 magnetization       6.0000002
 augmentation part       75.1400391 magnetization       4.4942789

 Free energy of the ion-electron system (eV)
  ---------------------------------------------------
  alpha Z        PSCENC =       750.29764885
  Ewald energy   TEWEN  =    -13369.63589753
  -Hartree energ DENC   =    -10433.40271016
  -exchange      EXHF   =         0.00000000
  -V(xc)+E(xc)   XCENC  =       882.02792258
  PAW double counting   =     29069.95273418   -29774.93354575
  entropy T*S    EENTRO =        -0.03787089
  eigenvalues    EBANDS =      6092.87772730
  atomic energy  EATOM  =     20168.87094289
  ---------------------------------------------------
  free energy    TOTEN  =      3386.03015472 eV

  energy without entropy =     3386.06802561  energy(sigma->0) =     3386.04909016


--------------------------------------------------------------------------------------------------------




--------------------------------------- Iteration      1(  13)  ---------------------------------------


    POTLOK:  cpu time    0.0450: real time    0.0451
    SETDIJ:  cpu time    0.0123: real time    0.0124
    TRIAL :  cpu time   13.7801: real time   13.8003
    CORREC:  cpu time    4.3952: real time    4.4010
    CHARGE:  cpu time    0.4904: real time    0.4910
    --------------------------------------------
      LOOP:  cpu time   18.7272: real time   18.7539

 eigenvalue-minimisations  :     0
 total energy-change (2. order) :-0.9192075E+03  (-0.6512004E+03)
 number of electron     258.0000013 magnetization       5.9999997
 augmentation part       77.5422092 magnetization       4.1701374

 Free energy of the ion-electron system (eV)
  ---------------------------------------------------
  alpha Z        PSCENC =       750.29764885
  Ewald energy   TEWEN  =    -13369.63589753
  -Hartree energ DENC   =    -10569.42443359
  -exchange      EXHF   =         0.00000000
  -V(xc)+E(xc)   XCENC  =       874.73895649
  PAW double counting   =     27640.86178302   -28266.37497353
  entropy T*S    EENTRO =        -0.02830802
  eigenvalues    EBANDS =      5237.52652248
  atomic energy  EATOM  =     20168.87094289
  ---------------------------------------------------
  free energy    TOTEN  =      2466.82267818 eV

  energy without entropy =     2466.85098621  energy(sigma->0) =     2466.83683220


--------------------------------------------------------------------------------------------------------




--------------------------------------- Iteration      1(  14)  ---------------------------------------


    POTLOK:  cpu time    0.0450: real time    0.0450
    SETDIJ:  cpu time    0.0122: real time    0.0122
    TRIAL :  cpu time   13.8288: real time   13.8523
    CORREC:  cpu time    4.4120: real time    4.4176
    CHARGE:  cpu time    0.4990: real time    0.4994
    --------------------------------------------
      LOOP:  cpu time   18.8008: real time   18.8304

 eigenvalue-minimisations  :     0
 total energy-change (2. order) :-0.2440961E+04  (-0.4715937E+03)
 number of electron     258.0000000 magnetization       6.0000004
 augmentation part       76.9371705 magnetization       4.1196951

 Free energy of the ion-electron system (eV)
  ---------------------------------------------------
  alpha Z        PSCENC =       750.29764885
  Ewald energy   TEWEN  =    -13369.63589753
  -Hartree energ DENC   =     -7749.72483197
  -exchange      EXHF   =         0.00000000
  -V(xc)+E(xc)   XCENC  =       857.75550407
  PAW double counting   =     25470.51214673   -26032.69395837
  entropy T*S    EENTRO =        -0.02207460
  eigenvalues    EBANDS =       -69.49179404
  atomic energy  EATOM  =     20168.87094289
  ---------------------------------------------------
  free energy    TOTEN  =        25.86145259 eV

  energy without entropy =       25.88352719  energy(sigma->0) =       25.87248989


--------------------------------------------------------------------------------------------------------




--------------------------------------- Iteration      1(  15)  ---------------------------------------


    POTLOK:  cpu time    0.0454: real time    0.0454
    SETDIJ:  cpu time    0.0123: real time    0.0122
    TRIAL :  cpu time   13.9205: real time   13.9363
    CORREC:  cpu time    4.5215: real time    4.5272
    CHARGE:  cpu time    0.4842: real time    0.4847
    --------------------------------------------
      LOOP:  cpu time   18.9880: real time   19.0099

 eigenvalue-minimisations  :     0
 total energy-change (2. order) :-0.1113999E+03  (-0.5677882E+02)
 number of electron     258.0000000 magnetization       6.0000006
 augmentation part       76.7856566 magnetization       3.9725333

 Free energy of the ion-electron system (eV)
  ---------------------------------------------------
  alpha Z        PSCENC =       750.29764885
  Ewald energy   TEWEN  =    -13369.63589753
  -Hartree energ DENC   =     -7822.88636508
  -exchange      EXHF   =         0.00000000
  -V(xc)+E(xc)   XCENC  =       856.47689228
  PAW double counting   =     25236.18377584   -25772.88234998
  entropy T*S    EENTRO =        -0.02346016
  eigenvalues    EBANDS =      -131.94105664
  atomic energy  EATOM  =     20168.87094289
  ---------------------------------------------------
  free energy    TOTEN  =       -85.53848398 eV

  energy without entropy =      -85.51502382  energy(sigma->0) =      -85.52675390


--------------------------------------------------------------------------------------------------------




--------------------------------------- Iteration      1(  16)  ---------------------------------------


    POTLOK:  cpu time    0.0456: real time    0.0457
    SETDIJ:  cpu time    0.0122: real time    0.0122
    TRIAL :  cpu time   13.7328: real time   13.7536
    CORREC:  cpu time    4.4114: real time    4.4175
    CHARGE:  cpu time    0.4930: real time    0.4934
    --------------------------------------------
      LOOP:  cpu time   18.6993: real time   18.7266

 eigenvalue-minimisations  :     0
 total energy-change (2. order) :-0.6434819E+02  (-0.6232279E+01)
 number of electron     258.0000002 magnetization       6.0000005
 augmentation part       76.7291183 magnetization       3.9313238

 Free energy of the ion-electron system (eV)
  ---------------------------------------------------
  alpha Z        PSCENC =       750.29764885
  Ewald energy   TEWEN  =    -13369.63589753
  -Hartree energ DENC   =     -7754.99590653
  -exchange      EXHF   =         0.00000000
  -V(xc)+E(xc)   XCENC  =       855.90836070
  PAW double counting   =     25158.12649957   -25684.66678666
  entropy T*S    EENTRO =        -0.02718620
  eigenvalues    EBANDS =      -273.76807123
  atomic energy  EATOM  =     20168.87094289
  ---------------------------------------------------
  free energy    TOTEN  =      -149.88667011 eV

  energy without entropy =     -149.85948391  energy(sigma->0) =     -149.87307701


--------------------------------------------------------------------------------------------------------




--------------------------------------- Iteration      1(  17)  ---------------------------------------


    POTLOK:  cpu time    0.0455: real time    0.0456
    SETDIJ:  cpu time    0.0122: real time    0.0122
    TRIAL :  cpu time   13.7171: real time   13.8109
    CORREC:  cpu time    4.4236: real time    4.4299
    CHARGE:  cpu time    0.4816: real time    0.4822
    --------------------------------------------
      LOOP:  cpu time   18.6843: real time   18.7850

 eigenvalue-minimisations  :     0
 total energy-change (2. order) :-0.1478721E+02  (-0.2157662E+02)
 number of electron     258.0000007 magnetization       6.0000000
 augmentation part       76.5343879 magnetization       3.9337136

 Free energy of the ion-electron system (eV)
  ---------------------------------------------------
  alpha Z        PSCENC =       750.29764885
  Ewald energy   TEWEN  =    -13369.63589753
  -Hartree energ DENC   =     -7722.53291729
  -exchange      EXHF   =         0.00000000
  -V(xc)+E(xc)   XCENC  =       855.71580158
  PAW double counting   =     25124.49052664   -25647.28838654
  entropy T*S    EENTRO =        -0.02674802
  eigenvalues    EBANDS =      -324.56441522
  atomic energy  EATOM  =     20168.87094289
  ---------------------------------------------------
  free energy    TOTEN  =      -164.67388282 eV

  energy without entropy =     -164.64713480  energy(sigma->0) =     -164.66050881


--------------------------------------------------------------------------------------------------------




--------------------------------------- Iteration      1(  18)  ---------------------------------------


    POTLOK:  cpu time    0.0452: real time    0.0452
    SETDIJ:  cpu time    0.0123: real time    0.0123
    TRIAL :  cpu time   13.9415: real time   13.9623
    CORREC:  cpu time    4.4360: real time    4.4417
    CHARGE:  cpu time    0.4899: real time    0.4905
    --------------------------------------------
      LOOP:  cpu time   18.9290: real time   18.9561

 eigenvalue-minimisations  :     0
 total energy-change (2. order) :-0.1479547E+02  (-0.1359786E+02)
 number of electron     258.0000004 magnetization       6.0000003
 augmentation part       75.9354004 magnetization       3.9748325

 Free energy of the ion-electron system (eV)
  ---------------------------------------------------
  alpha Z        PSCENC =       750.29764885
  Ewald energy   TEWEN  =    -13369.63589753
  -Hartree energ DENC   =     -7641.17600623
  -exchange      EXHF   =         0.00000000
  -V(xc)+E(xc)   XCENC  =       855.45888008
  PAW double counting   =     25036.14490253   -25548.20918137
  entropy T*S    EENTRO =        -0.02146746
  eigenvalues    EBANDS =      -431.19389736
  atomic energy  EATOM  =     20168.87094289
  ---------------------------------------------------
  free energy    TOTEN  =      -179.46935617 eV

  energy without entropy =     -179.44788871  energy(sigma->0) =     -179.45862244


--------------------------------------------------------------------------------------------------------




--------------------------------------- Iteration      1(  19)  ---------------------------------------


    POTLOK:  cpu time    0.0453: real time    0.0454
    SETDIJ:  cpu time    0.0150: real time    0.0150
    TRIAL :  cpu time   14.0307: real time   14.0466
    CORREC:  cpu time    4.5854: real time    4.5915
    CHARGE:  cpu time    0.4800: real time    0.4804
    --------------------------------------------
      LOOP:  cpu time   19.1608: real time   19.1830

 eigenvalue-minimisations  :     0
 total energy-change (2. order) :-0.1208292E+02  (-0.1067170E+02)
 number of electron     258.0000003 magnetization       6.0000003
 augmentation part       75.6301993 magnetization       3.9544309

 Free energy of the ion-electron system (eV)
  ---------------------------------------------------
  alpha Z        PSCENC =       750.29764885
  Ewald energy   TEWEN  =    -13369.63589753
  -Hartree energ DENC   =     -7619.12228582
  -exchange      EXHF   =         0.00000000
  -V(xc)+E(xc)   XCENC  =       854.75619534
  PAW double counting   =     24818.53097834   -25302.39966250
  entropy T*S    EENTRO =        -0.02450169
  eigenvalues    EBANDS =      -492.82873231
  atomic energy  EATOM  =     20168.87094289
  ---------------------------------------------------
  free energy    TOTEN  =      -191.55228021 eV

  energy without entropy =     -191.52777852  energy(sigma->0) =     -191.54002937


--------------------------------------------------------------------------------------------------------




--------------------------------------- Iteration      1(  20)  ---------------------------------------


    POTLOK:  cpu time    0.0453: real time    0.0453
    SETDIJ:  cpu time    0.0122: real time    0.0122
    TRIAL :  cpu time   13.8680: real time   13.9050
    CORREC:  cpu time    4.3747: real time    4.3807
    CHARGE:  cpu time    0.4848: real time    0.4853
    --------------------------------------------
      LOOP:  cpu time   18.7896: real time   18.8331

 eigenvalue-minimisations  :     0
 total energy-change (2. order) :-0.8230045E+01  (-0.6985599E+01)
 number of electron     258.0000002 magnetization       6.0000004
 augmentation part       75.5324530 magnetization       3.9700104

 Free energy of the ion-electron system (eV)
  ---------------------------------------------------
  alpha Z        PSCENC =       750.29764885
  Ewald energy   TEWEN  =    -13369.63589753
  -Hartree energ DENC   =     -7593.00656179
  -exchange      EXHF   =         0.00000000
  -V(xc)+E(xc)   XCENC  =       854.03994169
  PAW double counting   =     24710.55627457   -25179.19895025
  entropy T*S    EENTRO =        -0.02108250
  eigenvalues    EBANDS =      -541.68122208
  atomic energy  EATOM  =     20168.87094289
  ---------------------------------------------------
  free energy    TOTEN  =      -199.78232536 eV

  energy without entropy =     -199.76124286  energy(sigma->0) =     -199.77178411


--------------------------------------------------------------------------------------------------------




--------------------------------------- Iteration      1(  21)  ---------------------------------------


    POTLOK:  cpu time    0.0450: real time    0.0451
    SETDIJ:  cpu time    0.0121: real time    0.0121
    TRIAL :  cpu time   13.8642: real time   13.8841
    CORREC:  cpu time    4.4087: real time    4.4153
    CHARGE:  cpu time    0.4813: real time    0.4818
    --------------------------------------------
      LOOP:  cpu time   18.8155: real time   18.8425

 eigenvalue-minimisations  :     0
 total energy-change (2. order) :-0.5999414E+01  (-0.4644661E+01)
 number of electron     258.0000004 magnetization       6.0000002
 augmentation part       75.5700995 magnetization       3.9524356

 Free energy of the ion-electron system (eV)
  ---------------------------------------------------
  alpha Z        PSCENC =       750.29764885
  Ewald energy   TEWEN  =    -13369.63589753
  -Hartree energ DENC   =     -7592.42223756
  -exchange      EXHF   =         0.00000000
  -V(xc)+E(xc)   XCENC  =       853.35892723
  PAW double counting   =     24613.36506083   -25073.70178350
  entropy T*S    EENTRO =        -0.02290416
  eigenvalues    EBANDS =      -555.89331771
  atomic energy  EATOM  =     20168.87094289
  ---------------------------------------------------
  free energy    TOTEN  =      -205.78173901 eV

  energy without entropy =     -205.75883485  energy(sigma->0) =     -205.77028693


--------------------------------------------------------------------------------------------------------




--------------------------------------- Iteration      1(  22)  ---------------------------------------


    POTLOK:  cpu time    0.0451: real time    0.0451
    SETDIJ:  cpu time    0.0122: real time    0.0122
    TRIAL :  cpu time   13.7760: real time   13.8727
    CORREC:  cpu time    4.3697: real time    4.3762
    CHARGE:  cpu time    0.4778: real time    0.4783
    --------------------------------------------
      LOOP:  cpu time   18.6851: real time   18.7888

 eigenvalue-minimisations  :     0
 total energy-change (2. order) :-0.4331555E+01  (-0.3234761E+01)
 number of electron     258.0000001 magnetization       6.0000005
 augmentation part       75.8694561 magnetization       3.9296397

 Free energy of the ion-electron system (eV)
  ---------------------------------------------------
  alpha Z        PSCENC =       750.29764885
  Ewald energy   TEWEN  =    -13369.63589753
  -Hartree energ DENC   =     -7563.33604940
  -exchange      EXHF   =         0.00000000
  -V(xc)+E(xc)   XCENC  =       853.00506605
  PAW double counting   =     24576.48758736   -25035.86689062
  entropy T*S    EENTRO =        -0.01967460
  eigenvalues    EBANDS =      -589.91279729
  atomic energy  EATOM  =     20168.87094289
  ---------------------------------------------------
  free energy    TOTEN  =      -210.11329386 eV

  energy without entropy =     -210.09361926  energy(sigma->0) =     -210.10345656


--------------------------------------------------------------------------------------------------------




--------------------------------------- Iteration      1(  23)  ---------------------------------------


    POTLOK:  cpu time    0.0450: real time    0.0450
    SETDIJ:  cpu time    0.0121: real time    0.0121
    TRIAL :  cpu time   13.7700: real time   13.7892
    CORREC:  cpu time    4.5420: real time    4.5478
    CHARGE:  cpu time    0.4762: real time    0.4766
    --------------------------------------------
      LOOP:  cpu time   18.8494: real time   18.8748

 eigenvalue-minimisations  :     0
 total energy-change (2. order) :-0.2983542E+01  (-0.1438055E+01)
 number of electron     258.0000002 magnetization       6.0000004
 augmentation part       75.9956025 magnetization       3.9108258

 Free energy of the ion-electron system (eV)
  ---------------------------------------------------
  alpha Z        PSCENC =       750.29764885
  Ewald energy   TEWEN  =    -13369.63589753
  -Hartree energ DENC   =     -7591.62837361
  -exchange      EXHF   =         0.00000000
  -V(xc)+E(xc)   XCENC  =       853.24863023
  PAW double counting   =     24575.82394954   -25042.98004445
  entropy T*S    EENTRO =        -0.01935200
  eigenvalues    EBANDS =      -557.07401746
  atomic energy  EATOM  =     20168.87094289
  ---------------------------------------------------
  free energy    TOTEN  =      -213.09683614 eV

  energy without entropy =     -213.07748414  energy(sigma->0) =     -213.08716014


--------------------------------------------------------------------------------------------------------




--------------------------------------- Iteration      1(  24)  ---------------------------------------


    POTLOK:  cpu time    0.0451: real time    0.0452
    SETDIJ:  cpu time    0.0132: real time    0.0132
    TRIAL :  cpu time   13.9618: real time   13.9774
    CORREC:  cpu time    4.4119: real time    4.4178
    CHARGE:  cpu time    0.4900: real time    0.4904
    --------------------------------------------
      LOOP:  cpu time   18.9262: real time   18.9481

 eigenvalue-minimisations  :     0
 total energy-change (2. order) :-0.1322218E+01  (-0.2485997E+01)
 number of electron     258.0000000 magnetization       6.0000007
 augmentation part       76.1867227 magnetization       3.8957591

 Free energy of the ion-electron system (eV)
  ---------------------------------------------------
  alpha Z        PSCENC =       750.29764885
  Ewald energy   TEWEN  =    -13369.63589753
  -Hartree energ DENC   =     -7594.47542433
  -exchange      EXHF   =         0.00000000
  -V(xc)+E(xc)   XCENC  =       853.63549359
  PAW double counting   =     24574.35734224   -25044.43905638
  entropy T*S    EENTRO =        -0.01751776
  eigenvalues    EBANDS =      -553.01075131
  atomic energy  EATOM  =     20168.87094289
  ---------------------------------------------------
  free energy    TOTEN  =      -214.41905399 eV

  energy without entropy =     -214.40153623  energy(sigma->0) =     -214.41029511


--------------------------------------------------------------------------------------------------------




--------------------------------------- Iteration      1(  25)  ---------------------------------------


    POTLOK:  cpu time    0.0457: real time    0.0457
    SETDIJ:  cpu time    0.0126: real time    0.0126
    TRIAL :  cpu time   13.9709: real time   13.9884
    CORREC:  cpu time    4.3610: real time    4.3805
    CHARGE:  cpu time    0.4864: real time    0.4868
    --------------------------------------------
      LOOP:  cpu time   18.8806: real time   18.9182

 eigenvalue-minimisations  :     0
 total energy-change (2. order) :-0.2530329E+01  (-0.9958010E+00)
 number of electron     258.0000001 magnetization       6.0000006
[...]
   20        1.573   3.431   0.000   5.004
   21        1.579   3.413   0.000   4.992
   22        1.574   3.455   0.000   5.029
   23        1.582   3.359   0.000   4.942
   24        1.576   3.467   0.000   5.043
   25        1.575   3.440   0.000   5.015
   26        1.586   3.381   0.000   4.967
   27        1.565   3.474   0.000   5.040
   28        1.556   3.486   0.000   5.042
   29        1.560   3.494   0.000   5.054
   30        1.568   3.425   0.000   4.992
   31        1.572   3.392   0.000   4.964
   32        1.577   3.401   0.000   4.978
   33        1.559   3.482   0.000   5.040
   34        1.559   3.463   0.000   5.022
   35        1.581   3.385   0.000   4.966
   36        1.575   3.401   0.000   4.976
   37        1.570   3.401   0.000   4.971
   38        1.568   3.438   0.000   5.005
   39        1.559   3.470   0.000   5.030
   40        1.568   3.417   0.000   4.985
   41        1.565   3.462   0.000   5.027
   42        1.572   3.387   0.000   4.959
--------------------------------------------------
tot         43.811  92.519  88.128 224.458
 


 magnetization (x)
 
# of ion       s       p       d       tot
------------------------------------------
    1        0.001   0.000   0.000   0.001
    2        0.000  -0.000   0.000   0.000
    3        0.001   0.000   0.000   0.001
    4        0.001   0.001   0.000   0.002
    5        0.001   0.000   0.000   0.001
    6        0.001  -0.000   0.000   0.001
    7        0.004   0.006  -0.010  -0.000
    8        0.011   0.016   1.244   1.271
    9        0.016   0.019   1.566   1.600
   10        0.010   0.015   1.072   1.096
   11        0.008   0.007   1.210   1.226
   12        0.004   0.004  -0.031  -0.024
   13        0.001   0.001  -0.009  -0.007
   14        0.001   0.001  -0.062  -0.060
   15        0.010   0.013   1.261   1.284
   16        0.010   0.013   1.278   1.302
   17        0.003   0.004  -0.015  -0.007
   18        0.003   0.004  -0.002   0.005
   19        0.001  -0.066   0.000  -0.066
   20        0.002  -0.080   0.000  -0.078
   21        0.002  -0.087   0.000  -0.085
   22        0.001  -0.091   0.000  -0.090
   23        0.001  -0.128   0.000  -0.126
   24        0.000  -0.063   0.000  -0.063
   25        0.001  -0.050   0.000  -0.050
   26        0.002  -0.133   0.000  -0.131
   27       -0.000  -0.062   0.000  -0.062
   28       -0.000  -0.004   0.000  -0.004
   29        0.000  -0.014   0.000  -0.014
   30        0.000  -0.045   0.000  -0.044
   31       -0.000  -0.056   0.000  -0.057
   32        0.000  -0.030   0.000  -0.030
   33       -0.000  -0.007   0.000  -0.007
   34       -0.001  -0.060   0.000  -0.060
   35        0.000  -0.100   0.000  -0.099
   36        0.000  -0.095   0.000  -0.095
   37       -0.000  -0.051   0.000  -0.051
   38        0.000  -0.048   0.000  -0.048
   39        0.000  -0.018   0.000  -0.018
   40       -0.000  -0.064   0.000  -0.065
   41        0.000  -0.073   0.000  -0.072
   42        0.000  -0.078   0.000  -0.077
--------------------------------------------------
tot          0.096  -1.400   7.502   6.199
 
    FORLOC:  cpu time    0.0055: real time    0.0055
    FORNL :  cpu time    4.7639: real time    4.7649
    STRESS:  cpu time   14.1887: real time   14.1991
    FORCOR:  cpu time    0.0477: real time    0.0477
    OFIELD:  cpu time    0.0005: real time    0.0005

  DFT-D2 method for vdW energy calculation
  -------------------------------------------------------------------

  Parameters of vdW forcefield:
         C6(Jnm^6/mol)     R0(A)
   -----------------------------
   Li       1.610          0.825
   Co      10.800          1.562
   O        0.700          1.342

  IVDW =   1
  VDW_RADIUS =    50.000 A
  VDW_S6 =     0.750
  VDW_SR =     1.000
  VDW_D =    20.000
  LVDW_EWALD = F

  Number of pair interactions contributing to vdW energy: 1209989
  Edisp (eV):   -9.50748
    FORVDW:  cpu time    0.1742: real time    0.1748

  FORCE on cell =-STRESS in cart. coord.  units (eV):
  Direction    XX          YY          ZZ          XY          YZ          ZX
  --------------------------------------------------------------------------------------
  Alpha Z   750.29765   750.29765   750.29765
  Ewald   -1041.63958  -906.13689-11421.93065  -121.33974   -50.91078   -75.39470
  Hartree  5157.86640  5217.26746 -2773.54020   -55.12615   -25.43421   -36.69547
  E(xc)   -1288.31122 -1288.28255 -1289.20376    -0.19420     0.00296    -0.06256
  Local   -9077.56004 -9266.86702  9205.60061   167.06246    75.91240   111.61196
  n-local  -588.28626  -583.68919  -592.59614    -3.29939    -2.07688    -2.57960
  augment  2021.88423  2020.44224  1994.36957     4.51948    -0.17941     0.78920
  Kinetic  4087.73056  4083.98485  4140.23977     6.60491    -0.20204    -1.00169
  Fock        0.00000     0.00000     0.00000     0.00000     0.00000     0.00000
  vdW        -6.59402    -6.91094   -13.05306     0.15746     0.02023    -0.04471
  -------------------------------------------------------------------------------------
  Total      15.38772    20.10562     0.18380    -1.61518    -2.86772    -3.37758
  in kB      63.09628    82.44170     0.75366    -6.62295   -11.75889   -13.84954
  external pressure =       48.76 kB  Pullay stress =        0.00 kB


 VOLUME and BASIS-vectors are now :
 -----------------------------------------------------------------------------
  energy-cutoff  :      600.00
  volume of cell :      390.73
      direct lattice vectors                 reciprocal lattice vectors
     5.554963589  0.000000000  0.000000000     0.180019182  0.104116114 -0.000426280
    -2.771312714  4.791664124  0.000000000     0.000000000  0.208695763 -0.003639659
    -0.113306679  0.256012172 14.679576874     0.000000000  0.000000000  0.068121855

  length of vectors
     5.554963589  5.535360804 14.682246348     0.207959738  0.208727498  0.068121855


 FORCES acting on ions:
    Electron-Ion                     Ewald-Force                    Non-Local-Force
 -----------------------------------------------------------------------------------------------
   0.184E+01 -.979E+00 -.129E+02   -.161E+01 0.102E+01 0.123E+02   -.332E+00 0.941E-01 0.673E+00
   -.212E+01 -.922E+00 0.202E+02   0.190E+01 0.918E+00 -.193E+02   0.570E+00 0.311E+00 -.136E+01
   -.333E+01 -.454E+00 -.100E+02   0.297E+01 0.290E+00 0.106E+02   0.980E+00 0.223E+00 0.101E+01
   -.518E+01 -.267E+01 -.152E+02   0.458E+01 0.304E+01 0.150E+02   0.132E+01 0.716E+00 0.119E+01
   -.521E+01 0.702E+00 -.161E+02   0.503E+01 -.895E+00 0.160E+02   0.213E+00 -.419E+00 0.444E+00
   0.440E+01 0.374E+01 -.207E+02   -.406E+01 -.376E+01 0.201E+02   -.155E+00 -.680E+00 0.103E+01
   0.276E+01 0.197E+02 0.159E+03   -.177E+01 -.212E+02 -.159E+03   0.348E+00 -.273E+00 0.869E-02
   0.203E+02 0.604E+01 0.125E+03   -.201E+02 -.584E+01 -.127E+03   0.530E+00 -.237E+00 -.621E+00
   -.342E+02 -.854E+01 0.130E+03   0.341E+02 0.907E+01 -.132E+03   0.927E+00 0.182E+00 0.800E+00
   -.308E+02 -.918E+01 0.124E+03   0.329E+02 0.928E+01 -.122E+03   0.295E+00 0.167E+00 0.137E+01
   0.210E+02 -.217E+02 0.341E+01   -.220E+02 0.224E+02 -.464E+01   0.929E-01 0.700E+00 0.480E+00
   0.261E+02 0.472E+02 -.421E+01   -.267E+02 -.472E+02 0.295E+01   -.126E+01 -.119E+01 0.118E-01
   -.230E+02 0.215E+02 -.133E+02   0.228E+02 -.225E+02 0.125E+02   0.434E-01 -.227E+00 0.437E+00
   0.572E+01 -.732E+02 -.125E+02   -.685E+01 0.747E+02 0.116E+02   -.251E-01 0.207E+01 0.188E+01
   -.385E+01 -.313E+02 -.172E+03   0.481E+01 0.329E+02 0.172E+03   -.125E+00 0.275E+00 -.687E+00
   -.372E+01 -.421E+01 -.123E+03   0.253E+01 0.397E+01 0.122E+03   -.104E+01 0.258E+00 -.188E+00
   0.132E+02 0.457E+01 -.935E+02   -.141E+02 -.367E+01 0.942E+02   0.406E+00 -.773E+00 -.386E+00
   0.290E+02 0.365E+02 -.920E+02   -.294E+02 -.385E+02 0.923E+02   -.784E+00 -.155E+00 -.891E+00
   0.759E+01 -.117E+02 -.278E+03   -.900E+01 0.154E+02 0.298E+03   0.711E+00 -.447E+01 -.184E+02
   0.244E+02 0.271E+02 -.271E+03   -.233E+02 -.288E+02 0.293E+03   -.293E+01 0.881E+00 -.208E+02
   -.304E+01 -.232E+02 -.301E+03   0.275E+01 0.217E+02 0.325E+03   0.570E+00 0.267E+01 -.235E+02
   0.318E+01 0.215E+02 -.285E+03   -.844E+01 -.241E+02 0.306E+03   0.415E+01 0.186E+01 -.209E+02
   0.522E+01 -.745E+01 0.453E+03   -.740E+01 0.855E+01 -.478E+03   0.222E+01 -.110E+01 0.253E+02
   0.530E+02 0.231E+02 0.469E+03   -.594E+02 -.260E+02 -.494E+03   0.409E+01 0.255E+01 0.220E+02
   -.775E+01 -.635E+02 0.454E+03   0.111E+02 0.700E+02 -.478E+03   -.418E+01 -.410E+01 0.223E+02
   -.443E+02 0.273E+02 0.453E+03   0.480E+02 -.293E+02 -.479E+03   -.230E+01 0.162E+01 0.252E+02
   -.204E+02 0.362E+01 -.368E+03   0.216E+02 -.153E+01 0.388E+03   -.166E+01 -.415E+01 -.192E+02
   -.554E+02 -.303E+02 -.346E+03   0.591E+02 0.300E+02 0.361E+03   -.822E+00 0.187E+01 -.142E+02
   0.487E+02 0.481E+01 -.340E+03   -.530E+02 -.237E+01 0.353E+03   0.236E+01 -.273E+01 -.142E+02
   0.373E+02 0.411E+02 -.358E+03   -.393E+02 -.478E+02 0.376E+03   0.106E+01 0.591E+01 -.189E+02
   0.123E+02 -.147E+01 0.350E+03   -.127E+02 0.210E+01 -.373E+03   0.307E-01 -.133E+01 0.228E+02
   -.469E+02 -.821E+01 0.357E+03   0.519E+02 0.745E+01 -.381E+03   -.304E+01 0.151E+01 0.241E+02
   -.199E+02 0.171E+02 0.339E+03   0.212E+02 -.161E+02 -.357E+03   -.521E-02 -.180E+01 0.177E+02
   0.231E+02 -.103E+01 0.318E+03   -.245E+02 -.151E+01 -.333E+03   0.163E+01 0.236E+01 0.148E+02
   0.640E+01 -.617E+01 -.440E+03   -.884E+01 0.691E+01 0.466E+03   0.342E+01 -.681E+00 -.266E+02
   0.211E+01 0.155E+02 -.437E+03   -.382E+01 -.196E+02 0.460E+03   0.185E+01 0.472E+01 -.232E+02
   -.117E+02 -.135E+02 -.412E+03   0.134E+02 0.181E+02 0.433E+03   -.103E+01 -.542E+01 -.206E+02
   -.104E+02 0.229E+01 -.421E+03   0.148E+02 -.304E+01 0.442E+03   -.483E+01 0.879E+00 -.209E+02
   0.203E+02 -.993E+00 0.271E+03   -.213E+02 0.717E+00 -.288E+03   0.304E+00 0.837E+00 0.166E+02
   0.127E+02 -.418E+01 0.269E+03   -.148E+02 0.563E+01 -.288E+03   0.265E+01 -.873E+00 0.200E+02
   -.913E+01 -.362E+01 0.270E+03   0.913E+01 0.515E+01 -.287E+03   0.610E+00 -.262E+01 0.154E+02
   -.416E+02 0.273E+01 0.268E+03   0.478E+02 -.565E+01 -.286E+03   -.533E+01 0.313E+01 0.197E+02
 -----------------------------------------------------------------------------------------------
   -.152E+01 -.254E+01 -.995E+01   0.128E-12 0.560E-13 -.568E-13   0.152E+01 0.256E+01 0.998E+01
 
 
 POSITION                                       TOTAL-FORCE (eV/Angst)
 -----------------------------------------------------------------------------------
      0.12938      4.86062     14.53206        -0.097238      0.119356      0.041965
      3.91915      0.90780      5.09459         0.384828      0.313080     -0.243530
      2.43390      3.36600      4.71669         0.527313      0.007646      1.316642
     -0.19717      1.68885      9.68011         0.536346      0.779267      0.651683
     -1.34121      4.52415      9.64279         0.012796     -0.523041      0.219441
      1.27799      4.30352      9.58022         0.152446     -0.551386      0.320900
     -0.14807      1.77277      2.53803         1.216544     -1.621844     -0.282926
     -1.55971      4.13873      2.62036         0.615170     -0.026111     -1.578190
      2.62330      1.65091      2.55927         0.678936      0.689345     -0.624285
      1.21451      4.10134      2.48643         2.216609      0.253793      2.846420
      0.10506      0.20048      7.32446        -0.902335      1.221358     -0.534805
     -1.31416      2.63266      7.34680        -1.652155     -0.938127     -1.081650
      2.83420      0.27775      7.32140        -0.220990     -1.162635     -0.207397
      1.45476      2.57596      7.25669        -1.108428      3.123820      0.792731
      1.22772      0.77983     12.26946         0.870923      1.645751     -0.764958
     -0.00740      3.19085     12.18746        -2.053347      0.027587     -0.327495
      4.07217      0.84611     12.14066        -0.551474      0.125943      0.315525
      2.74189      3.25651     12.14546        -1.006964     -1.868759     -0.558486
      5.39552      0.17869      3.47875        -0.693814     -0.626988      1.306911
     -1.43243      2.58078      3.54067        -1.798262     -0.916919      0.911514
     -0.13345      4.82069      3.55347         0.251352      1.132949      0.590534
      1.33464      2.55168      3.48652        -1.125865     -0.740972      0.582884
      1.23113      0.87460      1.53544         0.071328     -0.016422      0.498390
     -0.08711      3.36597      1.67333        -2.374184     -0.411616     -2.713474
      4.03117      0.79602      1.61441        -0.827125      2.456136     -1.569804
      2.58345      3.32094      1.65425         1.440712     -0.387872     -0.989204
      1.49370      1.14194      8.29672        -0.425126     -2.000870      0.768711
     -0.07624      3.38737      8.33351         2.815507      1.517509      1.001145
      4.39261      0.99652      8.40025        -1.952250     -0.251051     -0.954440
      2.91794      3.52854      8.41873        -0.964112     -0.886232     -0.483841
      0.05654      1.83177      6.28496        -0.291073     -0.683766      0.330866
     -1.48443      4.16032      6.30597         1.963341      0.745428     -0.164016
      2.79674      1.87980      6.28144         1.258747     -0.784146     -0.160231
      1.44315      4.24814      6.32011         0.202785     -0.189949     -0.004705
     -0.16398      1.60932     13.17536         0.988498      0.049005     -0.202058
     -1.42012      3.95097     13.17376         0.115546      0.630868      0.453847
      2.59629      1.65924     13.15356         0.709786     -0.748814      0.121476
      1.34303      4.03171     13.12856        -0.304662      0.081205      0.343138
      2.77424      4.79643     11.09246        -0.787933      0.545445      0.059876
      4.09933      2.41018     11.11116         0.434463      0.652240      0.549518
     -0.15492      4.86774     11.28356         0.704580     -1.080379     -1.542497
      1.19915      2.39190     11.06826         0.968782      0.300168      0.963874
 -----------------------------------------------------------------------------------
    total drift:                               -0.000446      0.024093      0.025638


--------------------------------------------------------------------------------------------------------



  FREE ENERGIE OF THE ION-ELECTRON SYSTEM (eV)
  ---------------------------------------------------
  free  energy   TOTEN  =      -232.90945305 eV

  energy  without entropy=     -232.90422433  energy(sigma->0) =     -232.90683869
 


--------------------------------------------------------------------------------------------------------


    POTLOK:  cpu time    0.0756: real time    0.0756


--------------------------------------------------------------------------------------------------------


     LOOP+:  cpu time 2847.7343: real time 2869.3261
    4ORBIT:  cpu time    0.0000: real time    0.0000
 


 total charge     
 
# of ion       s       p       d       tot
------------------------------------------
    1        0.063   0.123   0.000   0.187
    2        0.090   0.188   0.000   0.278
    3        0.094   0.199   0.000   0.293
    4        0.111   0.238   0.000   0.349
    5        0.095   0.196   0.000   0.291
    6        0.084   0.172   0.000   0.256
    7        0.455   0.737   7.415   8.607
    8        0.490   0.814   7.277   8.581
    9        0.457   0.718   7.239   8.413
   10        0.556   0.967   7.444   8.966
   11        0.491   0.814   7.299   8.604
   12        0.453   0.730   7.437   8.620
   13        0.410   0.618   7.330   8.358
   14        0.450   0.702   7.409   8.561
   15        0.475   0.769   7.255   8.498
   16        0.476   0.768   7.253   8.496
   17        0.444   0.706   7.410   8.560
   18        0.430   0.677   7.362   8.469
   19        1.569   3.458   0.000   5.027
   20        1.573   3.431   0.000   5.004
   21        1.579   3.413   0.000   4.992
   22        1.574   3.455   0.000   5.029
   23        1.582   3.359   0.000   4.942
   24        1.576   3.467   0.000   5.043
   25        1.575   3.440   0.000   5.015
   26        1.586   3.381   0.000   4.967
   27        1.565   3.474   0.000   5.040
   28        1.556   3.486   0.000   5.042
   29        1.560   3.494   0.000   5.054
   30        1.568   3.425   0.000   4.992
   31        1.572   3.392   0.000   4.964
   32        1.577   3.401   0.000   4.978
   33        1.559   3.482   0.000   5.040
   34        1.559   3.463   0.000   5.022
   35        1.581   3.385   0.000   4.966
   36        1.575   3.401   0.000   4.976
   37        1.570   3.401   0.000   4.971
   38        1.568   3.438   0.000   5.005
   39        1.559   3.470   0.000   5.030
   40        1.568   3.417   0.000   4.985
   41        1.565   3.462   0.000   5.027
   42        1.572   3.387   0.000   4.959
--------------------------------------------------
tot         43.811  92.519  88.128 224.458
 


 magnetization (x)
 
# of ion       s       p       d       tot
------------------------------------------
    1        0.001   0.000   0.000   0.001
    2        0.000  -0.000   0.000   0.000
    3        0.001   0.000   0.000   0.001
    4        0.001   0.001   0.000   0.002
    5        0.001   0.000   0.000   0.001
    6        0.001  -0.000   0.000   0.001
    7        0.004   0.006  -0.010  -0.000
    8        0.011   0.016   1.244   1.271
    9        0.016   0.019   1.566   1.600
   10        0.010   0.015   1.072   1.096
   11        0.008   0.007   1.210   1.226
   12        0.004   0.004  -0.031  -0.024
   13        0.001   0.001  -0.009  -0.007
   14        0.001   0.001  -0.062  -0.060
   15        0.010   0.013   1.261   1.284
   16        0.010   0.013   1.278   1.302
   17        0.003   0.004  -0.015  -0.007
   18        0.003   0.004  -0.002   0.005
   19        0.001  -0.066   0.000  -0.066
   20        0.002  -0.080   0.000  -0.078
   21        0.002  -0.087   0.000  -0.085
   22        0.001  -0.091   0.000  -0.090
   23        0.001  -0.128   0.000  -0.126
   24        0.000  -0.063   0.000  -0.063
   25        0.001  -0.050   0.000  -0.050
   26        0.002  -0.133   0.000  -0.131
   27       -0.000  -0.062   0.000  -0.062
   28       -0.000  -0.004   0.000  -0.004
   29        0.000  -0.014   0.000  -0.014
   30        0.000  -0.045   0.000  -0.044
   31       -0.000  -0.056   0.000  -0.057
   32        0.000  -0.030   0.000  -0.030
   33       -0.000  -0.007   0.000  -0.007
   34       -0.001  -0.060   0.000  -0.060
   35        0.000  -0.100   0.000  -0.099
   36        0.000  -0.095   0.000  -0.095
   37       -0.000  -0.051   0.000  -0.051
   38        0.000  -0.048   0.000  -0.048
   39        0.000  -0.018   0.000  -0.018
   40       -0.000  -0.064   0.000  -0.065
   41        0.000  -0.073   0.000  -0.072
   42        0.000  -0.078   0.000  -0.077
--------------------------------------------------
tot          0.096  -1.400   7.502   6.199
 

 total amount of memory used by VASP MPI-rank0   158785. kBytes
=======================================================================

   base      :      30000. kBytes
   nonlr-proj:       4330. kBytes
   fftplans  :       1689. kBytes
   grid      :       4644. kBytes
   one-center:        342. kBytes
   wavefun   :     117780. kBytes
 
  
  
 General timing and accounting informations for this job:
 ========================================================
  
                  Total CPU time used (sec):     2872.616
                            User time (sec):     2691.360
                          System time (sec):      181.257
                         Elapsed time (sec):     2894.637
  
                   Maximum memory used (kb):      749464.
                   Average memory used (kb):           0.
  
                          Minor page faults:        70755
                          Major page faults:           71
                 Voluntary context switches:          579
