 running on   64 total cores
 distrk:  each k-point on   64 cores,    1 groups
 distr:  one band on    4 cores,   16 groups
 using from now: INCAR     
 vasp.5.4.4.18Apr17-6-g9f103f2a35 (build Nov 22 2021 14:44:17) complex          
  
 POSCAR found type information on POSCAR  Li Co O 
 POSCAR found :  3 types and      42 ions
 scaLAPACK will be used
 LDA part: xc-table for Pade appr. of Perdew
 generate k-points for:    6    6    2
 POSCAR, INCAR and KPOINTS ok, starting setup
 FFT: planning ...
 WAVECAR not read
 entering main loop
       N       E                     dE             d eps       ncg     rms          ort
DAV:   1     0.349503505534E+04    0.34950E+04   -0.13956E+05  5760   0.219E+03
DAV:   2     0.407759342049E+03   -0.30873E+04   -0.28447E+04  5760   0.536E+02
DAV:   3    -0.220866113977E+03   -0.62863E+03   -0.57351E+03  5760   0.254E+02
DAV:   4    -0.271294858104E+03   -0.50429E+02   -0.49381E+02  5760   0.741E+01
DAV:   5    -0.273019946337E+03   -0.17251E+01   -0.17221E+01  5760   0.136E+01
 gam= 0.000 g(H,U,f)=  0.174E+04 0.130E+04 0.846E+03 ort(H,U,f) = 0.000E+00 0.000E+00 0.000E+00
SDA:   6     0.101748999662E+03    0.37477E+03   -0.17221E+01  5760   0.389E+04 0.000E+00
 gam= 0.000 trial= 0.400  step= 0.067 mean= 0.400
 gam= 1.540 g(H,U,f)=  0.109E+04 0.163E+04 0.328E+04 ort(H,U,f) = 0.104E+04 0.780E+02-0.101E+04
CGA:   7     0.388877512722E+02   -0.62861E+02   -0.13010E+03  5760   0.599E+04 0.103E+03
 gam= 1.540 trial= 0.383  step= 0.083 mean= 0.383
 gam= 0.922 g(H,U,f)=  0.375E+03 0.223E+04 0.292E+04 ort(H,U,f) = 0.708E+03 0.421E+03-0.470E+03
CGA:   8    -0.945630723922E+02   -0.13345E+03   -0.25647E+03  5760   0.553E+04 0.660E+03
 gam= 0.922 trial= 0.368  step= 0.057 mean= 0.368
 gam= 0.187 g(H,U,f)=  0.354E+03 0.397E+03 0.282E+03 ort(H,U,f) =-0.809E+01-0.449E+03-0.353E+03
CGA:   9    -0.122324603319E+03   -0.27762E+02   -0.17417E+03  5760   0.103E+04-0.810E+03
 gam= 0.187 trial= 0.353  step= 0.104 mean= 0.353
 gam= 0.771 g(H,U,f)=  0.293E+03 0.408E+03 0.955E+02 ort(H,U,f) = 0.372E+02-0.306E+03-0.440E+02
CGA:  10    -0.141246909714E+03   -0.18922E+02   -0.45869E+02  5760   0.797E+03-0.313E+03
 gam= 0.771 trial= 0.340  step= 0.135 mean= 0.340
 gam= 0.948 g(H,U,f)=  0.265E+03 0.426E+03 0.648E+02 ort(H,U,f) = 0.815E+02-0.217E+03-0.390E+02
CGA:  11    -0.157466780043E+03   -0.16220E+02   -0.37414E+02  5760   0.756E+03-0.175E+03
 gam= 0.948 trial= 0.330  step= 0.151 mean= 0.330
 gam= 0.421 g(H,U,f)=  0.902E+02 0.206E+03 0.220E+02 ort(H,U,f) = 0.783E+01-0.785E+01 0.473E+01
CGA:  12    -0.199169396077E+03   -0.41703E+02   -0.44577E+02  5760   0.318E+03 0.471E+01
 gam= 0.421 trial= 0.321  step= 0.080 mean= 0.321
 gam= 0.402 g(H,U,f)=  0.343E+02 0.850E+02 0.851E+01 ort(H,U,f) = 0.525E+01-0.549E+02-0.824E+01
CGA:  13    -0.210542321514E+03   -0.11373E+02   -0.12742E+02  5760   0.128E+03-0.579E+02
 gam= 0.402 trial= 0.309  step= 0.081 mean= 0.309
 gam= 0.316 g(H,U,f)=  0.206E+02 0.176E+02 0.207E+01 ort(H,U,f) = 0.644E+01-0.158E+02-0.193E+01
CGA:  14    -0.214149885457E+03   -0.36076E+01   -0.42391E+01  5760   0.403E+02-0.113E+02
 gam= 0.316 trial= 0.298  step= 0.175 mean= 0.298
 gam= 1.082 g(H,U,f)=  0.124E+02 0.275E+02 0.375E+01 ort(H,U,f) = 0.944E+01-0.882E+01-0.164E+01
CGA:  15    -0.217284748709E+03   -0.31349E+01   -0.32108E+01  5760   0.437E+02-0.101E+01
 gam= 1.082 trial= 0.291  step= 0.109 mean= 0.291
 gam= 0.601 g(H,U,f)=  0.762E+01 0.147E+02 0.393E+01 ort(H,U,f) = 0.723E+01-0.112E+02-0.240E+01
CGA:  16    -0.219207368133E+03   -0.19226E+01   -0.23226E+01  5760   0.262E+02-0.638E+01
 gam= 0.601 trial= 0.282  step= 0.147 mean= 0.282
 gam= 0.509 g(H,U,f)=  0.334E+01 0.905E+01 0.960E+00 ort(H,U,f) = 0.722E+00-0.112E+01 0.328E+00
CGA:  17    -0.220632914112E+03   -0.14255E+01   -0.16453E+01  5760   0.133E+02-0.703E-01
 gam= 0.509 trial= 0.276  step= 0.100 mean= 0.276
 gam= 0.388 g(H,U,f)=  0.172E+01 0.320E+01 0.259E+00 ort(H,U,f) = 0.242E+00-0.687E+00-0.219E+00
CGA:  18    -0.221223971034E+03   -0.59106E+00   -0.66706E+00  5760   0.518E+01-0.665E+00
 gam= 0.388 trial= 0.267  step= 0.156 mean= 0.267
 gam= 0.423 g(H,U,f)=  0.101E+01 0.112E+01 0.610E-01 ort(H,U,f) = 0.549E-01-0.883E-01-0.798E-02
CGA:  19    -0.221586866808E+03   -0.36290E+00   -0.38518E+00  5760   0.219E+01-0.413E-01
 gam= 0.423 trial= 0.261  step= 0.221 mean= 0.261
 gam= 1.098 g(H,U,f)=  0.585E+00 0.173E+01 0.901E-01 ort(H,U,f) = 0.139E+00-0.506E-01-0.295E-01
CGA:  20    -0.221823636476E+03   -0.23677E+00   -0.24030E+00  5760   0.241E+01 0.588E-01
 gam= 1.098 trial= 0.259  step= 0.162 mean= 0.259
 gam= 0.732 g(H,U,f)=  0.508E+00 0.120E+01 0.541E-01 ort(H,U,f) =-0.199E+00 0.196E+00-0.123E-02
CGA:  21    -0.222014547750E+03   -0.19091E+00   -0.20070E+00  5760   0.176E+01-0.433E-02
 gam= 0.732 trial= 0.254  step= 0.230 mean= 0.254
 gam= 0.604 g(H,U,f)=  0.412E+00 0.624E+00 0.263E-01 ort(H,U,f) =-0.361E+00 0.388E+00-0.178E-02
CGA:  22    -0.222215512185E+03   -0.20096E+00   -0.20177E+00  5760   0.106E+01 0.256E-01
 gam= 0.604 trial= 0.253  step= 0.285 mean= 0.253
 gam= 0.962 g(H,U,f)=  0.326E+00 0.624E+00 0.714E-01 ort(H,U,f) =-0.180E+00 0.218E+00 0.640E-02
CGA:  23    -0.222370258512E+03   -0.15475E+00   -0.15354E+00  5760   0.102E+01 0.451E-01
 gam= 0.962 trial= 0.255  step= 0.259 mean= 0.255
 gam= 1.291 g(H,U,f)=  0.429E+00 0.812E+00 0.780E-01 ort(H,U,f) =-0.158E+00 0.209E+00-0.364E-01
CGA:  24    -0.222508242611E+03   -0.13798E+00   -0.13793E+00  5760   0.132E+01 0.142E-01
 gam= 1.291 trial= 0.255  step= 0.318 mean= 0.255
 gam= 1.013 g(H,U,f)=  0.543E+00 0.724E+00 0.704E-01 ort(H,U,f) =-0.322E+00 0.310E+00 0.106E-01
CGA:  25    -0.222720723723E+03   -0.21248E+00   -0.21257E+00  5760   0.134E+01-0.129E-02
 gam= 1.013 trial= 0.258  step= 0.312 mean= 0.258
 gam= 0.784 g(H,U,f)=  0.494E+00 0.508E+00 0.451E-01 ort(H,U,f) =-0.325E+00 0.266E+00 0.492E-01
CGA:  26    -0.222929109649E+03   -0.20839E+00   -0.20862E+00  5760   0.105E+01-0.900E-02
 gam= 0.784 trial= 0.261  step= 0.364 mean= 0.261
 gam= 0.918 g(H,U,f)=  0.464E+00 0.467E+00 0.307E-01 ort(H,U,f) =-0.140E+00 0.169E+00 0.327E-01
CGA:  27    -0.223122947446E+03   -0.19384E+00   -0.18937E+00  5760   0.961E+00 0.618E-01
 gam= 0.918 trial= 0.266  step= 0.393 mean= 0.266
 gam= 0.801 g(H,U,f)=  0.344E+00 0.383E+00 0.443E-01 ort(H,U,f) =-0.782E-01 0.189E+00-0.910E-02
CGA:  28    -0.223331090109E+03   -0.20814E+00   -0.19985E+00  5760   0.770E+00 0.101E+00
 gam= 0.801 trial= 0.272  step= 0.400 mean= 0.272
 gam= 0.830 g(H,U,f)=  0.242E+00 0.344E+00 0.525E-01 ort(H,U,f) =-0.150E+00 0.171E+00-0.149E-01
CGA:  29    -0.223502301913E+03   -0.17121E+00   -0.17049E+00  5760   0.639E+00 0.662E-02
 gam= 0.830 trial= 0.279  step= 0.362 mean= 0.279
 gam= 1.142 g(H,U,f)=  0.257E+00 0.360E+00 0.114E+00 ort(H,U,f) =-0.140E+00 0.182E+00-0.543E-01
CGA:  30    -0.223618807881E+03   -0.11651E+00   -0.11684E+00  5760   0.730E+00-0.122E-01
 gam= 1.142 trial= 0.283  step= 0.365 mean= 0.283
 gam= 1.003 g(H,U,f)=  0.315E+00 0.392E+00 0.260E-01 ort(H,U,f) =-0.195E+00 0.146E+00-0.246E-01
CGA:  31    -0.223745575735E+03   -0.12677E+00   -0.13069E+00  5760   0.732E+00-0.726E-01
 gam= 1.003 trial= 0.287  step= 0.401 mean= 0.287
 gam= 0.867 g(H,U,f)=  0.282E+00 0.347E+00 0.602E-02 ort(H,U,f) =-0.970E-01 0.841E-01-0.336E-02
CGA:  32    -0.223876883660E+03   -0.13131E+00   -0.13216E+00  5760   0.635E+00-0.162E-01
 gam= 0.867 trial= 0.293  step= 0.303 mean= 0.293
 gam= 0.564 g(H,U,f)=  0.179E+00 0.178E+00 0.168E-02 ort(H,U,f) =-0.440E-01 0.511E-01-0.266E-02
CGA:  33    -0.223971011328E+03   -0.94128E-01   -0.94079E-01  5760   0.358E+00 0.449E-02
 gam= 0.564 trial= 0.293  step= 0.388 mean= 0.293
 gam= 0.951 g(H,U,f)=  0.152E+00 0.181E+00 0.726E-02 ort(H,U,f) = 0.287E-02 0.172E-01 0.252E-02
CGA:  34    -0.224042446411E+03   -0.71435E-01   -0.69906E-01  5760   0.340E+00 0.226E-01
 gam= 0.951 trial= 0.298  step= 0.326 mean= 0.298
 gam= 2.240 g(H,U,f)=  0.127E+00 0.421E+00 0.214E+00 ort(H,U,f) = 0.165E-01 0.248E-01-0.624E-01
CGA:  35    -0.224100922071E+03   -0.58476E-01   -0.58974E-01  5760   0.762E+00-0.211E-01
 gam= 2.240 trial= 0.299  step= 0.096 mean= 0.299
 gam= 0.301 g(H,U,f)=  0.983E-01 0.129E+00 0.167E-02 ort(H,U,f) =-0.145E+00 0.145E+00-0.513E-02
CGA:  36    -0.224135082155E+03   -0.34160E-01   -0.34473E-01  5760   0.229E+00-0.486E-02
 gam= 0.301 trial= 0.289  step= 0.396 mean= 0.289
 gam= 0.000 g(H,U,f)=  0.110E+00 0.257E+00 0.121E+00 ort(H,U,f) =-0.478E-01 0.522E-01 0.108E-03
SDA:  37    -0.224180593514E+03   -0.45511E-01   -0.45175E-01  5760   0.488E+00 0.451E-02
 gam= 0.000 trial= 0.295  step= 0.073 mean= 0.295
 gam= 0.509 g(H,U,f)=  0.738E-01 0.139E+00 0.352E-01 ort(H,U,f) = 0.683E-01-0.232E-01-0.633E-01
CGA:  38    -0.224197751243E+03   -0.17158E-01   -0.17844E-01  5760   0.248E+00-0.182E-01
 gam= 0.509 trial= 0.283  step= 0.399 mean= 0.283
 gam= 0.721 g(H,U,f)=  0.516E-01 0.123E+00 0.413E-02 ort(H,U,f) =-0.766E-02 0.876E-02-0.104E-02
CGA:  39    -0.224245388351E+03   -0.47637E-01   -0.47630E-01  5760   0.179E+00 0.558E-04
 gam= 0.721 trial= 0.289  step= 0.485 mean= 0.289
 gam= 1.518 g(H,U,f)=  0.558E-01 0.163E+00 0.529E-01 ort(H,U,f) =-0.339E-01 0.471E-01-0.732E-02
CGA:  40    -0.224289388120E+03   -0.44000E-01   -0.43395E-01  5760   0.272E+00 0.586E-02
 gam= 1.518 trial= 0.299  step= 0.078 mean= 0.299
 gam= 0.376 g(H,U,f)=  0.371E-01 0.516E-01 0.134E-01 ort(H,U,f) =-0.395E-01 0.633E-01-0.215E-01
CGA:  41    -0.224300516190E+03   -0.11128E-01   -0.11010E-01  5760   0.102E+00 0.227E-02
 gam= 0.376 trial= 0.288  step= 0.588 mean= 0.288
 gam= 1.301 g(H,U,f)=  0.509E-01 0.780E-01 0.390E-02 ort(H,U,f) =-0.197E-01 0.214E-01 0.106E-02
CGA:  42    -0.224331339506E+03   -0.30823E-01   -0.30262E-01  5760   0.133E+00 0.276E-02
 gam= 1.301 trial= 0.303  step= 0.360 mean= 0.303
 gam= 1.694 g(H,U,f)=  0.410E-01 0.142E+00 0.419E-01 ort(H,U,f) = 0.221E-02 0.227E-01-0.104E-01
CGA:  43    -0.224356547954E+03   -0.25208E-01   -0.24577E-01  5760   0.225E+00 0.145E-01
 gam= 1.694 trial= 0.306  step= 0.076 mean= 0.306
 gam= 0.251 g(H,U,f)=  0.244E-01 0.297E-01 0.222E-02 ort(H,U,f) =-0.352E-02 0.556E-01-0.680E-02
CGA:  44    -0.224367960380E+03   -0.11412E-01   -0.94368E-02  5760   0.564E-01 0.452E-01
 gam= 0.251 trial= 0.294  step= 0.496 mean= 0.294
 gam= 6.031 g(H,U,f)=  0.262E-01 0.232E+00 0.817E-01 ort(H,U,f) =-0.104E-01-0.243E-02-0.460E-02
CGA:  45    -0.224382925823E+03   -0.14965E-01   -0.16797E-01  5760   0.340E+00-0.174E-01
 gam= 6.031 trial= 0.304  step= 0.031 mean= 0.304
 gam= 0.973 g(H,U,f)=  0.315E-01 0.226E+00 0.736E-01 ort(H,U,f) =-0.853E-01 0.148E+00 0.316E-01
CGA:  46    -0.224387944608E+03   -0.50188E-02   -0.35989E-02  5760   0.331E+00 0.941E-01
 gam= 0.973 trial= 0.291  step= 0.113 mean= 0.291
 gam= 0.554 g(H,U,f)=  0.803E-01 0.970E-01 0.610E-02 ort(H,U,f) =-0.165E+00 0.764E-01-0.603E-02
CGA:  47    -0.224399479170E+03   -0.11535E-01   -0.23942E-01  5760   0.183E+00-0.946E-01
 gam= 0.554 trial= 0.282  step= 0.135 mean= 0.282
 gam= 0.906 g(H,U,f)=  0.759E-01 0.810E-01 0.938E-02 ort(H,U,f) =-0.486E-01 0.905E-01-0.109E-01
CGA:  48    -0.224411682171E+03   -0.12203E-01   -0.88180E-02  5760   0.166E+00 0.310E-01
 gam= 0.906 trial= 0.275  step= 0.202 mean= 0.275
 gam= 1.715 g(H,U,f)=  0.618E-01 0.143E+00 0.809E-01 ort(H,U,f) =-0.254E-01 0.395E-01-0.177E-01
CGA:  49    -0.224432643969E+03   -0.20962E-01   -0.19644E-01  5760   0.285E+00-0.354E-02
 gam= 1.715 trial= 0.271  step= 0.107 mean= 0.271
 gam= 0.817 g(H,U,f)=  0.749E-01 0.130E+00 0.281E-01 ort(H,U,f) =-0.459E-01 0.124E-01 0.267E-01
CGA:  50    -0.224446235326E+03   -0.13591E-01   -0.14925E-01  5760   0.233E+00-0.679E-02
 gam= 0.817 trial= 0.263  step= 0.203 mean= 0.263
 gam= 1.118 g(H,U,f)=  0.956E-01 0.161E+00 0.422E-02 ort(H,U,f) =-0.300E-01 0.627E-01-0.142E-01
CGA:  51    -0.224467544640E+03   -0.21309E-01   -0.23067E-01  5760   0.260E+00 0.184E-01
 gam= 1.118 trial= 0.260  step= 0.148 mean= 0.260
 gam= 1.072 g(H,U,f)=  0.830E-01 0.142E+00 0.539E-01 ort(H,U,f) =-0.456E-01 0.461E-01 0.254E-01
CGA:  52    -0.224492425729E+03   -0.24881E-01   -0.20791E-01  5760   0.279E+00 0.260E-01
 gam= 1.072 trial= 0.254  step= 0.078 mean= 0.254
 gam= 1.096 g(H,U,f)=  0.763E-01 0.146E+00 0.836E-01 ort(H,U,f) =-0.266E-01 0.759E-01 0.824E-01
CGA:  53    -0.224509943114E+03   -0.17517E-01   -0.12020E-01  5760   0.306E+00 0.132E+00
 gam= 1.096 trial= 0.245  step= 0.042 mean= 0.245
 gam= 0.000 g(H,U,f)=  0.670E-01 0.129E+00 0.649E-01 ort(H,U,f) = 0.981E-02 0.161E+00 0.130E+00
CGA:  54    -0.224525464288E+03   -0.15521E-01   -0.93496E-02  5760   0.261E+00 0.301E+00
 gam= 0.000 trial= 0.235  step= 0.237 mean= 0.235
 gam= 0.552 g(H,U,f)=  0.450E-01 0.909E-01 0.817E-02 ort(H,U,f) = 0.323E-01 0.177E-01-0.148E-01
CGA:  55    -0.224556451802E+03   -0.30988E-01   -0.30922E-01  5760   0.144E+00 0.352E-01
 gam= 0.552 trial= 0.235  step= 0.492 mean= 0.235
 gam= 1.046 g(H,U,f)=  0.357E-01 0.772E-01 0.378E-01 ort(H,U,f) =-0.169E-01 0.248E-03-0.631E-05
CGA:  56    -0.224594872444E+03   -0.38421E-01   -0.40233E-01  5760   0.151E+00-0.167E-01
 gam= 1.046 trial= 0.248  step= 0.382 mean= 0.248
 gam= 0.922 g(H,U,f)=  0.508E-01 0.823E-01 0.587E-02 ort(H,U,f) =-0.206E-01 0.261E-01 0.346E-02
CGA:  57    -0.224621170226E+03   -0.26298E-01   -0.25431E-01  5760   0.139E+00 0.888E-02
 gam= 0.922 trial= 0.255  step= 0.387 mean= 0.255
 gam= 0.576 g(H,U,f)=  0.372E-01 0.424E-01 0.369E-03 ort(H,U,f) =-0.123E-01 0.385E-01-0.526E-04
CGA:  58    -0.224651979099E+03   -0.30809E-01   -0.28429E-01  5760   0.800E-01 0.262E-01
 gam= 0.576 trial= 0.261  step= 0.503 mean= 0.261
 gam= 0.454 g(H,U,f)=  0.172E-01 0.189E-01 0.186E-03 ort(H,U,f) =-0.114E-01 0.164E-01-0.289E-03
CGA:  59    -0.224676615469E+03   -0.24636E-01   -0.23928E-01  5760   0.363E-01 0.472E-02
 gam= 0.454 trial= 0.273  step= 0.603 mean= 0.273
 gam= 1.724 g(H,U,f)=  0.164E-01 0.451E-01 0.975E-03 ort(H,U,f) =-0.285E-02 0.141E-02 0.205E-03
CGA:  60    -0.224687868373E+03   -0.11253E-01   -0.11594E-01  5760   0.625E-01-0.124E-02
 gam= 1.724 trial= 0.290  step= 0.420 mean= 0.290
 gam= 0.611 g(H,U,f)=  0.179E-01 0.203E-01 0.303E-04 ort(H,U,f) =-0.104E-01 0.130E-01-0.750E-04
CGA:  61    -0.224700759559E+03   -0.12891E-01   -0.12691E-01  5760   0.382E-01 0.251E-02
 gam= 0.611 trial= 0.296  step= 0.470 mean= 0.296
 gam= 0.639 g(H,U,f)=  0.899E-02 0.153E-01 0.101E-03 ort(H,U,f) =-0.234E-02 0.283E-02 0.195E-04
CGA:  62    -0.224710148035E+03   -0.93885E-02   -0.93377E-02  5760   0.244E-01 0.513E-03
 gam= 0.639 trial= 0.305  step= 0.330 mean= 0.305
 gam= 0.863 g(H,U,f)=  0.655E-02 0.144E-01 0.118E-03 ort(H,U,f) = 0.108E-03-0.106E-02-0.121E-03
CGA:  63    -0.224714201993E+03   -0.40540E-02   -0.40896E-02  5760   0.211E-01-0.107E-02
 gam= 0.863 trial= 0.306  step= 0.613 mean= 0.306
 gam= 0.844 g(H,U,f)=  0.755E-02 0.102E-01 0.832E-04 ort(H,U,f) =-0.370E-02 0.375E-02-0.901E-04
CGA:  64    -0.224720388268E+03   -0.61863E-02   -0.61796E-02  5760   0.178E-01-0.375E-04
 gam= 0.844 trial= 0.322  step= 0.395 mean= 0.322
 gam= 0.889 g(H,U,f)=  0.532E-02 0.104E-01 0.108E-03 ort(H,U,f) =-0.151E-02 0.192E-02-0.529E-04
CGA:  65    -0.224723902118E+03   -0.35139E-02   -0.35067E-02  5760   0.158E-01 0.356E-03
 gam= 0.889 trial= 0.325  step= 0.352 mean= 0.325
 gam= 0.557 g(H,U,f)=  0.494E-02 0.379E-02 0.794E-04 ort(H,U,f) =-0.235E-02 0.219E-02 0.421E-04
CGA:  66    -0.224726739563E+03   -0.28374E-02   -0.28422E-02  5760   0.880E-02-0.117E-03
 gam= 0.557 trial= 0.327  step= 0.689 mean= 0.327
 gam= 1.178 g(H,U,f)=  0.307E-02 0.728E-02 0.198E-04 ort(H,U,f) =-0.455E-03 0.797E-03 0.363E-05
CGA:  67    -0.224729829852E+03   -0.30903E-02   -0.30129E-02  5760   0.104E-01 0.346E-03
 gam= 1.178 trial= 0.345  step= 0.292 mean= 0.345
 gam= 0.535 g(H,U,f)=  0.237E-02 0.317E-02 0.167E-04 ort(H,U,f) =-0.122E-02 0.130E-02-0.113E-04
CGA:  68    -0.224731404415E+03   -0.15746E-02   -0.15719E-02  5760   0.555E-02 0.642E-04
 gam= 0.535 trial= 0.342  step= 0.590 mean= 0.342
 gam= 0.796 g(H,U,f)=  0.199E-02 0.243E-02 0.111E-05 ort(H,U,f) =-0.657E-03 0.529E-03 0.708E-07
CGA:  69    -0.224733030386E+03   -0.16260E-02   -0.16478E-02  5760   0.442E-02-0.128E-03
 gam= 0.796 trial= 0.355  step= 0.631 mean= 0.355
 gam= 1.517 g(H,U,f)=  0.165E-02 0.503E-02 0.223E-04 ort(H,U,f) =-0.427E-03 0.480E-03-0.219E-04
CGA:  70    -0.224734390267E+03   -0.13599E-02   -0.13611E-02  5760   0.670E-02 0.313E-04
 gam= 1.517 trial= 0.368  step= 0.354 mean= 0.368
 gam= 0.618 g(H,U,f)=  0.206E-02 0.207E-02 0.158E-04 ort(H,U,f) =-0.191E-02 0.185E-02-0.241E-05
CGA:  71    -0.224735586405E+03   -0.11961E-02   -0.11942E-02  5760   0.414E-02-0.615E-04
 gam= 0.618 trial= 0.368  step= 0.721 mean= 0.368
 gam= 1.159 g(H,U,f)=  0.238E-02 0.241E-02 0.106E-04 ort(H,U,f) =-0.105E-02 0.111E-02-0.329E-05
CGA:  72    -0.224737078027E+03   -0.14916E-02   -0.14787E-02  5760   0.480E-02 0.536E-04
 gam= 1.159 trial= 0.385  step= 0.734 mean= 0.385
 gam= 1.629 g(H,U,f)=  0.258E-02 0.518E-02 0.692E-04 ort(H,U,f) =-0.113E-02 0.111E-02-0.362E-04
CGA:  73    -0.224738848873E+03   -0.17708E-02   -0.17844E-02  5760   0.782E-02-0.534E-04
 gam= 1.629 trial= 0.403  step= 0.335 mean= 0.403
 gam= 0.628 g(H,U,f)=  0.253E-02 0.238E-02 0.740E-05 ort(H,U,f) =-0.179E-02 0.180E-02 0.890E-05
CGA:  74    -0.224740147361E+03   -0.12985E-02   -0.12953E-02  5760   0.491E-02 0.204E-04
 gam= 0.628 trial= 0.399  step= 0.778 mean= 0.399
 gam= 1.075 g(H,U,f)=  0.253E-02 0.273E-02 0.248E-04 ort(H,U,f) =-0.105E-02 0.983E-03 0.307E-04
CGA:  75    -0.224742051707E+03   -0.19043E-02   -0.19154E-02  5760   0.528E-02-0.370E-04
 gam= 1.075 trial= 0.418  step= 0.477 mean= 0.418
 gam= 1.194 g(H,U,f)=  0.219E-02 0.404E-02 0.737E-04 ort(H,U,f) =-0.412E-03 0.481E-03 0.432E-04
CGA:  76    -0.224743298383E+03   -0.12467E-02   -0.12500E-02  5760   0.631E-02 0.113E-03
 gam= 1.194 trial= 0.421  step= 0.365 mean= 0.421
 gam= 0.596 g(H,U,f)=  0.194E-02 0.181E-02 0.492E-05 ort(H,U,f) =-0.917E-03 0.101E-02 0.152E-04
CGA:  77    -0.224744467967E+03   -0.11696E-02   -0.11753E-02  5760   0.376E-02 0.108E-03
 gam= 0.596 trial= 0.418  step= 0.673 mean= 0.418
 gam= 0.844 g(H,U,f)=  0.150E-02 0.166E-02 0.634E-05 ort(H,U,f) =-0.688E-03 0.674E-03 0.808E-06
CGA:  78    -0.224745754749E+03   -0.12868E-02   -0.12849E-02  5760   0.317E-02-0.131E-04
 gam= 0.844 trial= 0.431  step= 0.374 mean= 0.431
 gam= 1.071 g(H,U,f)=  0.125E-02 0.211E-02 0.369E-04 ort(H,U,f) =-0.664E-04 0.104E-03 0.231E-04
CGA:  79    -0.224746353677E+03   -0.59893E-03   -0.59113E-03  5760   0.340E-02 0.602E-04
 gam= 1.071 trial= 0.428  step= 0.441 mean= 0.428
 gam= 0.612 g(H,U,f)=  0.993E-03 0.108E-02 0.833E-05 ort(H,U,f) =-0.429E-03 0.519E-03 0.360E-04
CGA:  80    -0.224747117300E+03   -0.76362E-03   -0.76257E-03  5760   0.208E-02 0.126E-03
 gam= 0.612 trial= 0.429  step= 0.488 mean= 0.429
 gam= 0.918 g(H,U,f)=  0.689E-03 0.121E-02 0.827E-05 ort(H,U,f) =-0.150E-03 0.205E-03-0.124E-04
CGA:  81    -0.224747646093E+03   -0.52879E-03   -0.52650E-03  5760   0.191E-02 0.432E-04
 gam= 0.918 trial= 0.432  step= 0.300 mean= 0.432
 gam= 0.689 g(H,U,f)=  0.586E-03 0.727E-03 0.154E-05 ort(H,U,f) =-0.119E-03 0.132E-03 0.197E-05
CGA:  82    -0.224747946554E+03   -0.30046E-03   -0.29288E-03  5760   0.132E-02 0.152E-04
 gam= 0.689 trial= 0.425  step= 0.623 mean= 0.425
 gam= 0.829 g(H,U,f)=  0.472E-03 0.618E-03 0.716E-06 ort(H,U,f) =-0.216E-03 0.230E-03 0.324E-05
CGA:  83    -0.224748361064E+03   -0.41451E-03   -0.41272E-03  5760   0.109E-02 0.170E-04
 gam= 0.829 trial= 0.435  step= 0.424 mean= 0.435
 gam= 1.027 g(H,U,f)=  0.379E-03 0.735E-03 0.528E-05 ort(H,U,f) =-0.135E-03 0.149E-03-0.728E-05
CGA:  84    -0.224748595026E+03   -0.23396E-03   -0.23399E-03  5760   0.112E-02 0.671E-05
 gam= 1.027 trial= 0.435  step= 0.351 mean= 0.435
 gam= 0.000 g(H,U,f)=  0.336E-03 0.382E-03 0.562E-06 ort(H,U,f) =-0.174E-03 0.163E-03-0.395E-06
SDA:  85    -0.224748796737E+03   -0.20171E-03   -0.19774E-03  5760   0.719E-03-0.111E-04
 gam= 0.000 trial= 0.430  step= 0.429 mean= 0.430
 gam= 0.800 g(H,U,f)=  0.157E-03 0.416E-03 0.259E-05 ort(H,U,f) = 0.788E-04-0.704E-04-0.958E-06
CGA:  86    -0.224748950870E+03   -0.15413E-03   -0.15411E-03  5760   0.575E-03 0.743E-05
 gam= 0.800 trial= 0.430  step= 0.421 mean= 0.430
 gam= 0.958 g(H,U,f)=  0.139E-03 0.411E-03 0.112E-05 ort(H,U,f) =-0.431E-04 0.368E-04-0.936E-06
CGA:  87    -0.224749073315E+03   -0.12244E-03   -0.12229E-03  5760   0.551E-03-0.721E-05
 gam= 0.958 trial= 0.430  step= 0.533 mean= 0.430
 gam= 0.813 g(H,U,f)=  0.194E-03 0.253E-03 0.139E-05 ort(H,U,f) =-0.166E-03 0.161E-03 0.435E-06
CGA:  88    -0.224749217761E+03   -0.14445E-03   -0.14496E-03  5760   0.448E-03-0.492E-05
 gam= 0.813 trial= 0.435  step= 0.870 mean= 0.435
 gam= 1.137 g(H,U,f)=  0.258E-03 0.252E-03 0.217E-06 ort(H,U,f) =-0.134E-03 0.135E-03-0.110E-06
CGA:  89    -0.224749411507E+03   -0.19375E-03   -0.19324E-03  5760   0.510E-03 0.937E-06
 gam= 1.137 trial= 0.457  step= 0.980 mean= 0.457
 gam= 1.469 g(H,U,f)=  0.274E-03 0.470E-03 0.418E-05 ort(H,U,f) =-0.112E-03 0.115E-03-0.273E-05
CGA:  90    -0.224749660487E+03   -0.24898E-03   -0.25010E-03  5760   0.748E-03 0.539E-06
 gam= 1.469 trial= 0.483  step= 0.371 mean= 0.483
 gam= 0.930 g(H,U,f)=  0.260E-03 0.434E-03 0.208E-05 ort(H,U,f) =-0.107E-03 0.120E-03-0.829E-06
CGA:  91    -0.224749801260E+03   -0.14077E-03   -0.13881E-03  5760   0.696E-03 0.127E-04
 gam= 0.930 trial= 0.477  step= 0.564 mean= 0.477
 gam= 0.974 g(H,U,f)=  0.275E-03 0.401E-03 0.667E-06 ort(H,U,f) =-0.129E-03 0.119E-03-0.414E-06
CGA:  92    -0.224749999823E+03   -0.19856E-03   -0.19952E-03  5760   0.678E-03-0.111E-04
 gam= 0.974 trial= 0.482  step= 0.718 mean= 0.482
 gam= 0.826 g(H,U,f)=  0.281E-03 0.278E-03 0.142E-06 ort(H,U,f) =-0.177E-03 0.177E-03 0.453E-06
CGA:  93    -0.224750239266E+03   -0.23944E-03   -0.23942E-03  5760   0.560E-03 0.226E-06
 gam= 0.826 trial= 0.493  step= 0.998 mean= 0.493
 gam= 1.289 g(H,U,f)=  0.328E-03 0.393E-03 0.623E-06 ort(H,U,f) =-0.133E-03 0.138E-03-0.204E-06
CGA:  94    -0.224750519335E+03   -0.28007E-03   -0.27931E-03  5760   0.722E-03 0.433E-05
 gam= 1.289 trial= 0.519  step= 0.441 mean= 0.519
 gam= 1.294 g(H,U,f)=  0.311E-03 0.616E-03 0.604E-05 ort(H,U,f) =-0.559E-04 0.732E-04-0.315E-05
CGA:  95    -0.224750681015E+03   -0.16168E-03   -0.16023E-03  5760   0.934E-03 0.141E-04
 gam= 1.294 trial= 0.515  step= 0.473 mean= 0.515
 gam= 0.597 g(H,U,f)=  0.275E-03 0.282E-03 0.260E-06 ort(H,U,f) =-0.177E-03 0.170E-03-0.218E-06
CGA:  96    -0.224750906538E+03   -0.22552E-03   -0.22497E-03  5760   0.557E-03-0.709E-05
 gam= 0.597 trial= 0.513  step= 0.680 mean= 0.513
 gam= 0.705 g(H,U,f)=  0.208E-03 0.185E-03 0.283E-06 ort(H,U,f) =-0.944E-04 0.874E-04 0.638E-06
CGA:  97    -0.224751093637E+03   -0.18710E-03   -0.18793E-03  5760   0.393E-03-0.634E-05
 gam= 0.705 trial= 0.521  step= 0.814 mean= 0.521
 gam= 0.791 g(H,U,f)=  0.150E-03 0.161E-03 0.106E-06 ort(H,U,f) =-0.680E-04 0.680E-04-0.158E-06
CGA:  98    -0.224751251436E+03   -0.15780E-03   -0.15807E-03  5760   0.311E-03-0.149E-06
 gam= 0.791 trial= 0.536  step= 0.862 mean= 0.536
 gam= 1.167 g(H,U,f)=  0.127E-03 0.235E-03 0.505E-06 ort(H,U,f) =-0.570E-04 0.538E-04-0.110E-06
CGA:  99    -0.224751383304E+03   -0.13187E-03   -0.13385E-03  5760   0.363E-03-0.327E-05
 gam= 1.167 trial= 0.552  step= 0.333 mean= 0.552
 gam= 0.887 g(H,U,f)=  0.128E-03 0.193E-03 0.951E-06 ort(H,U,f) =-0.410E-04 0.465E-04-0.245E-06
CGA: 100    -0.224751444572E+03   -0.61268E-04   -0.59668E-04  5760   0.322E-03 0.525E-05
 gam= 0.887 trial= 0.541  step= 0.656 mean= 0.541
 gam= 0.852 g(H,U,f)=  0.114E-03 0.158E-03 0.112E-05 ort(H,U,f) =-0.625E-04 0.601E-04-0.113E-05
CGA: 101    -0.224751551223E+03   -0.10665E-03   -0.10698E-03  5760   0.274E-03-0.353E-05
 gam= 0.852 trial= 0.547  step= 0.623 mean= 0.547
 gam= 0.737 g(H,U,f)=  0.971E-04 0.105E-03 0.808E-07 ort(H,U,f) =-0.559E-04 0.542E-04 0.154E-06
CGA: 102    -0.224751635614E+03   -0.84391E-04   -0.84482E-04  5760   0.202E-03-0.151E-05
 gam= 0.737 trial= 0.551  step= 0.743 mean= 0.551
 gam= 1.254 g(H,U,f)=  0.780E-04 0.174E-03 0.129E-05 ort(H,U,f) =-0.230E-04 0.240E-04-0.460E-06
CGA: 103    -0.224751710184E+03   -0.74570E-04   -0.74585E-04  5760   0.253E-03 0.547E-06
 gam= 1.254 trial= 0.560  step= 0.379 mean= 0.560
 gam= 0.890 g(H,U,f)=  0.748E-04 0.150E-03 0.769E-06 ort(H,U,f) =-0.311E-04 0.376E-04-0.689E-06
CGA: 104    -0.224751759031E+03   -0.48847E-04   -0.48090E-04  5760   0.225E-03 0.585E-05
 gam= 0.890 trial= 0.551  step= 0.481 mean= 0.551
 gam= 0.656 g(H,U,f)=  0.675E-04 0.801E-04 0.179E-06 ort(H,U,f) =-0.418E-04 0.380E-04-0.266E-06
CGA: 105    -0.224751814915E+03   -0.55884E-04   -0.55495E-04  5760   0.148E-03-0.406E-05
 gam= 0.656 trial= 0.548  step= 0.801 mean= 0.548
 gam= 0.855 g(H,U,f)=  0.584E-04 0.678E-04 0.267E-06 ort(H,U,f) =-0.244E-04 0.230E-04-0.402E-07
CGA: 106    -0.224751872847E+03   -0.57932E-04   -0.58129E-04  5760   0.126E-03-0.144E-05
 gam= 0.855 trial= 0.560  step= 0.691 mean= 0.560
 gam= 0.758 g(H,U,f)=  0.426E-04 0.531E-04 0.146E-06 ort(H,U,f) =-0.179E-04 0.178E-04-0.106E-06
CGA: 107    -0.224751916044E+03   -0.43197E-04   -0.43278E-04  5760   0.958E-04-0.199E-06
 gam= 0.758 trial= 0.567  step= 0.684 mean= 0.567
 gam= 1.009 g(H,U,f)=  0.317E-04 0.647E-04 0.345E-06 ort(H,U,f) =-0.128E-04 0.125E-04-0.160E-07
CGA: 108    -0.224751948679E+03   -0.32635E-04   -0.32733E-04  5760   0.967E-04-0.325E-06
 gam= 1.009 trial= 0.573  step= 0.373 mean= 0.573
 gam= 1.045 g(H,U,f)=  0.346E-04 0.658E-04 0.608E-06 ort(H,U,f) =-0.839E-05 0.101E-04-0.449E-06
CGA: 109    -0.224751967172E+03   -0.18492E-04   -0.17978E-04  5760   0.101E-03 0.127E-05
 gam= 1.045 trial= 0.563  step= 0.672 mean= 0.563
 gam= 0.708 g(H,U,f)=  0.291E-04 0.424E-04 0.762E-07 ort(H,U,f) =-0.207E-04 0.196E-04-0.372E-07
CGA: 110    -0.224752001463E+03   -0.34291E-04   -0.34383E-04  5760   0.716E-04-0.115E-05
 gam= 0.708 trial= 0.568  step= 0.750 mean= 0.568
 gam= 0.838 g(H,U,f)=  0.321E-04 0.278E-04 0.505E-07 ort(H,U,f) =-0.179E-04 0.169E-04 0.307E-07
CGA: 111    -0.224752027858E+03   -0.26395E-04   -0.26548E-04  5760   0.600E-04-0.104E-05
 gam= 0.838 trial= 0.577  step= 0.924 mean= 0.577
 gam= 1.097 g(H,U,f)=  0.264E-04 0.393E-04 0.129E-06 ort(H,U,f) =-0.749E-05 0.769E-05-0.109E-06
CGA: 112    -0.224752055191E+03   -0.27333E-04   -0.27292E-04  5760   0.658E-04 0.917E-07
 gam= 1.097 trial= 0.595  step= 0.573 mean= 0.595
 gam= 0.531 g(H,U,f)=  0.173E-04 0.176E-04 0.829E-07 ort(H,U,f) =-0.864E-05 0.866E-05 0.138E-07
CGA: 113    -0.224752074068E+03   -0.18877E-04   -0.18878E-04  5760   0.349E-04 0.330E-07
 gam= 0.531 trial= 0.594  step= 0.478 mean= 0.594
 gam= 1.182 g(H,U,f)=  0.126E-04 0.284E-04 0.267E-06 ort(H,U,f) = 0.276E-05-0.174E-05-0.145E-06
CGA: 114    -0.224752082449E+03   -0.83807E-05   -0.83514E-05  5760   0.413E-04 0.876E-06
 gam= 1.182 trial= 0.588  step= 0.384 mean= 0.588
 gam= 0.536 g(H,U,f)=  0.866E-05 0.134E-04 0.379E-07 ort(H,U,f) =-0.158E-05 0.221E-05 0.363E-08
CGA: 115    -0.224752090693E+03   -0.82441E-05   -0.81232E-05  5760   0.221E-04 0.629E-06
 gam= 0.536 trial= 0.578  step= 0.486 mean= 0.578
 gam= 0.000 g(H,U,f)=  0.605E-05 0.614E-05 0.107E-07 ort(H,U,f) =-0.252E-05 0.258E-05-0.410E-08
SDA: 116    -0.224752096168E+03   -0.54744E-05   -0.54570E-05  5760   0.122E-04 0.537E-07
 gam= 0.000 trial= 0.573  step= 0.512 mean= 0.573
 gam= 0.913 g(H,U,f)=  0.298E-05 0.813E-05 0.348E-07 ort(H,U,f) = 0.208E-06-0.137E-06-0.154E-07
CGA: 117    -0.224752099299E+03   -0.31318E-05   -0.31245E-05  5760   0.111E-04 0.552E-07
 gam= 0.913 trial= 0.570  step= 0.496 mean= 0.570
 gam= 1.441 g(H,U,f)=  0.375E-05 0.122E-04 0.119E-06 ort(H,U,f) =-0.162E-05 0.170E-05-0.128E-07
CGA: 118    -0.224752102099E+03   -0.28001E-05   -0.27786E-05  5760   0.161E-04 0.719E-07
 gam= 1.441 trial= 0.566  step= 0.493 mean= 0.566
 gam= 0.871 g(H,U,f)=  0.669E-05 0.729E-05 0.102E-07 ort(H,U,f) =-0.549E-05 0.540E-05-0.146E-07
CGA: 119    -0.224752106100E+03   -0.40001E-05   -0.39837E-05  5760   0.140E-04-0.991E-07
 gam= 0.871 trial= 0.563  step= 1.017 mean= 0.563
 gam= 1.350 g(H,U,f)=  0.102E-04 0.864E-05 0.323E-08 ort(H,U,f) =-0.551E-05 0.561E-05 0.270E-08
CGA: 120    -0.224752113192E+03   -0.70921E-05   -0.70685E-05  5760   0.189E-04 0.981E-07
 gam= 1.350 trial= 0.585  step= 0.850 mean= 0.585
 gam= 1.115 g(H,U,f)=  0.110E-04 0.999E-05 0.230E-07 ort(H,U,f) =-0.524E-05 0.530E-05-0.348E-07
CGA: 121    -0.224752121283E+03   -0.80918E-05   -0.80814E-05  5760   0.211E-04 0.245E-07
 gam= 1.115 trial= 0.599  step= 0.717 mean= 0.599
 gam= 0.867 g(H,U,f)=  0.865E-05 0.955E-05 0.553E-07 ort(H,U,f) =-0.446E-05 0.490E-05-0.464E-07
CGA: 122    -0.224752128843E+03   -0.75600E-05   -0.75557E-05  5760   0.182E-04 0.388E-06
 gam= 0.867 trial= 0.604  step= 0.503 mean= 0.604
 gam= 1.180 g(H,U,f)=  0.740E-05 0.140E-04 0.155E-06 ort(H,U,f) =-0.121E-05 0.175E-05-0.314E-07
CGA: 123    -0.224752133537E+03   -0.46934E-05   -0.46735E-05  5760   0.215E-04 0.512E-06
 gam= 1.180 trial= 0.599  step= 0.351 mean= 0.599
 gam= 0.614 g(H,U,f)=  0.615E-05 0.703E-05 0.381E-07 ort(H,U,f) =-0.173E-05 0.212E-05-0.359E-07
CGA: 124    -0.224752137487E+03   -0.39506E-05   -0.38880E-05  5760   0.132E-04 0.360E-06
 gam= 0.614 trial= 0.587  step= 0.706 mean= 0.587
 gam= 0.510 g(H,U,f)=  0.447E-05 0.226E-05 0.329E-08 ort(H,U,f) =-0.188E-05 0.233E-05-0.123E-07
CGA: 125    -0.224752142260E+03   -0.47721E-05   -0.47437E-05  5760   0.674E-05 0.435E-06
 gam= 0.510 trial= 0.593  step= 0.850 mean= 0.593
 gam= 0.839 g(H,U,f)=  0.269E-05 0.296E-05 0.834E-08 ort(H,U,f) =-0.481E-06 0.617E-06 0.110E-08
CGA: 126    -0.224752145236E+03   -0.29760E-05   -0.29583E-05  5760   0.565E-05 0.137E-06
 gam= 0.839 trial= 0.606  step= 0.495 mean= 0.606
 gam= 0.876 g(H,U,f)=  0.169E-05 0.322E-05 0.446E-07 ort(H,U,f) =-0.147E-08 0.217E-06-0.155E-07
CGA: 127    -0.224752146664E+03   -0.14287E-05   -0.14274E-05  5760   0.495E-05 0.200E-06
 gam= 0.876 trial= 0.600  step= 0.294 mean= 0.600
 gam= 0.523 g(H,U,f)=  0.119E-05 0.139E-05 0.938E-08 ort(H,U,f) =-0.475E-07 0.124E-06-0.116E-07
CGA: 128    -0.224752147448E+03   -0.78348E-06   -0.75332E-06  5760   0.259E-05 0.648E-07
 gam= 0.523 trial= 0.585  step= 0.707 mean= 0.585
 final diagonalization
   1 F= -.23458878E+03 E0= -.23458807E+03  d E =-.141021E-02  mag=     6.0000
