       N       E                     dE             d eps       ncg     rms          ort
DAV:   1     0.349503505534E+04    0.34950E+04   -0.13956E+05  5760   0.219E+03
DAV:   2     0.407759342049E+03   -0.30873E+04   -0.28447E+04  5760   0.536E+02
DAV:   3    -0.220866113977E+03   -0.62863E+03   -0.57351E+03  5760   0.254E+02
DAV:   4    -0.271294858104E+03   -0.50429E+02   -0.49381E+02  5760   0.741E+01
DAV:   5    -0.273019946337E+03   -0.17251E+01   -0.17221E+01  5760   0.136E+01
SDA:   6     0.101748999662E+03    0.37477E+03   -0.17221E+01  5760   0.389E+04 0.000E+00
CGA:   7     0.388877512722E+02   -0.62861E+02   -0.13010E+03  5760   0.599E+04 0.103E+03
CGA:   8    -0.945630723922E+02   -0.13345E+03   -0.25647E+03  5760   0.553E+04 0.660E+03
CGA:   9    -0.122324603319E+03   -0.27762E+02   -0.17417E+03  5760   0.103E+04-0.810E+03
CGA:  10    -0.141246909714E+03   -0.18922E+02   -0.45869E+02  5760   0.797E+03-0.313E+03
CGA:  11    -0.157466780043E+03   -0.16220E+02   -0.37414E+02  5760   0.756E+03-0.175E+03
CGA:  12    -0.199169396077E+03   -0.41703E+02   -0.44577E+02  5760   0.318E+03 0.471E+01
CGA:  13    -0.210542321514E+03   -0.11373E+02   -0.12742E+02  5760   0.128E+03-0.579E+02
CGA:  14    -0.214149885457E+03   -0.36076E+01   -0.42391E+01  5760   0.403E+02-0.113E+02
CGA:  15    -0.217284748709E+03   -0.31349E+01   -0.32108E+01  5760   0.437E+02-0.101E+01
CGA:  16    -0.219207368133E+03   -0.19226E+01   -0.23226E+01  5760   0.262E+02-0.638E+01
CGA:  17    -0.220632914112E+03   -0.14255E+01   -0.16453E+01  5760   0.133E+02-0.703E-01
CGA:  18    -0.221223971034E+03   -0.59106E+00   -0.66706E+00  5760   0.518E+01-0.665E+00
CGA:  19    -0.221586866808E+03   -0.36290E+00   -0.38518E+00  5760   0.219E+01-0.413E-01
CGA:  20    -0.221823636476E+03   -0.23677E+00   -0.24030E+00  5760   0.241E+01 0.588E-01
CGA:  21    -0.222014547750E+03   -0.19091E+00   -0.20070E+00  5760   0.176E+01-0.433E-02
CGA:  22    -0.222215512185E+03   -0.20096E+00   -0.20177E+00  5760   0.106E+01 0.256E-01
CGA:  23    -0.222370258512E+03   -0.15475E+00   -0.15354E+00  5760   0.102E+01 0.451E-01
CGA:  24    -0.222508242611E+03   -0.13798E+00   -0.13793E+00  5760   0.132E+01 0.142E-01
CGA:  25    -0.222720723723E+03   -0.21248E+00   -0.21257E+00  5760   0.134E+01-0.129E-02
CGA:  26    -0.222929109649E+03   -0.20839E+00   -0.20862E+00  5760   0.105E+01-0.900E-02
CGA:  27    -0.223122947446E+03   -0.19384E+00   -0.18937E+00  5760   0.961E+00 0.618E-01
CGA:  28    -0.223331090109E+03   -0.20814E+00   -0.19985E+00  5760   0.770E+00 0.101E+00
CGA:  29    -0.223502301913E+03   -0.17121E+00   -0.17049E+00  5760   0.639E+00 0.662E-02
CGA:  30    -0.223618807881E+03   -0.11651E+00   -0.11684E+00  5760   0.730E+00-0.122E-01
CGA:  31    -0.223745575735E+03   -0.12677E+00   -0.13069E+00  5760   0.732E+00-0.726E-01
CGA:  32    -0.223876883660E+03   -0.13131E+00   -0.13216E+00  5760   0.635E+00-0.162E-01
CGA:  33    -0.223971011328E+03   -0.94128E-01   -0.94079E-01  5760   0.358E+00 0.449E-02
CGA:  34    -0.224042446411E+03   -0.71435E-01   -0.69906E-01  5760   0.340E+00 0.226E-01
CGA:  35    -0.224100922071E+03   -0.58476E-01   -0.58974E-01  5760   0.762E+00-0.211E-01
CGA:  36    -0.224135082155E+03   -0.34160E-01   -0.34473E-01  5760   0.229E+00-0.486E-02
SDA:  37    -0.224180593514E+03   -0.45511E-01   -0.45175E-01  5760   0.488E+00 0.451E-02
CGA:  38    -0.224197751243E+03   -0.17158E-01   -0.17844E-01  5760   0.248E+00-0.182E-01
CGA:  39    -0.224245388351E+03   -0.47637E-01   -0.47630E-01  5760   0.179E+00 0.558E-04
CGA:  40    -0.224289388120E+03   -0.44000E-01   -0.43395E-01  5760   0.272E+00 0.586E-02
CGA:  41    -0.224300516190E+03   -0.11128E-01   -0.11010E-01  5760   0.102E+00 0.227E-02
CGA:  42    -0.224331339506E+03   -0.30823E-01   -0.30262E-01  5760   0.133E+00 0.276E-02
CGA:  43    -0.224356547954E+03   -0.25208E-01   -0.24577E-01  5760   0.225E+00 0.145E-01
CGA:  44    -0.224367960380E+03   -0.11412E-01   -0.94368E-02  5760   0.564E-01 0.452E-01
CGA:  45    -0.224382925823E+03   -0.14965E-01   -0.16797E-01  5760   0.340E+00-0.174E-01
CGA:  46    -0.224387944608E+03   -0.50188E-02   -0.35989E-02  5760   0.331E+00 0.941E-01
CGA:  47    -0.224399479170E+03   -0.11535E-01   -0.23942E-01  5760   0.183E+00-0.946E-01
CGA:  48    -0.224411682171E+03   -0.12203E-01   -0.88180E-02  5760   0.166E+00 0.310E-01
CGA:  49    -0.224432643969E+03   -0.20962E-01   -0.19644E-01  5760   0.285E+00-0.354E-02
CGA:  50    -0.224446235326E+03   -0.13591E-01   -0.14925E-01  5760   0.233E+00-0.679E-02
CGA:  51    -0.224467544640E+03   -0.21309E-01   -0.23067E-01  5760   0.260E+00 0.184E-01
CGA:  52    -0.224492425729E+03   -0.24881E-01   -0.20791E-01  5760   0.279E+00 0.260E-01
CGA:  53    -0.224509943114E+03   -0.17517E-01   -0.12020E-01  5760   0.306E+00 0.132E+00
CGA:  54    -0.224525464288E+03   -0.15521E-01   -0.93496E-02  5760   0.261E+00 0.301E+00
CGA:  55    -0.224556451802E+03   -0.30988E-01   -0.30922E-01  5760   0.144E+00 0.352E-01
CGA:  56    -0.224594872444E+03   -0.38421E-01   -0.40233E-01  5760   0.151E+00-0.167E-01
CGA:  57    -0.224621170226E+03   -0.26298E-01   -0.25431E-01  5760   0.139E+00 0.888E-02
CGA:  58    -0.224651979099E+03   -0.30809E-01   -0.28429E-01  5760   0.800E-01 0.262E-01
CGA:  59    -0.224676615469E+03   -0.24636E-01   -0.23928E-01  5760   0.363E-01 0.472E-02
CGA:  60    -0.224687868373E+03   -0.11253E-01   -0.11594E-01  5760   0.625E-01-0.124E-02
CGA:  61    -0.224700759559E+03   -0.12891E-01   -0.12691E-01  5760   0.382E-01 0.251E-02
CGA:  62    -0.224710148035E+03   -0.93885E-02   -0.93377E-02  5760   0.244E-01 0.513E-03
CGA:  63    -0.224714201993E+03   -0.40540E-02   -0.40896E-02  5760   0.211E-01-0.107E-02
CGA:  64    -0.224720388268E+03   -0.61863E-02   -0.61796E-02  5760   0.178E-01-0.375E-04
CGA:  65    -0.224723902118E+03   -0.35139E-02   -0.35067E-02  5760   0.158E-01 0.356E-03
CGA:  66    -0.224726739563E+03   -0.28374E-02   -0.28422E-02  5760   0.880E-02-0.117E-03
CGA:  67    -0.224729829852E+03   -0.30903E-02   -0.30129E-02  5760   0.104E-01 0.346E-03
CGA:  68    -0.224731404415E+03   -0.15746E-02   -0.15719E-02  5760   0.555E-02 0.642E-04
CGA:  69    -0.224733030386E+03   -0.16260E-02   -0.16478E-02  5760   0.442E-02-0.128E-03
CGA:  70    -0.224734390267E+03   -0.13599E-02   -0.13611E-02  5760   0.670E-02 0.313E-04
CGA:  71    -0.224735586405E+03   -0.11961E-02   -0.11942E-02  5760   0.414E-02-0.615E-04
CGA:  72    -0.224737078027E+03   -0.14916E-02   -0.14787E-02  5760   0.480E-02 0.536E-04
CGA:  73    -0.224738848873E+03   -0.17708E-02   -0.17844E-02  5760   0.782E-02-0.534E-04
CGA:  74    -0.224740147361E+03   -0.12985E-02   -0.12953E-02  5760   0.491E-02 0.204E-04
CGA:  75    -0.224742051707E+03   -0.19043E-02   -0.19154E-02  5760   0.528E-02-0.370E-04
CGA:  76    -0.224743298383E+03   -0.12467E-02   -0.12500E-02  5760   0.631E-02 0.113E-03
CGA:  77    -0.224744467967E+03   -0.11696E-02   -0.11753E-02  5760   0.376E-02 0.108E-03
CGA:  78    -0.224745754749E+03   -0.12868E-02   -0.12849E-02  5760   0.317E-02-0.131E-04
CGA:  79    -0.224746353677E+03   -0.59893E-03   -0.59113E-03  5760   0.340E-02 0.602E-04
CGA:  80    -0.224747117300E+03   -0.76362E-03   -0.76257E-03  5760   0.208E-02 0.126E-03
CGA:  81    -0.224747646093E+03   -0.52879E-03   -0.52650E-03  5760   0.191E-02 0.432E-04
CGA:  82    -0.224747946554E+03   -0.30046E-03   -0.29288E-03  5760   0.132E-02 0.152E-04
CGA:  83    -0.224748361064E+03   -0.41451E-03   -0.41272E-03  5760   0.109E-02 0.170E-04
CGA:  84    -0.224748595026E+03   -0.23396E-03   -0.23399E-03  5760   0.112E-02 0.671E-05
SDA:  85    -0.224748796737E+03   -0.20171E-03   -0.19774E-03  5760   0.719E-03-0.111E-04
CGA:  86    -0.224748950870E+03   -0.15413E-03   -0.15411E-03  5760   0.575E-03 0.743E-05
CGA:  87    -0.224749073315E+03   -0.12244E-03   -0.12229E-03  5760   0.551E-03-0.721E-05
CGA:  88    -0.224749217761E+03   -0.14445E-03   -0.14496E-03  5760   0.448E-03-0.492E-05
CGA:  89    -0.224749411507E+03   -0.19375E-03   -0.19324E-03  5760   0.510E-03 0.937E-06
CGA:  90    -0.224749660487E+03   -0.24898E-03   -0.25010E-03  5760   0.748E-03 0.539E-06
CGA:  91    -0.224749801260E+03   -0.14077E-03   -0.13881E-03  5760   0.696E-03 0.127E-04
CGA:  92    -0.224749999823E+03   -0.19856E-03   -0.19952E-03  5760   0.678E-03-0.111E-04
CGA:  93    -0.224750239266E+03   -0.23944E-03   -0.23942E-03  5760   0.560E-03 0.226E-06
CGA:  94    -0.224750519335E+03   -0.28007E-03   -0.27931E-03  5760   0.722E-03 0.433E-05
CGA:  95    -0.224750681015E+03   -0.16168E-03   -0.16023E-03  5760   0.934E-03 0.141E-04
CGA:  96    -0.224750906538E+03   -0.22552E-03   -0.22497E-03  5760   0.557E-03-0.709E-05
CGA:  97    -0.224751093637E+03   -0.18710E-03   -0.18793E-03  5760   0.393E-03-0.634E-05
CGA:  98    -0.224751251436E+03   -0.15780E-03   -0.15807E-03  5760   0.311E-03-0.149E-06
CGA:  99    -0.224751383304E+03   -0.13187E-03   -0.13385E-03  5760   0.363E-03-0.327E-05
CGA: 100    -0.224751444572E+03   -0.61268E-04   -0.59668E-04  5760   0.322E-03 0.525E-05
CGA: 101    -0.224751551223E+03   -0.10665E-03   -0.10698E-03  5760   0.274E-03-0.353E-05
CGA: 102    -0.224751635614E+03   -0.84391E-04   -0.84482E-04  5760   0.202E-03-0.151E-05
CGA: 103    -0.224751710184E+03   -0.74570E-04   -0.74585E-04  5760   0.253E-03 0.547E-06
CGA: 104    -0.224751759031E+03   -0.48847E-04   -0.48090E-04  5760   0.225E-03 0.585E-05
CGA: 105    -0.224751814915E+03   -0.55884E-04   -0.55495E-04  5760   0.148E-03-0.406E-05
CGA: 106    -0.224751872847E+03   -0.57932E-04   -0.58129E-04  5760   0.126E-03-0.144E-05
CGA: 107    -0.224751916044E+03   -0.43197E-04   -0.43278E-04  5760   0.958E-04-0.199E-06
CGA: 108    -0.224751948679E+03   -0.32635E-04   -0.32733E-04  5760   0.967E-04-0.325E-06
CGA: 109    -0.224751967172E+03   -0.18492E-04   -0.17978E-04  5760   0.101E-03 0.127E-05
CGA: 110    -0.224752001463E+03   -0.34291E-04   -0.34383E-04  5760   0.716E-04-0.115E-05
CGA: 111    -0.224752027858E+03   -0.26395E-04   -0.26548E-04  5760   0.600E-04-0.104E-05
CGA: 112    -0.224752055191E+03   -0.27333E-04   -0.27292E-04  5760   0.658E-04 0.917E-07
CGA: 113    -0.224752074068E+03   -0.18877E-04   -0.18878E-04  5760   0.349E-04 0.330E-07
CGA: 114    -0.224752082449E+03   -0.83807E-05   -0.83514E-05  5760   0.413E-04 0.876E-06
CGA: 115    -0.224752090693E+03   -0.82441E-05   -0.81232E-05  5760   0.221E-04 0.629E-06
SDA: 116    -0.224752096168E+03   -0.54744E-05   -0.54570E-05  5760   0.122E-04 0.537E-07
CGA: 117    -0.224752099299E+03   -0.31318E-05   -0.31245E-05  5760   0.111E-04 0.552E-07
CGA: 118    -0.224752102099E+03   -0.28001E-05   -0.27786E-05  5760   0.161E-04 0.719E-07
CGA: 119    -0.224752106100E+03   -0.40001E-05   -0.39837E-05  5760   0.140E-04-0.991E-07
CGA: 120    -0.224752113192E+03   -0.70921E-05   -0.70685E-05  5760   0.189E-04 0.981E-07
CGA: 121    -0.224752121283E+03   -0.80918E-05   -0.80814E-05  5760   0.211E-04 0.245E-07
CGA: 122    -0.224752128843E+03   -0.75600E-05   -0.75557E-05  5760   0.182E-04 0.388E-06
CGA: 123    -0.224752133537E+03   -0.46934E-05   -0.46735E-05  5760   0.215E-04 0.512E-06
CGA: 124    -0.224752137487E+03   -0.39506E-05   -0.38880E-05  5760   0.132E-04 0.360E-06
CGA: 125    -0.224752142260E+03   -0.47721E-05   -0.47437E-05  5760   0.674E-05 0.435E-06
CGA: 126    -0.224752145236E+03   -0.29760E-05   -0.29583E-05  5760   0.565E-05 0.137E-06
CGA: 127    -0.224752146664E+03   -0.14287E-05   -0.14274E-05  5760   0.495E-05 0.200E-06
CGA: 128    -0.224752147448E+03   -0.78348E-06   -0.75332E-06  5760   0.259E-05 0.648E-07
   1 F= -.23458878E+03 E0= -.23458807E+03  d E =-.141021E-02  mag=     6.0000
