 running on   64 total cores
 distrk:  each k-point on   64 cores,    1 groups
 distr:  one band on    4 cores,   16 groups
 using from now: INCAR     
 vasp.5.4.4.18Apr17-6-g9f103f2a35 (build Nov 22 2021 14:44:17) complex          
  
 POSCAR found type information on POSCAR  Li Co O 
 POSCAR found :  3 types and      42 ions
 scaLAPACK will be used
 LDA part: xc-table for Pade appr. of Perdew
 generate k-points for:    6    6    2
 POSCAR, INCAR and KPOINTS ok, starting setup
 FFT: planning ...
 WAVECAR not read
 entering main loop
       N       E                     dE             d eps       ncg     rms          ort
DAV:   1     0.346845444304E+04    0.34685E+04   -0.13904E+05  5760   0.216E+03
DAV:   2     0.411448501555E+03   -0.30570E+04   -0.28175E+04  5760   0.526E+02
DAV:   3    -0.219995547578E+03   -0.63144E+03   -0.57838E+03  5760   0.253E+02
DAV:   4    -0.270965622665E+03   -0.50970E+02   -0.49900E+02  5760   0.741E+01
DAV:   5    -0.272778971169E+03   -0.18133E+01   -0.18100E+01  5760   0.139E+01
 gam= 0.000 g(H,U,f)=  0.186E+04 0.156E+04 0.621E+04 ort(H,U,f) = 0.000E+00 0.000E+00 0.000E+00
SDA:   6     0.134910040855E+03    0.40769E+03   -0.18100E+01  5760   0.963E+04 0.000E+00
 gam= 0.000 trial= 0.400  step= 0.110 mean= 0.400
 gam= 0.000 g(H,U,f)=  0.153E+04 0.249E+05 0.570E+05 ort(H,U,f) = 0.319E+03-0.593E+04-0.141E+05
CGA:   7     0.335468018121E+03    0.20056E+03   -0.52978E+03  5760   0.834E+05-0.197E+05
 gam= 0.000 trial= 0.386  step= 0.145 mean= 0.386
 gam= 0.912 g(H,U,f)=  0.889E+04 0.671E+05 0.315E+02 ort(H,U,f) =-0.341E+04-0.159E+05-0.810E+01
CGA:   8     0.420659771753E+04    0.38711E+04   -0.60573E+04  5760   0.760E+05-0.194E+05
 gam= 0.912 trial= 0.373  step= 0.135 mean= 0.373
 gam= 0.846 g(H,U,f)=  0.118E+05 0.441E+05 0.841E+04 ort(H,U,f) =-0.722E+04-0.192E+05-0.447E+04
CGA:   9     0.505105911328E+04    0.84446E+03   -0.39429E+04  5760   0.643E+05-0.309E+05
 gam= 0.846 trial= 0.362  step= 0.176 mean= 0.362
 gam= 2.500 g(H,U,f)=  0.168E+05 0.124E+06 0.198E+05 ort(H,U,f) =-0.385E+04 0.687E+04 0.163E+04
CGA:  10     0.582904267165E+04    0.77798E+03   -0.33573E+04  5760   0.161E+06 0.465E+04
 gam= 2.500 trial= 0.352  step= 0.164 mean= 0.352
 gam= 0.646 g(H,U,f)=  0.858E+05 0.177E+05 0.275E+03 ort(H,U,f) =-0.113E+05-0.619E+04-0.929E+02
CGA:  11     0.984291563251E+04    0.40139E+04   -0.14125E+05  5760   0.104E+06-0.175E+05
 gam= 0.646 trial= 0.343  step= 0.190 mean= 0.343
 gam= 0.235 g(H,U,f)=  0.149E+05 0.936E+04 0.137E+03 ort(H,U,f) = 0.424E+04 0.154E+05 0.410E+03
CGA:  12     0.186383189076E+04   -0.79791E+04   -0.87994E+04  5760   0.244E+05 0.200E+05
 gam= 0.235 trial= 0.335  step= 0.069 mean= 0.335
 gam= 0.623 g(H,U,f)=  0.619E+04 0.870E+04 0.276E+03 ort(H,U,f) = 0.151E+04-0.359E+04-0.248E+03
CGA:  13     0.153604944638E+04   -0.32778E+03   -0.10017E+04  5760   0.152E+05-0.232E+04
 gam= 0.623 trial= 0.322  step= 0.042 mean= 0.322
 gam= 0.849 g(H,U,f)=  0.617E+04 0.654E+04 0.173E+03 ort(H,U,f) = 0.278E+04-0.465E+03 0.378E+01
CGA:  14     0.135626356822E+04   -0.17979E+03   -0.28564E+03  5760   0.129E+05 0.232E+04
 gam= 0.849 trial= 0.308  step= 0.070 mean= 0.308
 gam= 0.000 g(H,U,f)=  0.142E+05 0.211E+05 0.434E+03 ort(H,U,f) = 0.156E+04-0.115E+05-0.364E+03
CGA:  15     0.149042357490E+04    0.13416E+03   -0.51728E+03  5760   0.357E+05-0.103E+05
 gam= 0.000 trial= 0.296  step= 0.101 mean= 0.296
 gam= 0.000 g(H,U,f)=  0.896E+04 0.139E+05 0.180E+03 ort(H,U,f) =-0.881E+04-0.126E+05-0.153E+03
CGA:  16     0.132717931993E+04   -0.16324E+03   -0.18069E+04  5760   0.231E+05-0.216E+05
 gam= 0.000 trial= 0.286  step= 0.056 mean= 0.286
 gam= 0.066 g(H,U,f)=  0.103E+04 0.490E+03 0.591E+01 ort(H,U,f) = 0.370E+03 0.396E+03 0.443E+01
CGA:  17     0.643450489111E+03   -0.68373E+03   -0.64645E+03  5760   0.152E+04 0.770E+03
 gam= 0.066 trial= 0.275  step= 0.124 mean= 0.275
 gam= 1.797 g(H,U,f)=  0.119E+04 0.149E+04 0.590E+02 ort(H,U,f) = 0.622E+03-0.419E+03-0.355E+02
CGA:  18     0.530993845092E+03   -0.11246E+03   -0.97143E+02  5760   0.273E+04 0.167E+03
 gam= 1.797 trial= 0.267  step= 0.195 mean= 0.267
 gam= 1.169 g(H,U,f)=  0.690E+03 0.239E+04 0.119E+03 ort(H,U,f) = 0.557E+03-0.420E+03-0.371E+02
CGA:  19     0.240821249098E+03   -0.29017E+03   -0.29628E+03  5760   0.320E+04 0.101E+03
 gam= 1.169 trial= 0.264  step= 0.060 mean= 0.264
 gam= 0.306 g(H,U,f)=  0.478E+03 0.495E+03 0.486E+01 ort(H,U,f) = 0.564E+03-0.138E+03-0.295E+01
CGA:  20     0.167587088039E+03   -0.73234E+02   -0.99616E+02  5760   0.978E+03 0.423E+03
 gam= 0.306 trial= 0.253  step= 0.256 mean= 0.253
 gam= 1.277 g(H,U,f)=  0.260E+03 0.967E+03 0.220E+02 ort(H,U,f) = 0.139E+03-0.748E+02-0.415E+01
CGA:  21     0.257061699977E+02   -0.14188E+03   -0.14174E+03  5760   0.125E+04 0.600E+02
 gam= 1.277 trial= 0.254  step= 0.099 mean= 0.254
 gam= 1.098 g(H,U,f)=  0.219E+03 0.108E+04 0.741E+02 ort(H,U,f) =-0.189E+02-0.587E+01-0.356E+02
CGA:  22    -0.313776429129E+02   -0.57084E+02   -0.65781E+02  5760   0.137E+04-0.603E+02
 gam= 1.098 trial= 0.246  step= 0.097 mean= 0.246
 gam= 0.393 g(H,U,f)=  0.167E+03 0.353E+03 0.184E+02 ort(H,U,f) =-0.777E+02-0.203E+03-0.135E+01
CGA:  23    -0.757290724180E+02   -0.44351E+02   -0.63506E+02  5760   0.538E+03-0.282E+03
 gam= 0.393 trial= 0.238  step= 0.112 mean= 0.238
 gam= 0.729 g(H,U,f)=  0.158E+03 0.225E+03 0.104E+02 ort(H,U,f) = 0.366E+02-0.604E+02-0.818E+01
CGA:  24    -0.965328559694E+02   -0.20804E+02   -0.23894E+02  5760   0.393E+03-0.320E+02
 gam= 0.729 trial= 0.232  step= 0.166 mean= 0.232
 gam= 0.541 g(H,U,f)=  0.973E+02 0.109E+03 0.629E+01 ort(H,U,f) = 0.398E+02-0.413E+02-0.198E+01
CGA:  25    -0.126270353413E+03   -0.29737E+02   -0.30609E+02  5760   0.212E+03-0.355E+01
 gam= 0.541 trial= 0.229  step= 0.260 mean= 0.229
 gam= 0.744 g(H,U,f)=  0.756E+02 0.770E+02 0.540E+01 ort(H,U,f) = 0.222E+02-0.108E+02-0.601E-02
CGA:  26    -0.153931418653E+03   -0.27661E+02   -0.27321E+02  5760   0.158E+03 0.114E+02
 gam= 0.744 trial= 0.230  step= 0.173 mean= 0.230
 gam= 1.256 g(H,U,f)=  0.596E+02 0.130E+03 0.848E+01 ort(H,U,f) = 0.304E+02-0.285E+02-0.271E+01
CGA:  27    -0.167899916446E+03   -0.13968E+02   -0.14440E+02  5760   0.199E+03-0.755E+00
 gam= 1.256 trial= 0.227  step= 0.175 mean= 0.227
 gam= 0.252 g(H,U,f)=  0.259E+02 0.235E+02 0.655E+00 ort(H,U,f) =-0.158E+02 0.111E+02 0.360E+00
CGA:  28    -0.185136971057E+03   -0.17237E+02   -0.17280E+02  5760   0.501E+02-0.430E+01
 gam= 0.252 trial= 0.225  step= 0.303 mean= 0.225
 gam= 1.278 g(H,U,f)=  0.205E+02 0.423E+02 0.117E+01 ort(H,U,f) =-0.194E+01 0.662E+00-0.464E+00
CGA:  29    -0.192526097158E+03   -0.73891E+01   -0.74157E+01  5760   0.640E+02-0.174E+01
 gam= 1.278 trial= 0.229  step= 0.133 mean= 0.229
 gam= 1.079 g(H,U,f)=  0.214E+02 0.460E+02 0.168E+01 ort(H,U,f) = 0.181E+01-0.219E+01-0.818E+00
CGA:  30    -0.196940885197E+03   -0.44148E+01   -0.41086E+01  5760   0.691E+02-0.120E+01
 gam= 1.079 trial= 0.224  step= 0.278 mean= 0.224
 gam= 0.625 g(H,U,f)=  0.176E+02 0.244E+02 0.116E+01 ort(H,U,f) =-0.204E+02 0.859E+01-0.188E+01
CGA:  31    -0.205970901509E+03   -0.90300E+01   -0.94376E+01  5760   0.432E+02-0.137E+02
 gam= 0.625 trial= 0.227  step= 0.069 mean= 0.227
 gam= 0.614 g(H,U,f)=  0.162E+02 0.989E+01 0.455E+00 ort(H,U,f) =-0.269E+00 0.998E+01 0.935E+00
CGA:  32    -0.207587611223E+03   -0.16167E+01   -0.11871E+01  5760   0.265E+02 0.106E+02
 gam= 0.614 trial= 0.219  step= 0.116 mean= 0.219
 gam= 1.554 g(H,U,f)=  0.127E+02 0.243E+02 0.415E+01 ort(H,U,f) = 0.853E+01-0.367E+01 0.245E+00
CGA:  33    -0.209887219847E+03   -0.22996E+01   -0.19201E+01  5760   0.412E+02 0.511E+01
 gam= 1.554 trial= 0.214  step= 0.091 mean= 0.214
 gam= 0.841 g(H,U,f)=  0.123E+02 0.204E+02 0.200E+01 ort(H,U,f) = 0.743E+01-0.801E+01 0.192E+01
CGA:  34    -0.212049871183E+03   -0.21627E+01   -0.22266E+01  5760   0.346E+02 0.134E+01
 gam= 0.841 trial= 0.207  step= 0.077 mean= 0.207
 gam= 1.488 g(H,U,f)=  0.123E+02 0.309E+02 0.836E+01 ort(H,U,f) = 0.631E+01-0.820E+01-0.170E+01
CGA:  35    -0.213120729799E+03   -0.10709E+01   -0.13856E+01  5760   0.516E+02-0.359E+01
 gam= 1.488 trial= 0.201  step= 0.067 mean= 0.201
 gam= 0.630 g(H,U,f)=  0.949E+01 0.172E+02 0.584E+01 ort(H,U,f) =-0.145E+01 0.631E+00 0.209E+01
CGA:  36    -0.214570770247E+03   -0.14500E+01   -0.15519E+01  5760   0.325E+02 0.127E+01
 gam= 0.630 trial= 0.194  step= 0.046 mean= 0.194
 gam= 0.481 g(H,U,f)=  0.714E+01 0.782E+01 0.659E+00 ort(H,U,f) = 0.622E+00-0.147E+01-0.615E+00
CGA:  37    -0.215176422118E+03   -0.60565E+00   -0.76329E+00  5760   0.156E+02-0.146E+01
 gam= 0.481 trial= 0.187  step= 0.088 mean= 0.187
 gam= 1.017 g(H,U,f)=  0.518E+01 0.945E+01 0.125E+01 ort(H,U,f) = 0.145E+01-0.518E+00-0.396E-01
CGA:  38    -0.215855767049E+03   -0.67934E+00   -0.65482E+00  5760   0.159E+02 0.896E+00
 gam= 1.017 trial= 0.182  step= 0.060 mean= 0.182
 gam= 0.661 g(H,U,f)=  0.473E+01 0.534E+01 0.419E+00 ort(H,U,f) = 0.134E+01-0.144E+01 0.129E-01
CGA:  39    -0.216312801468E+03   -0.45703E+00   -0.50432E+00  5760   0.105E+02-0.842E-01
 gam= 0.661 trial= 0.176  step= 0.095 mean= 0.176
 gam= 1.156 g(H,U,f)=  0.463E+01 0.667E+01 0.834E+00 ort(H,U,f) = 0.136E+01-0.102E+01 0.148E+00
CGA:  40    -0.216774320054E+03   -0.46152E+00   -0.49601E+00  5760   0.121E+02 0.490E+00
 gam= 1.156 trial= 0.172  step= 0.073 mean= 0.172
 gam= 1.061 g(H,U,f)=  0.481E+01 0.757E+01 0.497E+00 ort(H,U,f) = 0.163E+01-0.911E+00-0.437E+00
CGA:  41    -0.217211358820E+03   -0.43704E+00   -0.46082E+00  5760   0.129E+02 0.285E+00
 gam= 1.061 trial= 0.167  step= 0.106 mean= 0.167
 gam= 1.023 g(H,U,f)=  0.420E+01 0.799E+01 0.969E+00 ort(H,U,f) =-0.134E+01 0.190E+01 0.805E-01
CGA:  42    -0.217877155936E+03   -0.66580E+00   -0.69504E+00  5760   0.132E+02 0.647E+00
 gam= 1.023 trial= 0.164  step= 0.053 mean= 0.164
 gam= 0.572 g(H,U,f)=  0.335E+01 0.395E+01 0.226E+00 ort(H,U,f) =-0.179E+01 0.279E+01-0.174E+00
CGA:  43    -0.218236705988E+03   -0.35955E+00   -0.36535E+00  5760   0.753E+01 0.823E+00
 gam= 0.572 trial= 0.158  step= 0.098 mean= 0.158
 gam= 1.295 g(H,U,f)=  0.277E+01 0.585E+01 0.113E+01 ort(H,U,f) =-0.128E+01 0.186E+01-0.142E+00
CGA:  44    -0.218612373852E+03   -0.37567E+00   -0.39214E+00  5760   0.975E+01 0.439E+00
 gam= 1.295 trial= 0.155  step= 0.062 mean= 0.155
 gam= 0.548 g(H,U,f)=  0.286E+01 0.244E+01 0.412E-01 ort(H,U,f) =-0.269E+01 0.254E+01 0.510E-01
CGA:  45    -0.218892436076E+03   -0.28006E+00   -0.32075E+00  5760   0.534E+01-0.101E+00
 gam= 0.548 trial= 0.151  step= 0.117 mean= 0.151
 gam= 1.522 g(H,U,f)=  0.276E+01 0.448E+01 0.880E+00 ort(H,U,f) =-0.544E+00 0.117E+01-0.239E+00
CGA:  46    -0.219192385793E+03   -0.29995E+00   -0.30881E+00  5760   0.812E+01 0.386E+00
 gam= 1.522 trial= 0.149  step= 0.089 mean= 0.149
 gam= 0.000 g(H,U,f)=  0.268E+01 0.296E+01 0.939E-01 ort(H,U,f) =-0.150E+01 0.185E+01 0.524E-01
SDA:  47    -0.219562515179E+03   -0.37013E+00   -0.38915E+00  5760   0.573E+01 0.406E+00
 gam= 0.000 trial= 0.146  step= 0.262 mean= 0.146
 gam= 1.230 g(H,U,f)=  0.133E+01 0.461E+01 0.111E+01 ort(H,U,f) = 0.704E+00-0.945E+00-0.393E+00
CGA:  48    -0.220274376644E+03   -0.71186E+00   -0.75134E+00  5760   0.705E+01-0.633E+00
 gam= 1.230 trial= 0.152  step= 0.134 mean= 0.152
 gam= 0.617 g(H,U,f)=  0.140E+01 0.276E+01 0.187E+00 ort(H,U,f) = 0.230E+00 0.134E+00-0.154E+00
CGA:  49    -0.220690212764E+03   -0.41584E+00   -0.42083E+00  5760   0.435E+01 0.209E+00
 gam= 0.617 trial= 0.151  step= 0.244 mean= 0.151
 gam= 1.196 g(H,U,f)=  0.914E+00 0.372E+01 0.570E+00 ort(H,U,f) =-0.261E+00 0.422E+00-0.138E+00
CGA:  50    -0.221239084127E+03   -0.54887E+00   -0.54728E+00  5760   0.520E+01 0.223E-01
 gam= 1.196 trial= 0.156  step= 0.111 mean= 0.156
 gam= 0.398 g(H,U,f)=  0.690E+00 0.123E+01 0.151E+00 ort(H,U,f) =-0.546E+00 0.792E+00-0.223E+00
CGA:  51    -0.221521927018E+03   -0.28284E+00   -0.28890E+00  5760   0.207E+01 0.220E-01
 gam= 0.398 trial= 0.153  step= 0.268 mean= 0.153
 gam= 0.434 g(H,U,f)=  0.415E+00 0.468E+00 0.154E-01 ort(H,U,f) =-0.348E+00 0.319E+00 0.152E-01
CGA:  52    -0.221800254704E+03   -0.27833E+00   -0.27916E+00  5760   0.899E+00-0.132E-01
 gam= 0.434 trial= 0.159  step= 0.324 mean= 0.159
 gam= 1.448 g(H,U,f)=  0.269E+00 0.794E+00 0.238E+00 ort(H,U,f) = 0.113E-01 0.127E+00-0.706E-01
CGA:  53    -0.221950231995E+03   -0.14998E+00   -0.14450E+00  5760   0.130E+01 0.680E-01
 gam= 1.448 trial= 0.167  step= 0.165 mean= 0.167
 gam= 0.688 g(H,U,f)=  0.235E+00 0.565E+00 0.950E-01 ort(H,U,f) =-0.775E-01 0.119E+00-0.729E-01
CGA:  54    -0.222065472014E+03   -0.11524E+00   -0.11516E+00  5760   0.895E+00-0.310E-01
 gam= 0.688 trial= 0.167  step= 0.249 mean= 0.167
 gam= 0.594 g(H,U,f)=  0.186E+00 0.305E+00 0.406E-01 ort(H,U,f) =-0.986E-01 0.154E+00 0.123E-01
CGA:  55    -0.222177532947E+03   -0.11206E+00   -0.10861E+00  5760   0.532E+00 0.679E-01
 gam= 0.594 trial= 0.171  step= 0.350 mean= 0.171
 gam= 2.061 g(H,U,f)=  0.237E+00 0.639E+00 0.221E+00 ort(H,U,f) =-0.740E-01 0.149E+00-0.132E+00
CGA:  56    -0.222272563404E+03   -0.95030E-01   -0.10007E+00  5760   0.110E+01-0.561E-01
 gam= 2.061 trial= 0.180  step= 0.198 mean= 0.180
 gam= 1.166 g(H,U,f)=  0.425E+00 0.835E+00 0.189E-01 ort(H,U,f) =-0.306E+00 0.322E+00-0.235E-01
CGA:  57    -0.222370031802E+03   -0.97468E-01   -0.97343E-01  5760   0.128E+01-0.785E-02
 gam= 1.166 trial= 0.181  step= 0.184 mean= 0.181
 gam= 1.381 g(H,U,f)=  0.504E+00 0.869E+00 0.393E+00 ort(H,U,f) =-0.290E+00 0.983E-01 0.104E+00
CGA:  58    -0.222486600405E+03   -0.11657E+00   -0.11667E+00  5760   0.177E+01-0.883E-01
 gam= 1.381 trial= 0.181  step= 0.078 mean= 0.181
 gam= 0.770 g(H,U,f)=  0.454E+00 0.717E+00 0.189E+00 ort(H,U,f) =-0.128E+00 0.183E+00 0.266E+00
CGA:  59    -0.222562331710E+03   -0.75731E-01   -0.64467E-01  5760   0.136E+01 0.322E+00
 gam= 0.770 trial= 0.176  step= 0.068 mean= 0.176
 gam= 0.703 g(H,U,f)=  0.351E+00 0.574E+00 0.316E-01 ort(H,U,f) = 0.130E+00 0.341E+00 0.424E-01
CGA:  60    -0.222629605817E+03   -0.67274E-01   -0.54697E-01  5760   0.957E+00 0.514E+00
 gam= 0.703 trial= 0.171  step= 0.081 mean= 0.171
 gam= 1.008 g(H,U,f)=  0.268E+00 0.517E+00 0.179E+00 ort(H,U,f) = 0.167E+00 0.374E+00-0.487E+00
CGA:  61    -0.222690288371E+03   -0.60683E-01   -0.53632E-01  5760   0.964E+00 0.543E-01
 gam= 1.008 trial= 0.166  step= 0.080 mean= 0.166
 gam= 1.369 g(H,U,f)=  0.269E+00 0.539E+00 0.512E+00 ort(H,U,f) = 0.655E-01 0.433E+00-0.768E+00
CGA:  62    -0.222736770885E+03   -0.46483E-01   -0.40840E-01  5760   0.132E+01-0.269E+00
 gam= 1.369 trial= 0.162  step= 0.069 mean= 0.162
 gam= 0.955 g(H,U,f)=  0.362E+00 0.486E+00 0.413E+00 ort(H,U,f) =-0.277E+00 0.520E+00-0.679E+00
CGA:  63    -0.222778957098E+03   -0.42186E-01   -0.32769E-01  5760   0.126E+01-0.436E+00
 gam= 0.955 trial= 0.157  step= 0.067 mean= 0.157
 gam= 0.768 g(H,U,f)=  0.475E+00 0.400E+00 0.940E-01 ort(H,U,f) =-0.437E+00 0.413E+00-0.157E+00
CGA:  64    -0.222818048965E+03   -0.39092E-01   -0.28108E-01  5760   0.969E+00-0.181E+00
 gam= 0.768 trial= 0.153  step= 0.100 mean= 0.153
 gam= 1.122 g(H,U,f)=  0.527E+00 0.534E+00 0.266E-01 ort(H,U,f) =-0.242E+00 0.275E+00 0.614E-01
CGA:  65    -0.222862007932E+03   -0.43959E-01   -0.41417E-01  5760   0.109E+01 0.946E-01
 gam= 1.122 trial= 0.150  step= 0.120 mean= 0.150
 gam= 0.854 g(H,U,f)=  0.404E+00 0.459E+00 0.653E-01 ort(H,U,f) =-0.278E+00 0.238E+00 0.166E+00
CGA:  66    -0.222934004986E+03   -0.71997E-01   -0.71854E-01  5760   0.928E+00 0.126E+00
 gam= 0.854 trial= 0.149  step= 0.075 mean= 0.149
 gam= 0.646 g(H,U,f)=  0.285E+00 0.313E+00 0.185E-02 ort(H,U,f) =-0.133E+00 0.173E+00-0.159E-01
CGA:  67    -0.222973833802E+03   -0.39829E-01   -0.39100E-01  5760   0.599E+00 0.243E-01
 gam= 0.646 trial= 0.145  step= 0.091 mean= 0.145
 gam= 1.137 g(H,U,f)=  0.218E+00 0.409E+00 0.542E-01 ort(H,U,f) =-0.157E-01 0.111E+00-0.134E+00
CGA:  68    -0.223001479067E+03   -0.27645E-01   -0.27984E-01  5760   0.682E+00-0.389E-01
 gam= 1.137 trial= 0.142  step= 0.153 mean= 0.142
 gam= 1.342 g(H,U,f)=  0.275E+00 0.575E+00 0.645E-01 ort(H,U,f) =-0.234E+00 0.288E-02-0.529E-01
CGA:  69    -0.223048520719E+03   -0.47042E-01   -0.48678E-01  5760   0.915E+00-0.284E+00
 gam= 1.342 trial= 0.143  step= 0.093 mean= 0.143
 gam= 1.007 g(H,U,f)=  0.348E+00 0.536E+00 0.372E-01 ort(H,U,f) =-0.278E+00 0.112E+00 0.755E-01
CGA:  70    -0.223080814956E+03   -0.32294E-01   -0.24775E-01  5760   0.921E+00-0.904E-01
 gam= 1.007 trial= 0.140  step= 0.100 mean= 0.140
 gam= 0.865 g(H,U,f)=  0.331E+00 0.411E+00 0.556E-01 ort(H,U,f) =-0.103E+00 0.207E+00 0.125E+00
CGA:  71    -0.223120406300E+03   -0.39591E-01   -0.41575E-01  5760   0.797E+00 0.228E+00
 gam= 0.865 trial= 0.138  step= 0.122 mean= 0.138
 gam= 0.940 g(H,U,f)=  0.318E+00 0.406E+00 0.245E-01 ort(H,U,f) =-0.548E-02 0.135E+00 0.479E-01
CGA:  72    -0.223178936034E+03   -0.58530E-01   -0.60763E-01  5760   0.749E+00 0.177E+00
 gam= 0.940 trial= 0.137  step= 0.156 mean= 0.137
 gam= 0.845 g(H,U,f)=  0.299E+00 0.331E+00 0.297E-02 ort(H,U,f) =-0.177E+00 0.125E+00 0.680E-02
CGA:  73    -0.223249485393E+03   -0.70549E-01   -0.71620E-01  5760   0.633E+00-0.457E-01
 gam= 0.845 trial= 0.138  step= 0.107 mean= 0.138
 gam= 1.118 g(H,U,f)=  0.314E+00 0.392E+00 0.170E-02 ort(H,U,f) =-0.112E+00 0.135E+00 0.529E-02
CGA:  74    -0.223281462460E+03   -0.31977E-01   -0.31780E-01  5760   0.708E+00 0.280E-01
 gam= 1.118 trial= 0.137  step= 0.111 mean= 0.137
 gam= 1.242 g(H,U,f)=  0.355E+00 0.523E+00 0.202E-02 ort(H,U,f) =-0.139E+00 0.118E+00-0.592E-02
CGA:  75    -0.223323034684E+03   -0.41572E-01   -0.40891E-01  5760   0.880E+00-0.266E-01
 gam= 1.242 trial= 0.135  step= 0.085 mean= 0.135
 gam= 1.178 g(H,U,f)=  0.417E+00 0.614E+00 0.636E-02 ort(H,U,f) =-0.161E+00 0.165E+00-0.164E-01
CGA:  76    -0.223360135716E+03   -0.37101E-01   -0.35998E-01  5760   0.104E+01-0.118E-01
 gam= 1.178 trial= 0.133  step= 0.079 mean= 0.133
 gam= 1.054 g(H,U,f)=  0.461E+00 0.626E+00 0.568E-02 ort(H,U,f) =-0.169E+00 0.210E+00-0.116E-01
CGA:  77    -0.223399391675E+03   -0.39256E-01   -0.40247E-01  5760   0.109E+01 0.293E-01
 gam= 1.054 trial= 0.130  step= 0.086 mean= 0.130
 gam= 0.000 g(H,U,f)=  0.435E+00 0.526E+00 0.112E-02 ort(H,U,f) =-0.194E+00 0.229E+00-0.631E-03
SDA:  78    -0.223445395607E+03   -0.46004E-01   -0.48222E-01  5760   0.962E+00 0.349E-01
 gam= 0.000 trial= 0.128  step= 0.332 mean= 0.128
 gam= 0.671 g(H,U,f)=  0.223E+00 0.419E+00 0.372E-02 ort(H,U,f) =-0.562E-01-0.939E-01-0.262E-02
CGA:  79    -0.223574374086E+03   -0.12898E+00   -0.15985E+00  5760   0.646E+00-0.153E+00
 gam= 0.671 trial= 0.138  step= 0.440 mean= 0.138
 gam= 1.768 g(H,U,f)=  0.360E+00 0.742E+00 0.393E-01 ort(H,U,f) =-0.167E+00-0.980E-01-0.128E-01
CGA:  80    -0.223613491880E+03   -0.39118E-01   -0.11957E+00  5760   0.114E+01-0.278E+00
 gam= 1.768 trial= 0.153  step= 0.488 mean= 0.153
 gam= 0.000 g(H,U,f)=  0.880E+00 0.539E+00 0.592E-01 ort(H,U,f) =-0.633E+00-0.214E+00-0.398E-01
CGA:  81    -0.223601874852E+03    0.11617E-01   -0.15842E+00  5760   0.148E+01-0.886E+00
 gam= 0.000 trial= 0.170  step= 0.202 mean= 0.170
 gam= 0.407 g(H,U,f)=  0.281E+00 0.314E+00 0.748E-02 ort(H,U,f) = 0.253E+00-0.146E+00-0.687E-02
CGA:  82    -0.223746516306E+03   -0.14464E+00   -0.14925E+00  5760   0.602E+00 0.994E-01
 gam= 0.407 trial= 0.172  step= 0.286 mean= 0.172
 gam= 0.000 g(H,U,f)=  0.205E+00 0.576E+00 0.783E-03 ort(H,U,f) =-0.125E+00-0.306E+00-0.639E-03
CGA:  83    -0.223782813262E+03   -0.36297E-01   -0.91831E-01  5760   0.782E+00-0.433E+00
 gam= 0.000 trial= 0.177  step= 0.114 mean= 0.177
 gam= 0.169 g(H,U,f)=  0.498E-01 0.792E-01 0.291E-02 ort(H,U,f) = 0.704E-02-0.501E-01-0.887E-02
CGA:  84    -0.223841159609E+03   -0.58346E-01   -0.44441E-01  5760   0.132E+00-0.519E-01
 gam= 0.169 trial= 0.174  step= 0.349 mean= 0.174
 gam= 0.983 g(H,U,f)=  0.465E-01 0.831E-01 0.683E-04 ort(H,U,f) =-0.228E-01-0.280E-01-0.514E-04
CGA:  85    -0.223853826905E+03   -0.12667E-01   -0.21487E-01  5760   0.130E+00-0.508E-01
 gam= 0.983 trial= 0.183  step= 2.444 mean= 0.183
 gam= 0.983 trial= 1.189  step= 1.189 mean= 0.289
 gam= 0.000 g(H,U,f)=  0.351E+00 0.460E+00 0.476E-02 ort(H,U,f) =-0.769E-01-0.277E-01-0.705E-03
CGA:  86    -0.223799955099E+03    0.53872E-01   -0.46115E-01  5760   0.815E+00-0.105E+00
 gam= 0.000 trial= 0.334  step= 0.077 mean= 0.334
 gam= 0.000 g(H,U,f)=  0.126E+00 0.114E+00 0.356E-02 ort(H,U,f) = 0.197E+00 0.233E+00 0.835E-02
CGA:  87    -0.223866746763E+03   -0.66792E-01   -0.31213E-01  5760   0.243E+00 0.438E+00
 gam= 0.000 trial= 0.321  step= 0.116 mean= 0.321
 gam= 0.310 g(H,U,f)=  0.522E-01 0.232E-01 0.792E-04 ort(H,U,f) = 0.651E-01 0.204E-01-0.694E-03
CGA:  88    -0.223891155556E+03   -0.24409E-01   -0.14087E-01  5760   0.754E-01 0.847E-01
 gam= 0.310 trial= 0.311  step= 0.240 mean= 0.311
 gam= 1.073 g(H,U,f)=  0.326E-01 0.483E-01 0.530E-04 ort(H,U,f) = 0.201E-01 0.121E-03 0.506E-05
CGA:  89    -0.223903429992E+03   -0.12274E-01   -0.12210E-01  5760   0.809E-01 0.202E-01
 gam= 1.073 trial= 0.307  step= 0.160 mean= 0.307
 gam= 0.417 g(H,U,f)=  0.163E-01 0.174E-01 0.274E-04 ort(H,U,f) =-0.102E-01 0.103E-01-0.612E-04
CGA:  90    -0.223913456715E+03   -0.10027E-01   -0.82301E-02  5760   0.337E-01-0.259E-05
 gam= 0.417 trial= 0.300  step= 0.328 mean= 0.300
 gam= 1.283 g(H,U,f)=  0.171E-01 0.261E-01 0.415E-04 ort(H,U,f) =-0.107E-01 0.146E-01-0.805E-05
CGA:  91    -0.223919009385E+03   -0.55527E-02   -0.55323E-02  5760   0.433E-01 0.391E-02
 gam= 1.283 trial= 0.301  step= 0.226 mean= 0.301
 gam= 0.803 g(H,U,f)=  0.151E-01 0.196E-01 0.311E-05 ort(H,U,f) =-0.165E-01 0.191E-01-0.740E-05
CGA:  92    -0.223925675729E+03   -0.66663E-02   -0.54587E-02  5760   0.347E-01 0.261E-02
 gam= 0.803 trial= 0.297  step= 0.400 mean= 0.297
 gam= 0.967 g(H,U,f)=  0.206E-01 0.129E-01 0.598E-04 ort(H,U,f) =-0.178E-01 0.196E-01-0.264E-04
CGA:  93    -0.223933130809E+03   -0.74551E-02   -0.73596E-02  5760   0.336E-01 0.175E-02
 gam= 0.967 trial= 0.302  step= 0.428 mean= 0.302
 gam= 2.682 g(H,U,f)=  0.375E-01 0.525E-01 0.606E-04 ort(H,U,f) =-0.780E-02 0.133E-01 0.261E-04
CGA:  94    -0.223940134043E+03   -0.70032E-02   -0.75449E-02  5760   0.901E-01 0.556E-02
 gam= 2.682 trial= 0.309  step= 0.422 mean= 0.309
 gam= 0.781 g(H,U,f)=  0.452E-01 0.253E-01 0.849E-05 ort(H,U,f) =-0.304E-01 0.167E-01 0.201E-04
CGA:  95    -0.223960885412E+03   -0.20751E-01   -0.22145E-01  5760   0.704E-01-0.136E-01
 gam= 0.781 trial= 0.314  step= 0.289 mean= 0.314
 gam= 0.419 g(H,U,f)=  0.211E-01 0.842E-02 0.241E-05 ort(H,U,f) = 0.298E-03-0.233E-02 0.317E-05
CGA:  96    -0.223969552297E+03   -0.86669E-02   -0.86232E-02  5760   0.295E-01-0.203E-02
 gam= 0.419 trial= 0.313  step= 0.301 mean= 0.313
 gam= 0.935 g(H,U,f)=  0.131E-01 0.145E-01 0.122E-04 ort(H,U,f) = 0.675E-02-0.496E-02-0.474E-05
CGA:  97    -0.223973875139E+03   -0.43228E-02   -0.43120E-02  5760   0.276E-01 0.179E-02
 gam= 0.935 trial= 0.312  step= 0.269 mean= 0.312
 gam= 0.608 g(H,U,f)=  0.739E-02 0.935E-02 0.735E-05 ort(H,U,f) =-0.382E-03 0.776E-03-0.464E-05
CGA:  98    -0.223977923291E+03   -0.40482E-02   -0.39386E-02  5760   0.168E-01 0.389E-03
 gam= 0.608 trial= 0.310  step= 0.319 mean= 0.310
 gam= 0.666 g(H,U,f)=  0.449E-02 0.666E-02 0.208E-05 ort(H,U,f) =-0.226E-02 0.978E-03-0.132E-06
CGA:  99    -0.223980615235E+03   -0.26919E-02   -0.27140E-02  5760   0.112E-01-0.128E-02
 gam= 0.666 trial= 0.311  step= 0.374 mean= 0.311
 gam= 1.000 g(H,U,f)=  0.505E-02 0.611E-02 0.291E-05 ort(H,U,f) =-0.343E-02 0.324E-02 0.210E-05
CGA: 100    -0.223982527370E+03   -0.19121E-02   -0.19294E-02  5760   0.112E-01-0.189E-03
 gam= 1.000 trial= 0.314  step= 0.426 mean= 0.314
 gam= 1.179 g(H,U,f)=  0.738E-02 0.577E-02 0.226E-05 ort(H,U,f) =-0.505E-02 0.510E-02-0.153E-05
CGA: 101    -0.223984829897E+03   -0.23025E-02   -0.23363E-02  5760   0.131E-01 0.548E-04
 gam= 1.179 trial= 0.320  step= 0.674 mean= 0.320
 gam= 1.653 g(H,U,f)=  0.125E-01 0.924E-02 0.123E-04 ort(H,U,f) =-0.646E-02 0.520E-02-0.469E-05
CGA: 102    -0.223988757510E+03   -0.39276E-02   -0.44562E-02  5760   0.217E-01-0.126E-02
 gam= 1.653 trial= 0.337  step= 0.300 mean= 0.337
 gam= 0.896 g(H,U,f)=  0.134E-01 0.609E-02 0.109E-04 ort(H,U,f) =-0.713E-02 0.713E-02-0.889E-05
CGA: 103    -0.223991731992E+03   -0.29745E-02   -0.29487E-02  5760   0.195E-01-0.108E-04
 gam= 0.896 trial= 0.335  step= 0.338 mean= 0.335
 gam= 0.873 g(H,U,f)=  0.110E-01 0.599E-02 0.233E-04 ort(H,U,f) =-0.227E-02 0.213E-02-0.478E-05
CGA: 104    -0.223995019876E+03   -0.32879E-02   -0.32909E-02  5760   0.170E-01-0.145E-03
 gam= 0.873 trial= 0.336  step= 0.463 mean= 0.336
 gam= 0.908 g(H,U,f)=  0.802E-02 0.741E-02 0.820E-05 ort(H,U,f) =-0.165E-02 0.730E-03 0.676E-05
CGA: 105    -0.223998814177E+03   -0.37943E-02   -0.39070E-02  5760   0.154E-01-0.914E-03
 gam= 0.908 trial= 0.342  step= 0.331 mean= 0.342
 gam= 0.696 g(H,U,f)=  0.568E-02 0.507E-02 0.337E-05 ort(H,U,f) =-0.209E-02 0.206E-02 0.132E-04
CGA: 106    -0.224001234246E+03   -0.24201E-02   -0.24200E-02  5760   0.107E-01-0.150E-04
 gam= 0.696 trial= 0.341  step= 0.414 mean= 0.341
 gam= 0.987 g(H,U,f)=  0.522E-02 0.538E-02 0.248E-05 ort(H,U,f) =-0.231E-02 0.223E-02-0.249E-05
CGA: 107    -0.224003451892E+03   -0.22176E-02   -0.22205E-02  5760   0.106E-01-0.860E-04
 gam= 0.987 trial= 0.345  step= 0.430 mean= 0.345
 gam= 1.051 g(H,U,f)=  0.592E-02 0.521E-02 0.127E-04 ort(H,U,f) =-0.370E-02 0.369E-02-0.266E-04
CGA: 108    -0.224005704346E+03   -0.22525E-02   -0.22619E-02  5760   0.111E-01-0.298E-04
 gam= 1.051 trial= 0.349  step= 0.482 mean= 0.349
 gam= 1.139 g(H,U,f)=  0.761E-02 0.508E-02 0.349E-05 ort(H,U,f) =-0.455E-02 0.449E-02-0.107E-04
CGA: 109    -0.224008376174E+03   -0.26718E-02   -0.26788E-02  5760   0.127E-01-0.771E-04
 gam= 1.139 trial= 0.356  step= 0.374 mean= 0.356
 gam= 0.756 g(H,U,f)=  0.675E-02 0.285E-02 0.287E-05 ort(H,U,f) =-0.356E-02 0.358E-02 0.135E-06
CGA: 110    -0.224010736508E+03   -0.23603E-02   -0.23601E-02  5760   0.959E-02 0.221E-04
 gam= 0.756 trial= 0.357  step= 0.402 mean= 0.357
 gam= 0.905 g(H,U,f)=  0.559E-02 0.309E-02 0.566E-05 ort(H,U,f) =-0.605E-03 0.647E-03 0.858E-05
CGA: 111    -0.224012670991E+03   -0.19345E-02   -0.19330E-02  5760   0.868E-02 0.510E-04
 gam= 0.905 trial= 0.359  step= 0.389 mean= 0.359
 gam= 0.654 g(H,U,f)=  0.350E-02 0.218E-02 0.216E-05 ort(H,U,f) =-0.149E-04 0.237E-04 0.638E-05
CGA: 112    -0.224014366638E+03   -0.16956E-02   -0.16980E-02  5760   0.568E-02 0.151E-04
 gam= 0.654 trial= 0.361  step= 0.319 mean= 0.361
 gam= 0.608 g(H,U,f)=  0.208E-02 0.137E-02 0.110E-06 ort(H,U,f) = 0.326E-03-0.333E-03-0.331E-07
CGA: 113    -0.224015277631E+03   -0.91099E-03   -0.90714E-03  5760   0.345E-02-0.688E-05
 gam= 0.608 trial= 0.359  step= 0.334 mean= 0.359
 gam= 0.810 g(H,U,f)=  0.130E-02 0.149E-02 0.116E-05 ort(H,U,f) = 0.140E-03-0.896E-04-0.269E-05
CGA: 114    -0.224015855221E+03   -0.57759E-03   -0.57632E-03  5760   0.280E-02 0.473E-04
 gam= 0.810 trial= 0.357  step= 0.319 mean= 0.357
 gam= 0.766 g(H,U,f)=  0.996E-03 0.114E-02 0.624E-06 ort(H,U,f) =-0.314E-03 0.377E-03-0.796E-06
CGA: 115    -0.224016312590E+03   -0.45737E-03   -0.45190E-03  5760   0.214E-02 0.615E-04
 gam= 0.766 trial= 0.355  step= 0.380 mean= 0.355
 gam= 0.997 g(H,U,f)=  0.107E-02 0.107E-02 0.194E-06 ort(H,U,f) =-0.602E-03 0.580E-03-0.598E-07
CGA: 116    -0.224016724865E+03   -0.41227E-03   -0.41616E-03  5760   0.213E-02-0.223E-04
 gam= 0.997 trial= 0.357  step= 0.362 mean= 0.357
 gam= 0.896 g(H,U,f)=  0.107E-02 0.840E-03 0.103E-05 ort(H,U,f) =-0.783E-03 0.745E-03 0.207E-06
CGA: 117    -0.224017106120E+03   -0.38126E-03   -0.38189E-03  5760   0.191E-02-0.376E-04
 gam= 0.896 trial= 0.357  step= 0.396 mean= 0.357
 gam= 0.000 g(H,U,f)=  0.120E-02 0.897E-03 0.252E-06 ort(H,U,f) =-0.623E-03 0.597E-03 0.406E-06
SDA: 118    -0.224017475342E+03   -0.36922E-03   -0.37192E-03  5760   0.209E-02-0.255E-04
 gam= 0.000 trial= 0.359  step= 0.361 mean= 0.359
 gam= 0.744 g(H,U,f)=  0.528E-03 0.103E-02 0.872E-06 ort(H,U,f) = 0.362E-03-0.209E-03-0.168E-06
CGA: 119    -0.224017852798E+03   -0.37746E-03   -0.37760E-03  5760   0.156E-02 0.153E-03
 gam= 0.744 trial= 0.359  step= 0.225 mean= 0.359
 gam= 0.639 g(H,U,f)=  0.372E-03 0.623E-03 0.507E-06 ort(H,U,f) = 0.190E-03 0.726E-04-0.598E-06
CGA: 120    -0.224018086448E+03   -0.23365E-03   -0.18828E-03  5760   0.995E-03 0.262E-03
 gam= 0.639 trial= 0.352  step= 0.561 mean= 0.352
 gam= 1.064 g(H,U,f)=  0.440E-03 0.618E-03 0.431E-06 ort(H,U,f) =-0.313E-03 0.136E-03-0.133E-06
CGA: 121    -0.224018368113E+03   -0.28166E-03   -0.32603E-03  5760   0.106E-02-0.177E-03
 gam= 1.064 trial= 0.363  step= 0.404 mean= 0.363
 gam= 0.953 g(H,U,f)=  0.479E-03 0.528E-03 0.803E-06 ort(H,U,f) =-0.356E-03 0.346E-03-0.377E-06
CGA: 122    -0.224018535740E+03   -0.16763E-03   -0.17574E-03  5760   0.101E-02-0.104E-04
 gam= 0.953 trial= 0.365  step= 0.253 mean= 0.365
 gam= 0.721 g(H,U,f)=  0.382E-03 0.345E-03 0.226E-06 ort(H,U,f) =-0.205E-03 0.231E-03-0.203E-06
CGA: 123    -0.224018680217E+03   -0.14448E-03   -0.12657E-03  5760   0.727E-03 0.259E-04
 gam= 0.721 trial= 0.359  step= 0.551 mean= 0.359
 gam= 1.139 g(H,U,f)=  0.404E-03 0.424E-03 0.125E-06 ort(H,U,f) =-0.149E-03 0.108E-03-0.516E-07
CGA: 124    -0.224018877391E+03   -0.19717E-03   -0.20545E-03  5760   0.829E-03-0.411E-04
 gam= 1.139 trial= 0.369  step= 0.462 mean= 0.369
 gam= 0.579 g(H,U,f)=  0.340E-03 0.139E-03 0.183E-06 ort(H,U,f) =-0.188E-03 0.181E-03-0.243E-07
CGA: 125    -0.224019055787E+03   -0.17840E-03   -0.18061E-03  5760   0.480E-03-0.754E-05
 gam= 0.579 trial= 0.373  step= 0.464 mean= 0.373
 gam= 1.260 g(H,U,f)=  0.268E-03 0.335E-03 0.120E-05 ort(H,U,f) =-0.227E-06 0.375E-04-0.434E-06
CGA: 126    -0.224019161858E+03   -0.10607E-03   -0.11030E-03  5760   0.604E-03 0.368E-04
 gam= 1.260 trial= 0.378  step= 0.261 mean= 0.378
 gam= 0.701 g(H,U,f)=  0.182E-03 0.241E-03 0.471E-06 ort(H,U,f) =-0.343E-06 0.463E-04-0.444E-06
CGA: 127    -0.224019261385E+03   -0.99527E-04   -0.85032E-04  5760   0.424E-03 0.455E-04
 gam= 0.701 trial= 0.372  step= 0.365 mean= 0.372
 gam= 0.714 g(H,U,f)=  0.133E-03 0.169E-03 0.112E-06 ort(H,U,f) =-0.742E-04 0.569E-04-0.894E-07
CGA: 128    -0.224019344799E+03   -0.83414E-04   -0.83174E-04  5760   0.302E-03-0.174E-04
 gam= 0.714 trial= 0.372  step= 0.450 mean= 0.372
 gam= 0.650 g(H,U,f)=  0.115E-03 0.817E-04 0.902E-07 ort(H,U,f) =-0.874E-04 0.849E-04-0.251E-07
CGA: 129    -0.224019409491E+03   -0.64692E-04   -0.65279E-04  5760   0.197E-03-0.248E-05
 gam= 0.650 trial= 0.376  step= 0.630 mean= 0.376
 gam= 1.403 g(H,U,f)=  0.131E-03 0.144E-03 0.743E-06 ort(H,U,f) =-0.568E-04 0.604E-04-0.105E-06
CGA: 130    -0.224019468224E+03   -0.58733E-04   -0.61496E-04  5760   0.276E-03 0.347E-05
 gam= 1.403 trial= 0.388  step= 0.300 mean= 0.388
 gam= 1.025 g(H,U,f)=  0.141E-03 0.140E-03 0.103E-05 ort(H,U,f) =-0.608E-04 0.937E-04-0.629E-06
CGA: 131    -0.224019514292E+03   -0.46068E-04   -0.42117E-04  5760   0.283E-03 0.322E-04
 gam= 1.025 trial= 0.384  step= 0.399 mean= 0.384
 gam= 0.882 g(H,U,f)=  0.119E-03 0.130E-03 0.537E-06 ort(H,U,f) =-0.756E-04 0.561E-04-0.206E-06
CGA: 132    -0.224019576644E+03   -0.62353E-04   -0.62960E-04  5760   0.250E-03-0.196E-04
 gam= 0.882 trial= 0.385  step= 0.438 mean= 0.385
 gam= 0.994 g(H,U,f)=  0.136E-03 0.112E-03 0.449E-06 ort(H,U,f) =-0.470E-04 0.395E-04-0.298E-06
CGA: 133    -0.224019626559E+03   -0.49915E-04   -0.50903E-04  5760   0.248E-03-0.779E-05
 gam= 0.994 trial= 0.387  step= 0.419 mean= 0.387
 gam= 0.842 g(H,U,f)=  0.104E-03 0.103E-03 0.160E-05 ort(H,U,f) =-0.289E-04 0.322E-04-0.281E-06
CGA: 134    -0.224019676506E+03   -0.49947E-04   -0.50392E-04  5760   0.209E-03 0.301E-05
 gam= 0.842 trial= 0.389  step= 0.288 mean= 0.389
 gam= 0.706 g(H,U,f)=  0.650E-04 0.807E-04 0.169E-05 ort(H,U,f) =-0.280E-05 0.235E-04-0.143E-05
CGA: 135    -0.224019710151E+03   -0.33645E-04   -0.30423E-04  5760   0.147E-03 0.193E-04
 gam= 0.706 trial= 0.384  step= 0.376 mean= 0.384
 gam= 0.987 g(H,U,f)=  0.604E-04 0.836E-04 0.140E-05 ort(H,U,f) =-0.255E-04 0.204E-04-0.573E-06
CGA: 136    -0.224019740620E+03   -0.30469E-04   -0.30255E-04  5760   0.145E-03-0.571E-05
 gam= 0.987 trial= 0.384  step= 0.340 mean= 0.384
 gam= 0.926 g(H,U,f)=  0.650E-04 0.690E-04 0.725E-06 ort(H,U,f) =-0.343E-04 0.331E-04-0.525E-06
CGA: 137    -0.224019764877E+03   -0.24257E-04   -0.23780E-04  5760   0.135E-03-0.177E-05
 gam= 0.926 trial= 0.381  step= 0.559 mean= 0.381
 gam= 0.939 g(H,U,f)=  0.667E-04 0.598E-04 0.589E-08 ort(H,U,f) =-0.509E-04 0.453E-04-0.475E-07
CGA: 138    -0.224019800373E+03   -0.35497E-04   -0.37198E-04  5760   0.126E-03-0.556E-05
 gam= 0.939 trial= 0.390  step= 0.421 mean= 0.390
 gam= 1.148 g(H,U,f)=  0.850E-04 0.602E-04 0.346E-07 ort(H,U,f) =-0.404E-04 0.434E-04-0.884E-08
CGA: 139    -0.224019825612E+03   -0.25239E-04   -0.25518E-04  5760   0.145E-03 0.294E-05
 gam= 1.148 trial= 0.392  step= 0.419 mean= 0.392
 gam= 1.234 g(H,U,f)=  0.781E-04 0.101E-03 0.211E-07 ort(H,U,f) =-0.225E-04 0.284E-04 0.365E-07
CGA: 140    -0.224019856162E+03   -0.30550E-04   -0.31128E-04  5760   0.179E-03 0.590E-05
 gam= 1.234 trial= 0.393  step= 0.281 mean= 0.393
 gam= 0.638 g(H,U,f)=  0.668E-04 0.475E-04 0.498E-07 ort(H,U,f) =-0.244E-04 0.242E-04 0.231E-06
CGA: 141    -0.224019884982E+03   -0.28820E-04   -0.26192E-04  5760   0.114E-03 0.956E-08
 gam= 0.638 trial= 0.388  step= 0.421 mean= 0.388
 gam= 0.614 g(H,U,f)=  0.445E-04 0.257E-04 0.181E-07 ort(H,U,f) =-0.171E-04 0.161E-04 0.993E-07
CGA: 142    -0.224019908931E+03   -0.23949E-04   -0.24050E-04  5760   0.702E-04-0.892E-06
 gam= 0.614 trial= 0.389  step= 0.427 mean= 0.389
 gam= 0.806 g(H,U,f)=  0.282E-04 0.284E-04 0.474E-08 ort(H,U,f) =-0.115E-05 0.877E-06-0.166E-08
CGA: 143    -0.224019923664E+03   -0.14733E-04   -0.14881E-04  5760   0.566E-04-0.274E-06
 gam= 0.806 trial= 0.391  step= 0.399 mean= 0.391
 gam= 0.834 g(H,U,f)=  0.218E-04 0.254E-04 0.819E-08 ort(H,U,f) =-0.756E-05 0.826E-05-0.235E-07
CGA: 144    -0.224019934884E+03   -0.11221E-04   -0.11257E-04  5760   0.472E-04 0.685E-06
 gam= 0.834 trial= 0.391  step= 0.244 mean= 0.391
 gam= 0.669 g(H,U,f)=  0.131E-04 0.184E-04 0.176E-08 ort(H,U,f) =-0.287E-05 0.660E-05 0.125E-07
CGA: 145    -0.224019941518E+03   -0.66334E-05   -0.58153E-05  5760   0.315E-04 0.375E-05
 gam= 0.669 trial= 0.384  step= 0.422 mean= 0.384
 gam= 0.917 g(H,U,f)=  0.140E-04 0.149E-04 0.836E-08 ort(H,U,f) =-0.685E-05 0.548E-05 0.255E-07
CGA: 146    -0.224019948605E+03   -0.70873E-05   -0.71771E-05  5760   0.289E-04-0.134E-05
 gam= 0.917 trial= 0.386  step= 0.590 mean= 0.386
 gam= 1.107 g(H,U,f)=  0.183E-04 0.137E-04 0.167E-07 ort(H,U,f) =-0.124E-04 0.119E-04 0.400E-07
CGA: 147    -0.224019956673E+03   -0.80679E-05   -0.81661E-05  5760   0.320E-04-0.406E-06
 gam= 1.107 trial= 0.396  step= 0.479 mean= 0.396
 gam= 1.206 g(H,U,f)=  0.234E-04 0.152E-04 0.576E-08 ort(H,U,f) =-0.115E-04 0.120E-04 0.262E-07
CGA: 148    -0.224019964105E+03   -0.74316E-05   -0.75597E-05  5760   0.386E-04 0.608E-06
 gam= 1.206 trial= 0.400  step= 0.521 mean= 0.400
 gam= 0.000 g(H,U,f)=  0.277E-04 0.353E-04 0.986E-08 ort(H,U,f) =-0.119E-04 0.125E-04-0.835E-08
SDA: 149    -0.224019973656E+03   -0.95510E-05   -0.10250E-04  5760   0.629E-04 0.577E-06
 gam= 0.000 trial= 0.406  step= 0.123 mean= 0.406
 gam= 0.321 g(H,U,f)=  0.133E-04 0.691E-05 0.156E-08 ort(H,U,f) = 0.154E-04 0.242E-05 0.177E-08
CGA: 150    -0.224019979680E+03   -0.60241E-05   -0.38627E-05  5760   0.202E-04 0.178E-04
 gam= 0.321 trial= 0.392  step= 0.391 mean= 0.392
 gam= 1.191 g(H,U,f)=  0.668E-05 0.174E-04 0.322E-08 ort(H,U,f) = 0.257E-05-0.143E-05 0.292E-09
CGA: 151    -0.224019984754E+03   -0.50747E-05   -0.50749E-05  5760   0.241E-04 0.114E-05
 gam= 1.191 trial= 0.392  step= 0.180 mean= 0.392
 gam= 0.688 g(H,U,f)=  0.631E-05 0.103E-04 0.115E-07 ort(H,U,f) =-0.824E-06 0.523E-05 0.542E-08
CGA: 152    -0.224019987712E+03   -0.29578E-05   -0.22941E-05  5760   0.166E-04 0.441E-05
 gam= 0.688 trial= 0.382  step= 0.302 mean= 0.382
 gam= 0.922 g(H,U,f)=  0.529E-05 0.997E-05 0.119E-07 ort(H,U,f) =-0.323E-05 0.359E-05 0.133E-07
CGA: 153    -0.224019990656E+03   -0.29434E-05   -0.29575E-05  5760   0.153E-04 0.371E-06
 gam= 0.922 trial= 0.378  step= 0.186 mean= 0.378
 gam= 0.861 g(H,U,f)=  0.563E-05 0.752E-05 0.660E-08 ort(H,U,f) =-0.277E-05 0.552E-05 0.119E-07
CGA: 154    -0.224019992350E+03   -0.16948E-05   -0.14554E-05  5760   0.132E-04 0.276E-05
 gam= 0.861 trial= 0.368  step= 0.341 mean= 0.368
 gam= 1.000 g(H,U,f)=  0.488E-05 0.827E-05 0.119E-08 ort(H,U,f) =-0.409E-05 0.352E-05-0.177E-08
CGA: 155    -0.224019995004E+03   -0.26541E-05   -0.26447E-05  5760   0.131E-04-0.576E-06
 gam= 1.000 trial= 0.367  step= 0.188 mean= 0.367
 gam= 0.871 g(H,U,f)=  0.508E-05 0.636E-05 0.136E-08 ort(H,U,f) =-0.336E-05 0.623E-05-0.250E-08
CGA: 156    -0.224019996402E+03   -0.13971E-05   -0.11808E-05  5760   0.114E-04 0.287E-05
 gam= 0.871 trial= 0.358  step= 0.440 mean= 0.358
 gam= 1.486 g(H,U,f)=  0.703E-05 0.998E-05 0.894E-09 ort(H,U,f) =-0.389E-05 0.310E-05 0.367E-08
CGA: 157    -0.224019999435E+03   -0.30336E-05   -0.30711E-05  5760   0.170E-04-0.785E-06
 gam= 1.486 trial= 0.362  step= 0.241 mean= 0.362
 gam= 1.080 g(H,U,f)=  0.779E-05 0.106E-04 0.604E-08 ort(H,U,f) =-0.384E-05 0.742E-05 0.110E-07
CGA: 158    -0.224020001508E+03   -0.20731E-05   -0.19059E-05  5760   0.184E-04 0.360E-05
 gam= 1.080 trial= 0.356  step= 0.344 mean= 0.356
 gam= 0.757 g(H,U,f)=  0.814E-05 0.576E-05 0.118E-07 ort(H,U,f) =-0.710E-05 0.503E-05 0.385E-07
CGA: 159    -0.224020005358E+03   -0.38493E-05   -0.38291E-05  5760   0.139E-04-0.203E-05
 gam= 0.757 trial= 0.355  step= 0.438 mean= 0.355
 gam= 1.673 g(H,U,f)=  0.103E-04 0.129E-04 0.147E-07 ort(H,U,f) =-0.138E-05 0.369E-05 0.430E-07
CGA: 160    -0.224020008018E+03   -0.26603E-05   -0.27078E-05  5760   0.233E-04 0.235E-05
 gam= 1.673 trial= 0.359  step= 0.285 mean= 0.359
 gam= 0.600 g(H,U,f)=  0.673E-05 0.724E-05 0.471E-08 ort(H,U,f) =-0.287E-05 0.285E-05 0.441E-07
CGA: 161    -0.224020012271E+03   -0.42527E-05   -0.38778E-05  5760   0.140E-04 0.275E-07
 gam= 0.600 trial= 0.356  step= 0.437 mean= 0.356
 gam= 1.031 g(H,U,f)=  0.566E-05 0.874E-05 0.869E-09 ort(H,U,f) =-0.195E-05 0.623E-06 0.863E-08
CGA: 162    -0.224020015145E+03   -0.28745E-05   -0.30593E-05  5760   0.144E-04-0.132E-05
 gam= 1.031 trial= 0.360  step= 0.289 mean= 0.360
 gam= 0.608 g(H,U,f)=  0.478E-05 0.397E-05 0.987E-09 ort(H,U,f) =-0.185E-05 0.185E-05-0.496E-08
CGA: 163    -0.224020017116E+03   -0.19714E-05   -0.18834E-05  5760   0.875E-05-0.131E-07
 gam= 0.608 trial= 0.356  step= 0.563 mean= 0.356
 gam= 1.260 g(H,U,f)=  0.478E-05 0.625E-05 0.191E-08 ort(H,U,f) =-0.122E-05 0.669E-06 0.112E-07
CGA: 164    -0.224020019372E+03   -0.22561E-05   -0.24604E-05  5760   0.110E-04-0.543E-06
 gam= 1.260 trial= 0.366  step= 0.299 mean= 0.366
 gam= 0.599 g(H,U,f)=  0.335E-05 0.326E-05 0.295E-08 ort(H,U,f) =-0.181E-05 0.217E-05 0.223E-07
CGA: 165    -0.224020020973E+03   -0.16005E-05   -0.15458E-05  5760   0.661E-05 0.390E-06
 gam= 0.599 trial= 0.363  step= 0.326 mean= 0.363
 gam= 0.933 g(H,U,f)=  0.264E-05 0.353E-05 0.294E-08 ort(H,U,f) =-0.928E-06 0.988E-06 0.148E-07
CGA: 166    -0.224020022110E+03   -0.11374E-05   -0.11169E-05  5760   0.617E-05 0.742E-07
 gam= 0.933 trial= 0.361  step= 0.465 mean= 0.361
 gam= 1.188 g(H,U,f)=  0.345E-05 0.387E-05 0.230E-09 ort(H,U,f) =-0.164E-05 0.160E-05 0.268E-08
CGA: 167    -0.224020023541E+03   -0.14301E-05   -0.14507E-05  5760   0.733E-05-0.353E-07
 gam= 1.188 trial= 0.366  step= 0.434 mean= 0.366
 gam= 0.845 g(H,U,f)=  0.335E-05 0.284E-05 0.647E-09 ort(H,U,f) =-0.238E-05 0.226E-05-0.466E-08
CGA: 168    -0.224020025102E+03   -0.15616E-05   -0.15805E-05  5760   0.619E-05-0.121E-06
 gam= 0.845 trial= 0.370  step= 0.422 mean= 0.370
 gam= 1.080 g(H,U,f)=  0.348E-05 0.320E-05 0.809E-09 ort(H,U,f) =-0.121E-05 0.139E-05 0.130E-08
CGA: 169    -0.224020026375E+03   -0.12729E-05   -0.12849E-05  5760   0.668E-05 0.176E-06
 gam= 1.080 trial= 0.372  step= 0.432 mean= 0.372
 gam= 1.041 g(H,U,f)=  0.303E-05 0.392E-05 0.251E-08 ort(H,U,f) =-0.139E-05 0.148E-05 0.169E-07
CGA: 170    -0.224020027837E+03   -0.14619E-05   -0.14862E-05  5760   0.695E-05 0.112E-06
 gam= 1.041 trial= 0.375  step= 0.307 mean= 0.375
 gam= 0.895 g(H,U,f)=  0.299E-05 0.323E-05 0.311E-08 ort(H,U,f) =-0.103E-05 0.119E-05 0.230E-07
CGA: 171    -0.224020028960E+03   -0.11232E-05   -0.10856E-05  5760   0.622E-05 0.187E-06
 gam= 0.895 trial= 0.372  step= 0.462 mean= 0.372
 gam= 0.993 g(H,U,f)=  0.303E-05 0.315E-05 0.238E-08 ort(H,U,f) =-0.175E-05 0.122E-05 0.199E-07
CGA: 172    -0.224020030390E+03   -0.14301E-05   -0.14771E-05  5760   0.618E-05-0.506E-06
 gam= 0.993 trial= 0.377  step= 0.404 mean= 0.377
 gam= 0.958 g(H,U,f)=  0.315E-05 0.276E-05 0.469E-09 ort(H,U,f) =-0.143E-05 0.120E-05 0.508E-08
CGA: 173    -0.224020031523E+03   -0.11332E-05   -0.11464E-05  5760   0.592E-05-0.225E-06
 gam= 0.958 trial= 0.378  step= 0.487 mean= 0.378
 gam= 1.091 g(H,U,f)=  0.290E-05 0.355E-05 0.312E-09 ort(H,U,f) =-0.130E-05 0.984E-06-0.536E-08
CGA: 174    -0.224020032865E+03   -0.13419E-05   -0.13874E-05  5760   0.646E-05-0.323E-06
 gam= 1.091 trial= 0.383  step= 0.319 mean= 0.383
 gam= 0.858 g(H,U,f)=  0.240E-05 0.313E-05 0.388E-09 ort(H,U,f) =-0.109E-05 0.114E-05-0.414E-08
CGA: 175    -0.224020033858E+03   -0.99227E-06   -0.97234E-06  5760   0.554E-05 0.466E-07
 gam= 0.858 trial= 0.380  step= 0.420 mean= 0.380
 gam= 0.905 g(H,U,f)=  0.245E-05 0.255E-05 0.188E-08 ort(H,U,f) =-0.144E-05 0.110E-05 0.157E-07
CGA: 176    -0.224020035006E+03   -0.11481E-05   -0.11700E-05  5760   0.501E-05-0.324E-06
 gam= 0.905 trial= 0.382  step= 0.388 mean= 0.382
 gam= 1.065 g(H,U,f)=  0.264E-05 0.269E-05 0.273E-08 ort(H,U,f) =-0.888E-06 0.934E-06 0.202E-07
CGA: 177    -0.224020035918E+03   -0.91242E-06   -0.91484E-06  5760   0.533E-05 0.656E-07
 gam= 1.065 trial= 0.382  step= 0.431 mean= 0.382
 gam= 0.903 g(H,U,f)=  0.208E-05 0.273E-05 0.136E-08 ort(H,U,f) =-0.109E-05 0.101E-05 0.162E-07
CGA: 178    -0.224020037059E+03   -0.11410E-05   -0.11636E-05  5760   0.481E-05-0.629E-07
 gam= 0.903 trial= 0.385  step= 0.279 mean= 0.385
 gam= 0.722 g(H,U,f)=  0.185E-05 0.163E-05 0.118E-09 ort(H,U,f) =-0.551E-06 0.802E-06 0.316E-09
CGA: 179    -0.224020037734E+03   -0.67517E-06   -0.66266E-06  5760   0.348E-05 0.252E-06
 gam= 0.722 trial= 0.379  step= 0.524 mean= 0.379
 final diagonalization
   1 F= -.23310543E+03 E0= -.23310221E+03  d E =-.643276E-02  mag=     6.0000
