       N       E                     dE             d eps       ncg     rms          ort
DAV:   1     0.349074880312E+04    0.34907E+04   -0.13959E+05  5760   0.218E+03
DAV:   2     0.411609600286E+03   -0.30791E+04   -0.28373E+04  5760   0.532E+02
DAV:   3    -0.220027793003E+03   -0.63164E+03   -0.57795E+03  5760   0.254E+02
DAV:   4    -0.270879964669E+03   -0.50852E+02   -0.49752E+02  5760   0.742E+01
DAV:   5    -0.272623690317E+03   -0.17437E+01   -0.17405E+01  5760   0.138E+01
SDA:   6     0.109734464231E+03    0.38236E+03   -0.17405E+01  5760   0.508E+04 0.000E+00
CGA:   7     0.146807280975E+02   -0.95054E+02   -0.19353E+03  5760   0.227E+04 0.133E+04
CGA:   8    -0.601891246505E+02   -0.74870E+02   -0.58333E+02  5760   0.710E+04 0.445E+04
CGA:   9    -0.632990263452E+02   -0.31099E+01   -0.22014E+03  5760   0.768E+04-0.266E+04
CGA:  10    -0.141646604113E+03   -0.78348E+02   -0.16661E+03  5760   0.379E+04-0.196E+04
CGA:  11    -0.163003357874E+03   -0.21357E+02   -0.96030E+02  5760   0.221E+04-0.125E+04
CGA:  12    -0.188016116339E+03   -0.25013E+02   -0.13251E+02  5760   0.173E+04 0.229E+04
CGA:  13    -0.200106998838E+03   -0.12091E+02   -0.35460E+02  5760   0.645E+03-0.823E+03
CGA:  14    -0.210228979478E+03   -0.10122E+02   -0.13667E+02  5760   0.209E+03-0.135E+03
CGA:  15    -0.211675006868E+03   -0.14460E+01   -0.59603E+01  5760   0.205E+03-0.979E+02
CGA:  16    -0.215998403069E+03   -0.43234E+01   -0.57015E+01  5760   0.721E+02-0.230E+02
CGA:  17    -0.217067580321E+03   -0.10692E+01   -0.20239E+01  5760   0.547E+02-0.288E+02
CGA:  18    -0.219221121236E+03   -0.21535E+01   -0.25272E+01  5760   0.249E+02-0.898E+00
CGA:  19    -0.219834363205E+03   -0.61324E+00   -0.80617E+00  5760   0.979E+01-0.532E+01
CGA:  20    -0.220267430097E+03   -0.43307E+00   -0.48506E+00  5760   0.607E+01-0.318E+00
CGA:  21    -0.220547764832E+03   -0.28033E+00   -0.30135E+00  5760   0.504E+01-0.289E+00
CGA:  22    -0.220890633075E+03   -0.34287E+00   -0.36325E+00  5760   0.450E+01 0.344E-01
CGA:  23    -0.221084692698E+03   -0.19406E+00   -0.20734E+00  5760   0.214E+01-0.221E+00
CGA:  24    -0.221250778781E+03   -0.16609E+00   -0.17357E+00  5760   0.204E+01 0.786E-01
CGA:  25    -0.221396031289E+03   -0.14525E+00   -0.14928E+00  5760   0.211E+01 0.604E-02
CGA:  26    -0.221668520581E+03   -0.27249E+00   -0.26297E+00  5760   0.289E+01 0.323E+00
CGA:  27    -0.221918115091E+03   -0.24959E+00   -0.27427E+00  5760   0.357E+01 0.159E+00
CGA:  28    -0.222305232187E+03   -0.38712E+00   -0.38795E+00  5760   0.159E+01 0.113E+00
CGA:  29    -0.222793793004E+03   -0.48856E+00   -0.43324E+00  5760   0.144E+01 0.325E+00
CGA:  30    -0.223124250448E+03   -0.33046E+00   -0.34690E+00  5760   0.201E+01-0.196E+00
CGA:  31    -0.223318518129E+03   -0.19427E+00   -0.19542E+00  5760   0.114E+01 0.848E-01
CGA:  32    -0.223463764764E+03   -0.14525E+00   -0.14525E+00  5760   0.972E+00-0.719E-02
CGA:  33    -0.223589299496E+03   -0.12553E+00   -0.12333E+00  5760   0.587E+00 0.122E+00
CGA:  34    -0.223753226021E+03   -0.16393E+00   -0.17636E+00  5760   0.982E+00-0.122E+00
CGA:  35    -0.223760729432E+03   -0.75034E-02   -0.39868E-02  5760   0.948E+00 0.713E+00
CGA:  36    -0.223841536546E+03   -0.80807E-01   -0.84752E-01  5760   0.221E+00 0.288E-01
CGA:  37    -0.223932942023E+03   -0.91405E-01   -0.96597E-01  5760   0.463E+00-0.196E-01
CGA:  38    -0.224016018515E+03   -0.83076E-01   -0.80868E-01  5760   0.284E+00 0.306E-01
CGA:  39    -0.224067678095E+03   -0.51660E-01   -0.51096E-01  5760   0.255E+00 0.148E-01
CGA:  40    -0.224129939146E+03   -0.62261E-01   -0.63151E-01  5760   0.175E+00-0.479E-02
CGA:  41    -0.224166248913E+03   -0.36310E-01   -0.36776E-01  5760   0.160E+00-0.947E-02
CGA:  42    -0.224197977115E+03   -0.31728E-01   -0.31261E-01  5760   0.948E-01 0.580E-02
CGA:  43    -0.224220574405E+03   -0.22597E-01   -0.22307E-01  5760   0.724E-01 0.260E-02
CGA:  44    -0.224234440853E+03   -0.13866E-01   -0.13916E-01  5760   0.443E-01-0.466E-03
CGA:  45    -0.224246916871E+03   -0.12476E-01   -0.12706E-01  5760   0.538E-01-0.833E-03
CGA:  46    -0.224257764085E+03   -0.10847E-01   -0.10762E-01  5760   0.301E-01 0.122E-02
CGA:  47    -0.224265248663E+03   -0.74846E-02   -0.75759E-02  5760   0.220E-01-0.679E-03
CGA:  48    -0.224270426952E+03   -0.51783E-02   -0.51571E-02  5760   0.126E-01 0.438E-03
CGA:  49    -0.224273045275E+03   -0.26183E-02   -0.26218E-02  5760   0.946E-02 0.131E-03
CGA:  50    -0.224275312066E+03   -0.22668E-02   -0.22750E-02  5760   0.900E-02-0.822E-04
CGA:  51    -0.224277153221E+03   -0.18412E-02   -0.18479E-02  5760   0.653E-02-0.313E-04
CGA:  52    -0.224278873528E+03   -0.17203E-02   -0.17321E-02  5760   0.642E-02-0.143E-03
CGA:  53    -0.224280864867E+03   -0.19913E-02   -0.19959E-02  5760   0.578E-02-0.110E-03
CGA:  54    -0.224282261349E+03   -0.13965E-02   -0.14014E-02  5760   0.513E-02 0.577E-04
CGA:  55    -0.224283723206E+03   -0.14619E-02   -0.14697E-02  5760   0.601E-02-0.444E-04
CGA:  56    -0.224285140844E+03   -0.14176E-02   -0.14226E-02  5760   0.551E-02-0.717E-05
CGA:  57    -0.224286594658E+03   -0.14538E-02   -0.14579E-02  5760   0.536E-02-0.363E-04
CGA:  58    -0.224288286826E+03   -0.16922E-02   -0.16888E-02  5760   0.545E-02 0.287E-04
CGA:  59    -0.224289746620E+03   -0.14598E-02   -0.14548E-02  5760   0.395E-02 0.840E-04
CGA:  60    -0.224290805342E+03   -0.10587E-02   -0.10607E-02  5760   0.385E-02 0.682E-04
CGA:  61    -0.224291792305E+03   -0.98696E-03   -0.99461E-03  5760   0.369E-02-0.417E-04
CGA:  62    -0.224292609535E+03   -0.81723E-03   -0.81762E-03  5760   0.276E-02-0.108E-04
CGA:  63    -0.224293351663E+03   -0.74213E-03   -0.74041E-03  5760   0.233E-02 0.176E-04
CGA:  64    -0.224294046265E+03   -0.69460E-03   -0.69435E-03  5760   0.200E-02-0.190E-04
CGA:  65    -0.224294515703E+03   -0.46944E-03   -0.47000E-03  5760   0.138E-02 0.118E-04
SDA:  66    -0.224294837625E+03   -0.32192E-03   -0.32242E-03  5760   0.133E-02 0.298E-05
CGA:  67    -0.224295028634E+03   -0.19101E-03   -0.18649E-03  5760   0.643E-03 0.383E-04
CGA:  68    -0.224295203003E+03   -0.17437E-03   -0.17760E-03  5760   0.658E-03-0.734E-05
CGA:  69    -0.224295361016E+03   -0.15801E-03   -0.15845E-03  5760   0.340E-03-0.371E-05
CGA:  70    -0.224295470350E+03   -0.10933E-03   -0.10875E-03  5760   0.260E-03 0.680E-05
CGA:  71    -0.224295570109E+03   -0.99759E-04   -0.10037E-03  5760   0.286E-03 0.203E-06
CGA:  72    -0.224295652863E+03   -0.82755E-04   -0.83678E-04  5760   0.268E-03-0.162E-05
CGA:  73    -0.224295724312E+03   -0.71449E-04   -0.72324E-04  5760   0.350E-03-0.691E-05
CGA:  74    -0.224295818910E+03   -0.94598E-04   -0.95341E-04  5760   0.344E-03-0.951E-05
CGA:  75    -0.224295940262E+03   -0.12135E-03   -0.12364E-03  5760   0.335E-03-0.125E-04
CGA:  76    -0.224296075728E+03   -0.13547E-03   -0.13433E-03  5760   0.365E-03 0.686E-05
CGA:  77    -0.224296232367E+03   -0.15664E-03   -0.15447E-03  5760   0.443E-03 0.140E-04
CGA:  78    -0.224296358587E+03   -0.12622E-03   -0.12687E-03  5760   0.611E-03 0.929E-05
CGA:  79    -0.224296510821E+03   -0.15223E-03   -0.15178E-03  5760   0.526E-03-0.678E-06
CGA:  80    -0.224296706484E+03   -0.19566E-03   -0.19334E-03  5760   0.500E-03 0.132E-04
CGA:  81    -0.224296890791E+03   -0.18431E-03   -0.18582E-03  5760   0.743E-03-0.443E-05
CGA:  82    -0.224297080611E+03   -0.18982E-03   -0.18890E-03  5760   0.842E-03 0.517E-05
CGA:  83    -0.224297282710E+03   -0.20210E-03   -0.19999E-03  5760   0.597E-03-0.171E-04
CGA:  84    -0.224297467156E+03   -0.18445E-03   -0.18535E-03  5760   0.546E-03-0.241E-04
CGA:  85    -0.224297616729E+03   -0.14957E-03   -0.15004E-03  5760   0.397E-03-0.335E-06
CGA:  86    -0.224297692420E+03   -0.75691E-04   -0.73927E-04  5760   0.320E-03 0.571E-05
CGA:  87    -0.224297772936E+03   -0.80516E-04   -0.80425E-04  5760   0.178E-03-0.197E-05
CGA:  88    -0.224297823778E+03   -0.50842E-04   -0.50783E-04  5760   0.152E-03 0.474E-05
CGA:  89    -0.224297861931E+03   -0.38153E-04   -0.38038E-04  5760   0.160E-03 0.446E-05
CGA:  90    -0.224297896412E+03   -0.34481E-04   -0.34012E-04  5760   0.108E-03 0.132E-05
CGA:  91    -0.224297943800E+03   -0.47388E-04   -0.47526E-04  5760   0.116E-03-0.961E-06
CGA:  92    -0.224297979859E+03   -0.36058E-04   -0.36335E-04  5760   0.150E-03 0.171E-05
CGA:  93    -0.224298012670E+03   -0.32811E-04   -0.31585E-04  5760   0.129E-03-0.240E-05
CGA:  94    -0.224298056152E+03   -0.43482E-04   -0.43556E-04  5760   0.123E-03-0.250E-05
CGA:  95    -0.224298099124E+03   -0.42972E-04   -0.43184E-04  5760   0.152E-03-0.234E-05
CGA:  96    -0.224298137379E+03   -0.38255E-04   -0.38013E-04  5760   0.179E-03 0.910E-06
SDA:  97    -0.224298181459E+03   -0.44080E-04   -0.43483E-04  5760   0.129E-03-0.432E-05
CGA:  98    -0.224298207389E+03   -0.25930E-04   -0.25924E-04  5760   0.977E-04 0.488E-05
CGA:  99    -0.224298235148E+03   -0.27760E-04   -0.27762E-04  5760   0.946E-04 0.304E-05
CGA: 100    -0.224298259158E+03   -0.24010E-04   -0.23989E-04  5760   0.790E-04 0.327E-05
CGA: 101    -0.224298287621E+03   -0.28463E-04   -0.28727E-04  5760   0.760E-04 0.150E-05
CGA: 102    -0.224298312950E+03   -0.25329E-04   -0.25212E-04  5760   0.581E-04 0.247E-05
CGA: 103    -0.224298340093E+03   -0.27143E-04   -0.27347E-04  5760   0.834E-04-0.662E-06
CGA: 104    -0.224298363197E+03   -0.23103E-04   -0.23083E-04  5760   0.806E-04 0.114E-05
CGA: 105    -0.224298382980E+03   -0.19783E-04   -0.19210E-04  5760   0.822E-04-0.236E-06
CGA: 106    -0.224298413430E+03   -0.30450E-04   -0.30879E-04  5760   0.699E-04-0.349E-05
CGA: 107    -0.224298444190E+03   -0.30760E-04   -0.31339E-04  5760   0.758E-04-0.210E-05
CGA: 108    -0.224298463076E+03   -0.18885E-04   -0.18838E-04  5760   0.765E-04 0.396E-05
CGA: 109    -0.224298483899E+03   -0.20823E-04   -0.20575E-04  5760   0.680E-04 0.262E-05
CGA: 110    -0.224298503660E+03   -0.19762E-04   -0.19746E-04  5760   0.384E-04 0.725E-06
CGA: 111    -0.224298515948E+03   -0.12288E-04   -0.12273E-04  5760   0.428E-04 0.885E-06
CGA: 112    -0.224298527596E+03   -0.11648E-04   -0.11582E-04  5760   0.322E-04 0.216E-05
CGA: 113    -0.224298536098E+03   -0.85020E-05   -0.82732E-05  5760   0.278E-04-0.308E-07
CGA: 114    -0.224298545419E+03   -0.93208E-05   -0.94794E-05  5760   0.355E-04-0.190E-05
CGA: 115    -0.224298554487E+03   -0.90680E-05   -0.90280E-05  5760   0.200E-04-0.156E-05
CGA: 116    -0.224298560395E+03   -0.59079E-05   -0.59587E-05  5760   0.228E-04 0.830E-07
CGA: 117    -0.224298566228E+03   -0.58338E-05   -0.57350E-05  5760   0.191E-04-0.936E-06
CGA: 118    -0.224298570737E+03   -0.45082E-05   -0.44808E-05  5760   0.119E-04-0.319E-06
CGA: 119    -0.224298574418E+03   -0.36813E-05   -0.36727E-05  5760   0.857E-05 0.770E-06
CGA: 120    -0.224298577177E+03   -0.27594E-05   -0.27578E-05  5760   0.785E-05 0.834E-06
CGA: 121    -0.224298579308E+03   -0.21310E-05   -0.21179E-05  5760   0.680E-05 0.223E-06
CGA: 122    -0.224298581129E+03   -0.18210E-05   -0.18266E-05  5760   0.637E-05 0.319E-06
CGA: 123    -0.224298583393E+03   -0.22639E-05   -0.22595E-05  5760   0.606E-05 0.373E-06
CGA: 124    -0.224298585742E+03   -0.23489E-05   -0.23813E-05  5760   0.605E-05-0.298E-06
CGA: 125    -0.224298588376E+03   -0.26336E-05   -0.28325E-05  5760   0.110E-04-0.967E-06
CGA: 126    -0.224298590559E+03   -0.21839E-05   -0.21609E-05  5760   0.897E-05 0.604E-07
CGA: 127    -0.224298592934E+03   -0.23745E-05   -0.23345E-05  5760   0.690E-05 0.198E-06
SDA: 128    -0.224298595841E+03   -0.29073E-05   -0.29199E-05  5760   0.937E-05-0.848E-07
CGA: 129    -0.224298597474E+03   -0.16330E-05   -0.16274E-05  5760   0.428E-05 0.137E-06
CGA: 130    -0.224298598571E+03   -0.10966E-05   -0.10811E-05  5760   0.400E-05 0.409E-06
CGA: 131    -0.224298599875E+03   -0.13044E-05   -0.13041E-05  5760   0.456E-05 0.237E-06
CGA: 132    -0.224298601132E+03   -0.12563E-05   -0.12663E-05  5760   0.251E-05 0.313E-06
CGA: 133    -0.224298602378E+03   -0.12459E-05   -0.12425E-05  5760   0.244E-05 0.215E-07
CGA: 134    -0.224298603452E+03   -0.10745E-05   -0.11290E-05  5760   0.316E-05-0.361E-06
CGA: 135    -0.224298604458E+03   -0.10061E-05   -0.10592E-05  5760   0.383E-05-0.480E-06
CGA: 136    -0.224298605157E+03   -0.69850E-06   -0.60146E-06  5760   0.298E-05-0.230E-06
CGA: 137    -0.224298606224E+03   -0.10670E-05   -0.11078E-05  5760   0.320E-05-0.431E-06
CGA: 138    -0.224298607200E+03   -0.97664E-06   -0.99710E-06  5760   0.299E-05-0.332E-06
   1 F= -.23346407E+03 E0= -.23346308E+03  d E =-.198629E-02  mag=     6.0000
