 vasp.5.4.4.18Apr17-6-g9f103f2a35 (build Nov 22 2021 14:44:17) complex          
  
 executed on             LinuxIFC date 2022.08.05  13:30:38
 running on   64 total cores
 distrk:  each k-point on   64 cores,    1 groups
 distr:  one band on NCORES_PER_BAND=   4 cores,   16 groups


--------------------------------------------------------------------------------------------------------


 INCAR:
 POTCAR:    PAW_PBE Li 17Jan2003                  
 POTCAR:    PAW_PBE Co 02Aug2007                  
 POTCAR:    PAW_PBE O 08Apr2002                   
 POTCAR:    PAW_PBE Li 17Jan2003                  
   VRHFIN =Li: s1p0                                                             
   LEXCH  = PE                                                                  
   EATOM  =     5.3001 eV,    0.3895 Ry                                         
                                                                                
   TITEL  = PAW_PBE Li 17Jan2003                                                
   LULTRA =        F    use ultrasoft PP ?                                      
   IUNSCR =        1    unscreen: 0-lin 1-nonlin 2-no                           
   RPACOR =    1.500    partial core radius                                     
   POMASS =    7.010; ZVAL   =    1.000    mass and valenz                      
   RCORE  =    2.050    outmost cutoff radius                                   
   RWIGS  =    2.600; RWIGS  =    1.376    wigner-seitz radius (au A)           
   ENMAX  =  140.000; ENMIN  =  100.000 eV                                      
   ICORE  =        2    local potential                                         
   LCOR   =        T    correct aug charges                                     
   LPAW   =        T    paw PP                                                  
   EAUG   =  331.638                                                            
   DEXC   =    0.000                                                            
   RMAX   =    2.098    core radius for proj-oper                               
   RAUG   =    1.300    factor for augmentation sphere                          
   RDEP   =    2.094    radius for radial grids                                 
   RDEPT  =    1.810    core radius for aug-charge                              
                                                                                
   Atomic configuration                                                         
    4 entries                                                                   
     n  l   j            E        occ.                                          
     1  0  0.50       -51.8549   2.0000                                         
     2  0  0.50        -2.8742   1.0000                                         
     2  1  0.50        -1.3606   0.0000                                         
     3  2  1.50        -1.3606   0.0000                                         
   Description                                                                  
     l       E           TYP  RCUT    TYP  RCUT                                 
     0     -2.8742052     23  2.050                                             
     0     27.2116520     23  2.050                                             
     1     -1.3605826     23  2.050                                             
     2     -1.3605826     23  2.050                                             
  local pseudopotential read in
  partial core-charges read in
  partial kinetic energy density read in
  atomic valenz-charges read in
  non local Contribution for L=           0  read in
    real space projection operators read in
  non local Contribution for L=           0  read in
    real space projection operators read in
  non local Contribution for L=           1  read in
    real space projection operators read in
    PAW grid and wavefunctions read in
 
   number of l-projection  operators is LMAX  =           3
   number of lm-projection operators is LMMAX =           5
 
 POTCAR:    PAW_PBE Co 02Aug2007                  
   VRHFIN =Co: d8 s1                                                            
   LEXCH  = PE                                                                  
   EATOM  =   813.3670 eV,   59.7808 Ry                                         
                                                                                
   TITEL  = PAW_PBE Co 02Aug2007                                                
   LULTRA =        F    use ultrasoft PP ?                                      
   IUNSCR =        1    unscreen: 0-lin 1-nonlin 2-no                           
   RPACOR =    2.000    partial core radius                                     
   POMASS =   58.933; ZVAL   =    9.000    mass and valenz                      
   RCORE  =    2.300    outmost cutoff radius                                   
   RWIGS  =    2.460; RWIGS  =    1.302    wigner-seitz radius (au A)           
   ENMAX  =  267.968; ENMIN  =  200.976 eV                                      
   RCLOC  =    1.203    cutoff for local pot                                    
   LCOR   =        T    correct aug charges                                     
   LPAW   =        T    paw PP                                                  
   EAUG   =  477.818                                                            
   DEXC   =    0.000                                                            
   RMAX   =    2.360    core radius for proj-oper                               
   RAUG   =    1.300    factor for augmentation sphere                          
   RDEP   =    2.393    radius for radial grids                                 
   RDEPT  =    1.864    core radius for aug-charge                              
                                                                                
   Atomic configuration                                                         
    9 entries                                                                   
     n  l   j            E        occ.                                          
     1  0  0.50     -7587.6674   2.0000                                         
     2  0  0.50      -893.6084   2.0000                                         
     2  1  1.50      -764.5805   6.0000                                         
     3  0  0.50       -97.5973   2.0000                                         
     3  1  1.50       -60.9648   6.0000                                         
     3  2  2.50        -4.2382   8.0000                                         
     4  0  0.50        -4.3746   1.0000                                         
     4  1  1.50        -4.0817   0.0000                                         
     4  3  2.50        -1.3606   0.0000                                         
   Description                                                                  
     l       E           TYP  RCUT    TYP  RCUT                                 
     2     -4.2382362     23  2.300                                             
     2     -5.5988188     23  2.300                                             
     0     -4.3745797     23  2.300                                             
     0      5.7660125     23  2.300                                             
     1     -2.7211652     23  2.300                                             
     1     16.9860234     23  2.300                                             
  local pseudopotential read in
  partial core-charges read in
  partial kinetic energy density read in
  atomic valenz-charges read in
  non local Contribution for L=           2  read in
    real space projection operators read in
  non local Contribution for L=           2  read in
    real space projection operators read in
  non local Contribution for L=           0  read in
    real space projection operators read in
  non local Contribution for L=           0  read in
    real space projection operators read in
  non local Contribution for L=           1  read in
    real space projection operators read in
  non local Contribution for L=           1  read in
    real space projection operators read in
    PAW grid and wavefunctions read in
 
   number of l-projection  operators is LMAX  =           6
   number of lm-projection operators is LMMAX =          18
 
 POTCAR:    PAW_PBE O 08Apr2002                   
   VRHFIN =O: s2p4                                                              
   LEXCH  = PE                                                                  
   EATOM  =   432.3788 eV,   31.7789 Ry                                         
                                                                                
   TITEL  = PAW_PBE O 08Apr2002                                                 
   LULTRA =        F    use ultrasoft PP ?                                      
   IUNSCR =        1    unscreen: 0-lin 1-nonlin 2-no                           
   RPACOR =    1.200    partial core radius                                     
   POMASS =   16.000; ZVAL   =    6.000    mass and valenz                      
   RCORE  =    1.520    outmost cutoff radius                                   
   RWIGS  =    1.550; RWIGS  =    0.820    wigner-seitz radius (au A)           
   ENMAX  =  400.000; ENMIN  =  300.000 eV                                      
   ICORE  =        2    local potential                                         
   LCOR   =        T    correct aug charges                                     
   LPAW   =        T    paw PP                                                  
   EAUG   =  605.392                                                            
   DEXC   =    0.000                                                            
   RMAX   =    1.553    core radius for proj-oper                               
   RAUG   =    1.300    factor for augmentation sphere                          
   RDEP   =    1.550    radius for radial grids                                 
   RDEPT  =    1.329    core radius for aug-charge                              
                                                                                
   Atomic configuration                                                         
    4 entries                                                                   
     n  l   j            E        occ.                                          
     1  0  0.50      -514.6923   2.0000                                         
     2  0  0.50       -23.9615   2.0000                                         
     2  1  0.50        -9.0305   4.0000                                         
     3  2  1.50        -9.5241   0.0000                                         
   Description                                                                  
     l       E           TYP  RCUT    TYP  RCUT                                 
     0    -23.9615318     23  1.200                                             
     0     -9.5240782     23  1.200                                             
     1     -9.0304911     23  1.520                                             
     1      8.1634956     23  1.520                                             
     2     -9.5240782      7  1.500                                             
  local pseudopotential read in
  partial core-charges read in
  partial kinetic energy density read in
  kinetic energy density of atom read in
  atomic valenz-charges read in
  non local Contribution for L=           0  read in
    real space projection operators read in
  non local Contribution for L=           0  read in
    real space projection operators read in
  non local Contribution for L=           1  read in
    real space projection operators read in
  non local Contribution for L=           1  read in
    real space projection operators read in
    PAW grid and wavefunctions read in
 
   number of l-projection  operators is LMAX  =           4
   number of lm-projection operators is LMMAX =           8
 
 Optimization of the real space projectors (new method)

 maximal supplied QI-value         = 18.33
 optimisation between [QCUT,QGAM] = [ 12.46, 24.93] = [ 43.51,174.03] Ry 
 Optimized for a Real-space Cutoff    1.13 Angstroem

   l    n(q)    QCUT    max X(q) W(low)/X(q) W(high)/X(q)  e(spline) 
   0      8    12.465    33.825    0.12E-03    0.29E-03    0.99E-07
   0      8    12.465     8.944    0.86E-04    0.22E-03    0.72E-07
   1      8    12.465     4.214    0.27E-03    0.11E-03    0.82E-07
 Optimization of the real space projectors (new method)

 maximal supplied QI-value         = 16.25
 optimisation between [QCUT,QGAM] = [ 12.51, 25.03] = [ 43.85,175.40] Ry 
 Optimized for a Real-space Cutoff    1.31 Angstroem

   l    n(q)    QCUT    max X(q) W(low)/X(q) W(high)/X(q)  e(spline) 
   2      9    12.514    65.824    0.30E-03    0.46E-03    0.43E-06
   2      9    12.514    61.429    0.31E-03    0.46E-03    0.44E-06
   0     10    12.514    56.174    0.90E-04    0.33E-03    0.30E-06
   0     10    12.514    31.263    0.81E-04    0.30E-03    0.28E-06
   1      9    12.514    19.828    0.38E-03    0.65E-04    0.24E-06
   1      9    12.514    15.139    0.32E-03    0.60E-04    0.20E-06
 Optimization of the real space projectors (new method)

 maximal supplied QI-value         = 24.76
 optimisation between [QCUT,QGAM] = [ 12.38, 25.00] = [ 42.90,175.06] Ry 
 Optimized for a Real-space Cutoff    1.13 Angstroem

   l    n(q)    QCUT    max X(q) W(low)/X(q) W(high)/X(q)  e(spline) 
   0      8    12.378    20.381    0.16E-03    0.54E-05    0.27E-06
   0      8    12.378    15.268    0.17E-03    0.61E-05    0.29E-06
   1      8    12.378     5.964    0.38E-03    0.23E-03    0.28E-06
   1      8    12.378     5.382    0.33E-03    0.20E-03    0.25E-06
  PAW_PBE Li 17Jan2003                  :
 energy of atom  1       EATOM=   -5.3001
 kinetic energy error for atom=    0.0000 (will be added to EATOM!!)
  PAW_PBE Co 02Aug2007                  :
 energy of atom  2       EATOM= -813.3670
 kinetic energy error for atom=    0.0018 (will be added to EATOM!!)
  PAW_PBE O 08Apr2002                   :
 energy of atom  3       EATOM= -432.3788
 kinetic energy error for atom=    0.0168 (will be added to EATOM!!)
 
 
 POSCAR: Li6 Co12 O24                            
  positions in cartesian coordinates
  No initial velocities read in
 exchange correlation table for  LEXCH =        8
   RHO(1)=    0.500       N(1)  =     2000
   RHO(2)=  100.500       N(2)  =     4000
 


--------------------------------------------------------------------------------------------------------


 ion  position               nearest neighbor table
   1  0.582  0.939  0.000-  25 2.06  38 2.07  37 2.17  36 2.20  24 2.28  26 2.34  10 2.43  17 2.91
                            16 2.98  15 3.02
   2  0.849  0.176  0.344-  31 1.91  19 1.92  34 2.01  33 2.18  20 2.25   3 2.52  21 2.53  11 2.65
                             7 2.78  12 2.80  13 2.89  10 3.00   3 3.06   9 3.10
   3  0.849  0.723  0.350-  32 1.92  34 1.98  19 2.03  33 2.17  20 2.25  22 2.49   2 2.52  11 2.64
                            12 2.72  14 2.75   8 2.90   2 3.06  10 3.09   9 3.20
   4  0.213  0.316  0.662-  27 1.93  28 2.00  29 2.07  42 2.10  39 2.13  40 2.19  15 2.74   6 2.75
                            14 2.76   5 2.79  11 2.79   5 2.80  12 2.81   6 2.82  16 2.86  17 2.90
   5  0.188  0.806  0.649-  28 1.87  30 1.93  27 1.96  40 2.12  41 2.27  39 2.30  13 2.61  11 2.65
                            12 2.65   6 2.73   4 2.79   4 2.80   6 2.80  16 2.95  15 3.03  18 3.05
   6  0.702  0.813  0.666-  42 1.95  41 1.96  28 2.01  30 2.08  29 2.12  39 2.13  16 2.73   5 2.73
                             4 2.75  13 2.78   5 2.80   4 2.82  11 2.82  18 2.85  14 2.89  17 2.92
   7  0.089  0.349  0.170-  25 1.80  23 1.84  24 1.89  22 1.90  19 1.90  20 1.93   8 2.67   9 2.71
                            10 2.72   2 2.78   9 2.80  10 2.85   8 2.90
   8  0.086  0.869  0.167-  26 1.81  21 1.83  24 1.86  23 1.87  20 1.92  19 1.92   7 2.67  10 2.70
                             9 2.72  10 2.81   9 2.85   3 2.90   7 2.90
   9  0.582  0.350  0.173-  23 1.79  20 1.83  25 1.85  21 1.89  26 1.92  22 1.94   7 2.71   8 2.72
                            10 2.74   7 2.80  10 2.83   8 2.85   2 3.10   3 3.20
  10  0.595  0.866  0.170-  25 1.81  26 1.82  19 1.84  22 1.86  21 1.88  24 1.90   1 2.43   8 2.70
                             7 2.72   9 2.74   8 2.81   9 2.83   7 2.85   2 3.00   3 3.09
  11  0.012  0.007  0.503-  27 1.85  34 1.87  31 1.90  29 1.90  32 1.92  30 1.94   3 2.64   5 2.65
                             2 2.65  12 2.73  13 2.74  14 2.75  13 2.77   4 2.79  14 2.82   6 2.82
  12  0.008  0.496  0.501-  33 1.83  29 1.84  31 1.86  32 1.89  30 1.91  28 1.99   5 2.65  14 2.72
                             3 2.72  11 2.73  13 2.74  14 2.79   2 2.80   4 2.81  13 2.83  11 2.84
  13  0.515  0.004  0.507-  29 1.86  33 1.87  34 1.90  28 1.90  32 1.91  27 1.93   5 2.61  14 2.72
                            11 2.74  12 2.74  11 2.77   6 2.78  12 2.83  14 2.86   2 2.89
  14  0.513  0.492  0.501-  33 1.84  30 1.86  27 1.89  34 1.92  31 1.93  28 2.00  13 2.72  12 2.72
                            11 2.75   3 2.75   4 2.76  12 2.79  11 2.82  13 2.86   6 2.89
  15  0.397  0.142  0.822-  39 1.82  37 1.86  42 1.90  36 1.91  35 1.97  41 1.98  17 2.74   4 2.74
                            18 2.75  16 2.77  17 2.78  16 2.80  18 2.82   1 3.02   5 3.03
  16  0.397  0.639  0.824-  35 1.83  41 1.84  42 1.88  40 1.90  38 1.90  36 1.93   6 2.73  18 2.73
                            17 2.76  15 2.77  18 2.78  15 2.80  17 2.81   4 2.86   5 2.95   1 2.98
  17  0.898  0.147  0.831-  37 1.83  35 1.85  38 1.87  39 1.90  40 1.91  41 1.94  18 2.73  15 2.74
                            16 2.76  15 2.78  16 2.81  18 2.83   4 2.90   1 2.91   6 2.92
  18  0.892  0.634  0.834-  36 1.82  37 1.88  42 1.90  39 1.90  40 1.91  38 1.92  16 2.73  17 2.73
                            15 2.75  16 2.78  15 2.82  17 2.83   6 2.85   5 3.05
  19  0.919  0.010  0.244-  10 1.84   7 1.90   2 1.92   8 1.92   3 2.03
  20  0.922  0.517  0.235-   9 1.83   8 1.92   7 1.93   2 2.25   3 2.25
  21  0.413  1.000  0.238-   8 1.83  10 1.88   9 1.89   2 2.53
  22  0.433  0.533  0.240-  10 1.86   7 1.90   9 1.94   3 2.49
  23  0.264  0.215  0.103-   9 1.79   7 1.84   8 1.87
  24  0.241  0.699  0.105-   8 1.86   7 1.89  10 1.90   1 2.28
  25  0.752  0.203  0.109-   7 1.80  10 1.81   9 1.85   1 2.06
  26  0.746  0.704  0.106-   8 1.81  10 1.82   9 1.92   1 2.34
  27  0.341  0.159  0.575-  11 1.85  14 1.89  13 1.93   4 1.93   5 1.96
  28  0.360  0.664  0.580-   5 1.87  13 1.90  12 1.99  14 2.00   4 2.00   6 2.01
  29  0.858  0.169  0.574-  12 1.84  13 1.86  11 1.90   4 2.07   6 2.12
  30  0.847  0.652  0.573-  14 1.86  12 1.91   5 1.93  11 1.94   6 2.08
  31  0.163  0.346  0.430-  12 1.86  11 1.90   2 1.91  14 1.93
  32  0.172  0.842  0.434-  12 1.89  13 1.91  11 1.92   3 1.92
  33  0.672  0.338  0.436-  12 1.83  14 1.84  13 1.87   3 2.17   2 2.18
  34  0.670  0.847  0.435-  11 1.87  13 1.90  14 1.92   3 1.98   2 2.01
  35  0.242  0.313  0.895-  16 1.83  17 1.85  15 1.97
  36  0.234  0.799  0.895-  18 1.82  15 1.91  16 1.93   1 2.20
  37  0.725  0.281  0.896-  17 1.83  15 1.86  18 1.88   1 2.17
  38  0.732  0.807  0.899-  17 1.87  16 1.90  18 1.92   1 2.07
  39  0.052  0.977  0.763-  15 1.82  17 1.90  18 1.90   4 2.13   6 2.13   5 2.30
  40  0.049  0.487  0.756-  16 1.90  18 1.91  17 1.91   5 2.12   4 2.19
  41  0.559  0.965  0.752-  16 1.84  17 1.94   6 1.96  15 1.98   5 2.27
  42  0.564  0.491  0.754-  16 1.88  18 1.90  15 1.90   6 1.95   4 2.10
 

IMPORTANT INFORMATION: All symmetrisations will be switched off!
NOSYMM: (Re-)initialisation of all symmetry stuff for point group C_1.

 
 

Automatic generation of k-mesh.
 generate k-points for:    6    6    2
Space group operators:
 irot       det(A)        alpha          n_x          n_y          n_z        tau_x        tau_y        tau_z
    1     1.000000     0.000000     1.000000     0.000000     0.000000     0.000000     0.000000     0.000000
 
 Subroutine IBZKPT returns following result:
 ===========================================
 
 Found     36 irreducible k-points:
 
 Following reciprocal coordinates:
            Coordinates               Weight
  0.083333  0.083333  0.250000      2.000000
  0.250000  0.083333  0.250000      2.000000
  0.416667  0.083333  0.250000      2.000000
 -0.416667  0.083333  0.250000      2.000000
 -0.250000  0.083333  0.250000      2.000000
 -0.083333  0.083333  0.250000      2.000000
  0.083333  0.250000  0.250000      2.000000
  0.250000  0.250000  0.250000      2.000000
  0.416667  0.250000  0.250000      2.000000
 -0.416667  0.250000  0.250000      2.000000
 -0.250000  0.250000  0.250000      2.000000
 -0.083333  0.250000  0.250000      2.000000
  0.083333  0.416667  0.250000      2.000000
  0.250000  0.416667  0.250000      2.000000
  0.416667  0.416667  0.250000      2.000000
 -0.416667  0.416667  0.250000      2.000000
 -0.250000  0.416667  0.250000      2.000000
 -0.083333  0.416667  0.250000      2.000000
  0.083333 -0.416667  0.250000      2.000000
  0.250000 -0.416667  0.250000      2.000000
  0.416667 -0.416667  0.250000      2.000000
 -0.416667 -0.416667  0.250000      2.000000
 -0.250000 -0.416667  0.250000      2.000000
 -0.083333 -0.416667  0.250000      2.000000
  0.083333 -0.250000  0.250000      2.000000
  0.250000 -0.250000  0.250000      2.000000
  0.416667 -0.250000  0.250000      2.000000
 -0.416667 -0.250000  0.250000      2.000000
 -0.250000 -0.250000  0.250000      2.000000
 -0.083333 -0.250000  0.250000      2.000000
  0.083333 -0.083333  0.250000      2.000000
  0.250000 -0.083333  0.250000      2.000000
  0.416667 -0.083333  0.250000      2.000000
 -0.416667 -0.083333  0.250000      2.000000
 -0.250000 -0.083333  0.250000      2.000000
 -0.083333 -0.083333  0.250000      2.000000
 
 Following cartesian coordinates:
            Coordinates               Weight
  0.015129  0.025852  0.017303      2.000000
  0.045388  0.043100  0.018703      2.000000
  0.075647  0.060348  0.020103      2.000000
 -0.075647 -0.025892  0.013103      2.000000
 -0.045388 -0.008644  0.014503      2.000000
 -0.015129  0.008604  0.015903      2.000000
  0.015129  0.060307  0.015519      2.000000
  0.045388  0.077555  0.016919      2.000000
  0.075647  0.094803  0.018319      2.000000
 -0.075647  0.008563  0.011320      2.000000
 -0.045388  0.025811  0.012719      2.000000
 -0.015129  0.043059  0.014119      2.000000
  0.015129  0.094762  0.013736      2.000000
  0.045388  0.112010  0.015136      2.000000
  0.075647  0.129258  0.016536      2.000000
 -0.075647  0.043019  0.009536      2.000000
 -0.045388  0.060267  0.010936      2.000000
 -0.015129  0.077514  0.012336      2.000000
  0.015129 -0.077514  0.022653      2.000000
  0.045388 -0.060267  0.024053      2.000000
  0.075647 -0.043019  0.025453      2.000000
 -0.075647 -0.129258  0.018453      2.000000
 -0.045388 -0.112010  0.019853      2.000000
 -0.015129 -0.094762  0.021253      2.000000
  0.015129 -0.043059  0.020870      2.000000
  0.045388 -0.025811  0.022270      2.000000
  0.075647 -0.008563  0.023670      2.000000
 -0.075647 -0.094803  0.016670      2.000000
 -0.045388 -0.077555  0.018070      2.000000
 -0.015129 -0.060307  0.019470      2.000000
  0.015129 -0.008604  0.019086      2.000000
  0.045388  0.008644  0.020486      2.000000
  0.075647  0.025892  0.021886      2.000000
 -0.075647 -0.060348  0.014886      2.000000
 -0.045388 -0.043100  0.016286      2.000000
 -0.015129 -0.025852  0.017686      2.000000
 


--------------------------------------------------------------------------------------------------------




 Dimension of arrays:
   k-points           NKPTS =     36   k-points in BZ     NKDIM =     36   number of bands    NBANDS=    160
   number of dos      NEDOS =    301   number of ions     NIONS =     42
   non local maximal  LDIM  =      6   non local SUM 2l+1 LMDIM =     18
   total plane-waves  NPLWV = 116640
   max r-space proj   IRMAX =   2913   max aug-charges    IRDMAX=  12280
   dimension x,y,z NGX =    36 NGY =   36 NGZ =   90
   dimension x,y,z NGXF=    72 NGYF=   72 NGZF=  180
   support grid    NGXF=    72 NGYF=   72 NGZF=  180
   ions per type =               6  12  24
   NGX,Y,Z   is equivalent  to a cutoff of  10.87, 10.75, 10.43 a.u.
   NGXF,Y,Z  is equivalent  to a cutoff of  21.73, 21.50, 20.85 a.u.

 SYSTEM =  LiCoO2                                  
 POSCAR =  Li6 Co12 O24                            

 Startparameter for this run:
   NWRITE =      2    write-flag & timer
   PREC   = normal    normal or accurate (medium, high low for compatibility)
   ISTART =      0    job   : 0-new  1-cont  2-samecut
   ICHARG =      2    charge: 1-file 2-atom 10-const
   ISPIN  =      2    spin polarized calculation?
   LNONCOLLINEAR =      F non collinear calculations
   LSORBIT =      F    spin-orbit coupling
   INIWAV =      1    electr: 0-lowe 1-rand  2-diag
   LASPH  =      F    aspherical Exc in radial PAW
   METAGGA=      F    non-selfconsistent MetaGGA calc.

 Electronic Relaxation 1
   ENCUT  =  600.0 eV  44.10 Ry    6.64 a.u.  11.00 11.12 28.66*2*pi/ulx,y,z
   ENINI  =  600.0     initial cutoff
   ENAUG  =  605.4 eV  augmentation charge cutoff
   NELM   =    600;   NELMIN=  2; NELMDL= -5     # of ELM steps 
   EDIFF  = 0.1E-05   stopping-criterion for ELM
   LREAL  =      T    real-space projection
   NLSPLINE    = F    spline interpolate recip. space projectors
   LCOMPAT=      F    compatible to vasp.4.4
   GGA_COMPAT  = T    GGA compatible to vasp.4.4-vasp.4.6
   LMAXPAW     = -100 max onsite density
   LMAXMIX     =    2 max onsite mixed and CHGCAR
   VOSKOWN=      0    Vosko Wilk Nusair interpolation
   ROPT   =   -0.00050  -0.00050  -0.00050
 Ionic relaxation
   EDIFFG = 0.1E-04   stopping-criterion for IOM
   NSW    =      0    number of steps for IOM
   NBLOCK =      1;   KBLOCK =      1    inner block; outer block 
   IBRION =     -1    ionic relax: 0-MD 1-quasi-New 2-CG
   NFREE  =      0    steps in history (QN), initial steepest desc. (CG)
   ISIF   =      2    stress and relaxation
   IWAVPR =     10    prediction:  0-non 1-charg 2-wave 3-comb
   ISYM   =      0    0-nonsym 1-usesym 2-fastsym
   LCORR  =      T    Harris-Foulkes like correction to forces

   POTIM  = 0.5000    time-step for ionic-motion
   TEIN   =    0.0    initial temperature
   TEBEG  =    0.0;   TEEND  =   0.0 temperature during run
   SMASS  =  -3.00    Nose mass-parameter (am)
   estimated Nose-frequenzy (Omega)   =  0.10E-29 period in steps =****** mass=  -0.693E-27a.u.
   SCALEE = 1.0000    scale energy and forces
   NPACO  =    256;   APACO  = 16.0  distance and # of slots for P.C.
   PSTRESS=    0.0 pullay stress

  Mass of Ions in am
   POMASS =   7.01 58.93 16.00
  Ionic Valenz
   ZVAL   =   1.00  9.00  6.00
  Atomic Wigner-Seitz radii
   RWIGS  =  -1.00 -1.00 -1.00
  virtual crystal weights 
   VCA    =   1.00  1.00  1.00
   NELECT =     258.0000    total number of electrons
   NUPDOWN=       6.0000    fix difference up-down

 DOS related values:
   EMIN   =  10.00;   EMAX   =-10.00  energy-range for DOS
   EFERMI =   0.00
   ISMEAR =     0;   SIGMA  =   0.05  broadening in eV -4-tet -1-fermi 0-gaus

 Electronic relaxation 2 (details)
   IALGO  =     58    algorithm
   LDIAG  =      T    sub-space diagonalisation (order eigenvalues)
   LSUBROT=      F    optimize rotation matrix (better conditioning)
   TURBO    =      0    0=normal 1=particle mesh
   IRESTART =      0    0=no restart 2=restart with 2 vectors
   NREBOOT  =      0    no. of reboots
   NMIN     =      0    reboot dimension
   EREF     =   0.00    reference energy to select bands
   IMIX   =      4    mixing-type and parameters
     AMIX     =   0.40;   BMIX     =  1.00
     AMIX_MAG =   1.60;   BMIX_MAG =  1.00
     AMIN     =   0.10
     WC   =   100.;   INIMIX=   1;  MIXPRE=   1;  MAXMIX= -45

 Intra band minimization:
   WEIMIN = 0.0000     energy-eigenvalue tresh-hold
   EBREAK =  0.16E-08  absolut break condition
   DEPER  =   0.30     relativ break condition  

   TIME   =   0.40     timestep for ELM

  volume/ion in A,a.u.               =       9.07        61.18
  Fermi-wavevector in a.u.,A,eV,Ry     =   1.437932  2.717298 28.132068  2.067649
  Thomas-Fermi vector in A             =   2.556955
 
 Write flags
   LWAVE        =      F    write WAVECAR
   LDOWNSAMPLE  =      F    k-point downsampling of WAVECAR
   LCHARG       =      F    write CHGCAR
   LVTOT        =      F    write LOCPOT, total local potential
   LVHAR        =      F    write LOCPOT, Hartree potential only
   LELF         =      F    write electronic localiz. function (ELF)
   LORBIT       =     11    0 simple, 1 ext, 2 COOP (PROOUT), +10 PAW based schemes


 Dipole corrections
   LMONO  =      F    monopole corrections only (constant potential shift)
   LDIPOL =      F    correct potential (dipole corrections)
   IDIPOL =      0    1-x, 2-y, 3-z, 4-all directions 
   EPSILON=  1.0000000 bulk dielectric constant

 LDA+U is selected, type is set to LDAUTYPE =  2
   angular momentum for each species LDAUL =    -1    2   -1
   U (eV)           for each species LDAUU =   0.0  5.1  0.0
   J (eV)           for each species LDAUJ =   0.0  0.0  0.0
 Exchange correlation treatment:
   GGA     =    --    GGA type
   LEXCH   =     8    internal setting for exchange type
   VOSKOWN=      0    Vosko Wilk Nusair interpolation
   LHFCALC =     F    Hartree Fock is set to
   LHFONE  =     F    Hartree Fock one center treatment
   AEXX    =    0.0000 exact exchange contribution

 Linear response parameters
   LEPSILON=     F    determine dielectric tensor
   LRPA    =     F    only Hartree local field effects (RPA)
   LNABLA  =     F    use nabla operator in PAW spheres
   LVEL    =     F    velocity operator in full k-point grid
   LINTERFAST=   F  fast interpolation
   KINTER  =     0    interpolate to denser k-point grid
   CSHIFT  =0.1000    complex shift for real part using Kramers Kronig
   OMEGAMAX=  -1.0    maximum frequency
   DEG_THRESHOLD= 0.2000000E-02 threshold for treating states as degnerate
   RTIME   =   -0.100 relaxation time in fs
  (WPLASMAI=    0.000 imaginary part of plasma frequency in eV, 0.658/RTIME)
   DFIELD  = 0.0000000 0.0000000 0.0000000 field for delta impulse in time
 
 Orbital magnetization related:
   ORBITALMAG=     F  switch on orbital magnetization
   LCHIMAG   =     F  perturbation theory with respect to B field
   DQ        =  0.001000  dq finite difference perturbation B field
   LLRAUG    =     F  two centre corrections for induced B field



--------------------------------------------------------------------------------------------------------


 Static calculation
 charge density and potential will be updated during run
 spin polarized calculation
 Conjugate gradient for all bands (Freysoldt, et al. PRB 79, 241103 (2009))
 preconditioned conjugated gradient                                        
 perform sub-space diagonalisation
    before iterative eigenvector-optimisation
 modified Broyden-mixing scheme, WC =      100.0
 initial mixing is a Kerker type mixing with AMIX =  0.4000 and BMIX =      1.0000
 Hartree-type preconditioning will be used
 using additional bands           31
 real space projection scheme for non local part
 use partial core corrections
 no Harris-corrections to forces 
 use gradient corrections 
 use of overlap-Matrix (Vanderbilt PP)
 Gauss-broadening in eV      SIGMA  =   0.05


--------------------------------------------------------------------------------------------------------


  energy-cutoff  :      600.00
  volume of cell :      380.74
      direct lattice vectors                 reciprocal lattice vectors
     5.508067131  0.000000000  0.000000000     0.181551890  0.103487603  0.008399732
    -2.757270575  4.837175369  0.000000000     0.000000000  0.206732219 -0.010700411
    -1.082770824  0.739656925 14.290190697     0.000000000  0.000000000  0.069978072

  length of vectors
     5.508067131  5.567836795 14.350227705     0.209144277  0.207008960  0.069978072


 
 k-points in units of 2pi/SCALE and weight: read from INCAR                         
   0.01512932  0.02585165  0.01730279       0.028
   0.04538797  0.04309959  0.01870275       0.028
   0.07564662  0.06034752  0.02010271       0.028
  -0.07564662 -0.02589215  0.01310293       0.028
  -0.04538797 -0.00864422  0.01450288       0.028
  -0.01512932  0.00860372  0.01590284       0.028
   0.01512932  0.06030702  0.01551939       0.028
   0.04538797  0.07755496  0.01691935       0.028
   0.07564662  0.09480289  0.01831930       0.028
  -0.07564662  0.00856322  0.01131953       0.028
  -0.04538797  0.02581115  0.01271948       0.028
  -0.01512932  0.04305909  0.01411944       0.028
   0.01512932  0.09476239  0.01373599       0.028
   0.04538797  0.11201033  0.01513595       0.028
   0.07564662  0.12925826  0.01653590       0.028
  -0.07564662  0.04301859  0.00953613       0.028
  -0.04538797  0.06026652  0.01093608       0.028
  -0.01512932  0.07751446  0.01233604       0.028
   0.01512932 -0.07751446  0.02265300       0.028
   0.04538797 -0.06026652  0.02405296       0.028
   0.07564662 -0.04301859  0.02545291       0.028
  -0.07564662 -0.12925826  0.01845313       0.028
  -0.04538797 -0.11201033  0.01985309       0.028
  -0.01512932 -0.09476239  0.02125305       0.028
   0.01512932 -0.04305909  0.02086960       0.028
   0.04538797 -0.02581115  0.02226955       0.028
   0.07564662 -0.00856322  0.02366951       0.028
  -0.07564662 -0.09480289  0.01666973       0.028
  -0.04538797 -0.07755496  0.01806969       0.028
  -0.01512932 -0.06030702  0.01946964       0.028
   0.01512932 -0.00860372  0.01908620       0.028
   0.04538797  0.00864422  0.02048615       0.028
   0.07564662  0.02589215  0.02188611       0.028
  -0.07564662 -0.06034752  0.01488633       0.028
  -0.04538797 -0.04309959  0.01628629       0.028
  -0.01512932 -0.02585165  0.01768624       0.028
 
 k-points in reciprocal lattice and weights: read from INCAR                         
   0.08333333  0.08333333  0.25000000       0.028
   0.25000000  0.08333333  0.25000000       0.028
   0.41666667  0.08333333  0.25000000       0.028
  -0.41666667  0.08333333  0.25000000       0.028
  -0.25000000  0.08333333  0.25000000       0.028
  -0.08333333  0.08333333  0.25000000       0.028
   0.08333333  0.25000000  0.25000000       0.028
   0.25000000  0.25000000  0.25000000       0.028
   0.41666667  0.25000000  0.25000000       0.028
  -0.41666667  0.25000000  0.25000000       0.028
  -0.25000000  0.25000000  0.25000000       0.028
  -0.08333333  0.25000000  0.25000000       0.028
   0.08333333  0.41666667  0.25000000       0.028
   0.25000000  0.41666667  0.25000000       0.028
   0.41666667  0.41666667  0.25000000       0.028
  -0.41666667  0.41666667  0.25000000       0.028
  -0.25000000  0.41666667  0.25000000       0.028
  -0.08333333  0.41666667  0.25000000       0.028
   0.08333333 -0.41666667  0.25000000       0.028
   0.25000000 -0.41666667  0.25000000       0.028
   0.41666667 -0.41666667  0.25000000       0.028
  -0.41666667 -0.41666667  0.25000000       0.028
  -0.25000000 -0.41666667  0.25000000       0.028
  -0.08333333 -0.41666667  0.25000000       0.028
   0.08333333 -0.25000000  0.25000000       0.028
   0.25000000 -0.25000000  0.25000000       0.028
   0.41666667 -0.25000000  0.25000000       0.028
  -0.41666667 -0.25000000  0.25000000       0.028
  -0.25000000 -0.25000000  0.25000000       0.028
  -0.08333333 -0.25000000  0.25000000       0.028
   0.08333333 -0.08333333  0.25000000       0.028
   0.25000000 -0.08333333  0.25000000       0.028
   0.41666667 -0.08333333  0.25000000       0.028
  -0.41666667 -0.08333333  0.25000000       0.028
  -0.25000000 -0.08333333  0.25000000       0.028
  -0.08333333 -0.08333333  0.25000000       0.028
 
 position of ions in fractional coordinates (direct lattice) 
   0.58207834  0.93931385  0.00026242
   0.84887566  0.17555415  0.34388066
   0.84919560  0.72283800  0.35026475
   0.21267787  0.31605907  0.66187011
   0.18818727  0.80570867  0.64898433
   0.70169036  0.81307910  0.66638161
   0.08867941  0.34881485  0.17001312
   0.08553110  0.86875715  0.16700897
   0.58187252  0.34993239  0.17270938
   0.59518394  0.86608210  0.16950998
   0.01174225  0.00722018  0.50264479
   0.00842983  0.49563217  0.50123265
   0.51472021  0.00445436  0.50734803
   0.51330218  0.49247084  0.50124874
   0.39740649  0.14151110  0.82171333
   0.39724437  0.63877626  0.82375666
   0.89824580  0.14653207  0.83057251
   0.89196281  0.63376633  0.83384753
   0.91869787  0.01042951  0.24400585
   0.92205137  0.51661286  0.23545102
   0.41315914  0.99986974  0.23771131
   0.43257690  0.53325965  0.24042156
   0.26432442  0.21526788  0.10265783
   0.24090920  0.69949673  0.10501050
   0.75206425  0.20270545  0.10876412
   0.74622336  0.70391270  0.10614484
   0.34079462  0.15940091  0.57540170
   0.35996785  0.66413931  0.57973055
   0.85795135  0.16906894  0.57369005
   0.84660748  0.65221176  0.57251862
   0.16340542  0.34555570  0.42962688
   0.17193501  0.84214724  0.43412858
   0.67183115  0.33833943  0.43558410
   0.66969096  0.84706665  0.43493122
   0.24167680  0.31347079  0.89472143
   0.23405075  0.79938327  0.89477042
   0.72510674  0.28148638  0.89647092
   0.73188875  0.80687378  0.89901111
   0.05202147  0.97727518  0.76297372
   0.04852642  0.48692969  0.75608787
   0.55927562  0.96503238  0.75244200
   0.56384180  0.49135606  0.75445043
 
 position of ions in cartesian coordinates  (Angst):
   0.61589998  4.54381990  0.00375000
   3.81926990  1.10353994  4.91412020
   2.30510998  3.75556993  5.00535011
  -0.41666999  2.01838994  9.45825005
  -1.88770998  4.37737989  9.27410984
   0.90153998  4.42589998  9.52272034
  -0.65741003  1.81303000  2.42951989
  -2.10511994  4.32586002  2.38659000
   2.05312991  1.82043004  2.46805000
   0.70674998  4.31477022  2.42232990
  -0.49948001  0.40671000  7.18288994
  -1.86287999  2.76819992  7.16271019
   2.27348995  0.39681000  7.25010014
   0.92668998  2.75291991  7.16294003
   0.90903002  1.29229999 11.74244022
  -0.46517000  3.69917011 11.77163982
   3.64424992  1.32314003 11.86903954
   2.26266003  3.68239999 11.91584015
   4.76729012  0.23093000  3.48689008
   3.39933991  2.67309999  3.36464000
  -0.73859000  5.01237011  3.39693999
   0.65200001  2.75729990  3.43566990
   0.75120997  1.11722004  1.46700001
  -0.71546000  3.46126008  1.50062001
   3.46573997  1.06096995  1.55426002
   2.05444002  3.48345995  1.51682997
   0.81458002  1.19665003  8.22259998
  -0.47620001  3.64136004  8.28446007
   3.63830996  1.24214995  8.19814014
   2.24494004  3.57833004  8.18140030
  -0.51792997  1.98929000  6.13945007
  -1.84505999  4.39472008  6.20378017
   2.29595995  1.95878994  6.22457981
   0.88217998  4.41910982  6.21525002
  -0.50193000  2.17810011 12.78573990
  -1.88378000  4.52858019 12.78643990
   2.24712992  2.02467990 12.81074047
   0.83310002  4.56794977 12.84704018
  -3.23420000  5.29159021 10.90303993
  -1.89398003  2.91460991 10.80463982
  -0.39504999  5.22457981 10.75253963
   0.93397999  2.93480992 10.78124046
 


--------------------------------------------------------------------------------------------------------


 k-point  1 :   0.0833 0.0833 0.2500  plane waves:   12662
 k-point  2 :   0.2500 0.0833 0.2500  plane waves:   12719
 k-point  3 :   0.4167 0.0833 0.2500  plane waves:   12710
 k-point  4 :  -0.4167 0.0833 0.2500  plane waves:   12713
 k-point  5 :  -0.2500 0.0833 0.2500  plane waves:   12701
 k-point  6 :  -0.0833 0.0833 0.2500  plane waves:   12660
 k-point  7 :   0.0833 0.2500 0.2500  plane waves:   12708
 k-point  8 :   0.2500 0.2500 0.2500  plane waves:   12722
 k-point  9 :   0.4167 0.2500 0.2500  plane waves:   12717
 k-point 10 :  -0.4167 0.2500 0.2500  plane waves:   12714
 k-point 11 :  -0.2500 0.2500 0.2500  plane waves:   12688
 k-point 12 :  -0.0833 0.2500 0.2500  plane waves:   12663
 k-point 13 :   0.0833 0.4167 0.2500  plane waves:   12722
 k-point 14 :   0.2500 0.4167 0.2500  plane waves:   12706
 k-point 15 :   0.4167 0.4167 0.2500  plane waves:   12718
 k-point 16 :  -0.4167 0.4167 0.2500  plane waves:   12716
 k-point 17 :  -0.2500 0.4167 0.2500  plane waves:   12713
 k-point 18 :  -0.0833 0.4167 0.2500  plane waves:   12707
 k-point 19 :   0.0833-0.4167 0.2500  plane waves:   12723
 k-point 20 :   0.2500-0.4167 0.2500  plane waves:   12733
 k-point 21 :   0.4167-0.4167 0.2500  plane waves:   12716
 k-point 22 :  -0.4167-0.4167 0.2500  plane waves:   12725
 k-point 23 :  -0.2500-0.4167 0.2500  plane waves:   12713
 k-point 24 :  -0.0833-0.4167 0.2500  plane waves:   12731
 k-point 25 :   0.0833-0.2500 0.2500  plane waves:   12698
 k-point 26 :   0.2500-0.2500 0.2500  plane waves:   12702
 k-point 27 :   0.4167-0.2500 0.2500  plane waves:   12730
 k-point 28 :  -0.4167-0.2500 0.2500  plane waves:   12725
 k-point 29 :  -0.2500-0.2500 0.2500  plane waves:   12721
 k-point 30 :  -0.0833-0.2500 0.2500  plane waves:   12701
 k-point 31 :   0.0833-0.0833 0.2500  plane waves:   12673
 k-point 32 :   0.2500-0.0833 0.2500  plane waves:   12703
 k-point 33 :   0.4167-0.0833 0.2500  plane waves:   12712
 k-point 34 :  -0.4167-0.0833 0.2500  plane waves:   12719
 k-point 35 :  -0.2500-0.0833 0.2500  plane waves:   12702
 k-point 36 :  -0.0833-0.0833 0.2500  plane waves:   12670

 maximum and minimum number of plane-waves per node :      3202     3151

 maximum number of plane-waves:     12733
 maximum index in each direction: 
   IXMAX=   11   IYMAX=   11   IZMAX=   28
   IXMIN=  -11   IYMIN=  -11   IZMIN=  -28


 real space projection operators:
  total allocation   :       7783.38 KBytes
  max/ min on nodes  :       1949.20       1940.33


 parallel 3D FFT for wavefunctions:
    minimum data exchange during FFTs selected (reduces bandwidth)
 parallel 3D FFT for charge:
    minimum data exchange during FFTs selected (reduces bandwidth)


 total amount of memory used by VASP MPI-rank0   155586. kBytes
=======================================================================

   base      :      30000. kBytes
   nonlr-proj:       4451. kBytes
   fftplans  :       1687. kBytes
   grid      :       4644. kBytes
   one-center:        342. kBytes
   wavefun   :     114462. kBytes
 
     INWAV:  cpu time    0.0000: real time    0.0003
 Broyden mixing: mesh for mixing (old mesh)
   NGX = 21   NGY = 23   NGZ = 57
  (NGX  = 72   NGY  = 72   NGZ  =180)
  gives a total of  27531 points

 initial charge density was supplied:
 charge density of overlapping atoms calculated
 number of electron     258.0000000 magnetization       6.0000000
 keeping initial charge density in first step


--------------------------------------------------------------------------------------------------------


 Maximum index for non-local projection operator          712
 Maximum index for augmentation-charges          992 (set IRDMAX)


--------------------------------------------------------------------------------------------------------


 First call to EWALD:  gamma=   0.245
 Maximum number of real-space cells 4x 4x 2
 Maximum number of reciprocal cells 2x 2x 5

    FEWALD:  cpu time    0.0040: real time    0.0040


--------------------------------------- Iteration      1(   1)  ---------------------------------------


    POTLOK:  cpu time    0.0558: real time    0.0680
    SETDIJ:  cpu time    0.0182: real time    0.0183
    TRIAL :  cpu time   22.3756: real time   22.4430
    CORREC:  cpu time    0.0035: real time    0.0035
    --------------------------------------------
      LOOP:  cpu time   22.6158: real time   22.6964

 eigenvalue-minimisations  : 23040
 total energy-change (2. order) : 0.3516665E+04  (-0.1400773E+05)
 number of electron     258.0000000 magnetization       6.0000000
 augmentation part      258.0000000 magnetization       6.0000000

 Free energy of the ion-electron system (eV)
  ---------------------------------------------------
  alpha Z        PSCENC =       769.99095940
  Ewald energy   TEWEN  =    -13867.51831058
  -Hartree energ DENC   =     -7225.15983106
  -exchange      EXHF   =         0.00000000
  -V(xc)+E(xc)   XCENC  =       846.15703384
  PAW double counting   =     17015.18481625   -17491.61297812
  entropy T*S    EENTRO =        -0.00647056
  eigenvalues    EBANDS =      3300.75902738
  atomic energy  EATOM  =     20168.87094289
  ---------------------------------------------------
  free energy    TOTEN  =      3516.66518945 eV

  energy without entropy =     3516.67166001  energy(sigma->0) =     3516.66842473


--------------------------------------------------------------------------------------------------------




--------------------------------------- Iteration      1(   2)  ---------------------------------------


    TRIAL :  cpu time   24.8645: real time   24.9488
    CORREC:  cpu time    0.0042: real time    0.0042
    --------------------------------------------
      LOOP:  cpu time   24.8690: real time   24.9534

 eigenvalue-minimisations  : 24880
 total energy-change (2. order) :-0.3108189E+04  (-0.2861340E+04)
 number of electron     258.0000000 magnetization       6.0000000
 augmentation part      258.0000000 magnetization       6.0000000

 Free energy of the ion-electron system (eV)
  ---------------------------------------------------
  alpha Z        PSCENC =       769.99095940
  Ewald energy   TEWEN  =    -13867.51831058
  -Hartree energ DENC   =     -7225.15983106
  -exchange      EXHF   =         0.00000000
  -V(xc)+E(xc)   XCENC  =       846.15703384
  PAW double counting   =     17015.18481625   -17491.61297812
  entropy T*S    EENTRO =        -0.02191486
  eigenvalues    EBANDS =       192.58587591
  atomic energy  EATOM  =     20168.87094289
  ---------------------------------------------------
  free energy    TOTEN  =       408.47659368 eV

  energy without entropy =      408.49850854  energy(sigma->0) =      408.48755111


--------------------------------------------------------------------------------------------------------




--------------------------------------- Iteration      1(   3)  ---------------------------------------


    TRIAL :  cpu time   23.9313: real time   23.9785
    CORREC:  cpu time    0.0040: real time    0.0040
    --------------------------------------------
      LOOP:  cpu time   23.9355: real time   23.9827

 eigenvalue-minimisations  : 25312
 total energy-change (2. order) :-0.6300307E+03  (-0.5740808E+03)
 number of electron     258.0000000 magnetization       6.0000000
 augmentation part      258.0000000 magnetization       6.0000000

 Free energy of the ion-electron system (eV)
  ---------------------------------------------------
  alpha Z        PSCENC =       769.99095940
  Ewald energy   TEWEN  =    -13867.51831058
  -Hartree energ DENC   =     -7225.15983106
  -exchange      EXHF   =         0.00000000
  -V(xc)+E(xc)   XCENC  =       846.15703384
  PAW double counting   =     17015.18481625   -17491.61297812
  entropy T*S    EENTRO =        -0.02959786
  eigenvalues    EBANDS =      -437.43713835
  atomic energy  EATOM  =     20168.87094289
  ---------------------------------------------------
  free energy    TOTEN  =      -221.55410358 eV

  energy without entropy =     -221.52450572  energy(sigma->0) =     -221.53930465


--------------------------------------------------------------------------------------------------------




--------------------------------------- Iteration      1(   4)  ---------------------------------------


    TRIAL :  cpu time   24.6864: real time   24.7514
    CORREC:  cpu time    0.0039: real time    0.0039
    --------------------------------------------
      LOOP:  cpu time   24.6906: real time   24.7556

 eigenvalue-minimisations  : 25344
 total energy-change (2. order) :-0.4967285E+02  (-0.4879393E+02)
 number of electron     258.0000000 magnetization       6.0000000
 augmentation part      258.0000000 magnetization       6.0000000

 Free energy of the ion-electron system (eV)
  ---------------------------------------------------
  alpha Z        PSCENC =       769.99095940
  Ewald energy   TEWEN  =    -13867.51831058
  -Hartree energ DENC   =     -7225.15983106
  -exchange      EXHF   =         0.00000000
  -V(xc)+E(xc)   XCENC  =       846.15703384
  PAW double counting   =     17015.18481625   -17491.61297812
  entropy T*S    EENTRO =        -0.02908449
  eigenvalues    EBANDS =      -487.11050209
  atomic energy  EATOM  =     20168.87094289
  ---------------------------------------------------
  free energy    TOTEN  =      -271.22695395 eV

  energy without entropy =     -271.19786946  energy(sigma->0) =     -271.21241170


--------------------------------------------------------------------------------------------------------




--------------------------------------- Iteration      1(   5)  ---------------------------------------


    TRIAL :  cpu time   26.4572: real time   26.5036
    CORREC:  cpu time    0.0043: real time    0.0043
    CHARGE:  cpu time    0.5337: real time    0.5344
    --------------------------------------------
      LOOP:  cpu time   26.9957: real time   27.0428

 eigenvalue-minimisations  : 28176
 total energy-change (2. order) :-0.1650601E+01  (-0.1647845E+01)
 number of electron     258.0000022 magnetization       6.0000009
 augmentation part       68.2613262 magnetization       4.3090230

 Free energy of the ion-electron system (eV)
  ---------------------------------------------------
  alpha Z        PSCENC =       769.99095940
  Ewald energy   TEWEN  =    -13867.51831058
  -Hartree energ DENC   =     -7225.15983106
  -exchange      EXHF   =         0.00000000
  -V(xc)+E(xc)   XCENC  =       846.15703384
  PAW double counting   =     17015.18481625   -17491.61297812
  entropy T*S    EENTRO =        -0.02953357
  eigenvalues    EBANDS =      -488.76065400
  atomic energy  EATOM  =     20168.87094289
  ---------------------------------------------------
  free energy    TOTEN  =      -272.87755493 eV

  energy without entropy =     -272.84802137  energy(sigma->0) =     -272.86278815


--------------------------------------------------------------------------------------------------------




--------------------------------------- Iteration      1(   6)  ---------------------------------------


    POTLOK:  cpu time    0.0456: real time    0.0456
    SETDIJ:  cpu time    0.0129: real time    0.0129
    TRIAL :  cpu time   13.0529: real time   13.0828
    CORREC:  cpu time    4.4935: real time    4.5008
    CHARGE:  cpu time    0.5042: real time    0.5048
    --------------------------------------------
      LOOP:  cpu time   18.1097: real time   18.1474

 eigenvalue-minimisations  :     0
 total energy-change (2. order) : 0.3582064E+03  (-0.1296483E+03)
 number of electron     258.0000028 magnetization       6.0000004
 augmentation part       70.0782163 magnetization       4.4222394

 Free energy of the ion-electron system (eV)
  ---------------------------------------------------
  alpha Z        PSCENC =       769.99095940
  Ewald energy   TEWEN  =    -13867.51831058
  -Hartree energ DENC   =     -6958.37105736
  -exchange      EXHF   =         0.00000000
  -V(xc)+E(xc)   XCENC  =       880.03468376
  PAW double counting   =     24309.18174315   -24522.36395374
  entropy T*S    EENTRO =        -0.04555564
  eigenvalues    EBANDS =      -694.46662629
  atomic energy  EATOM  =     20168.87094289
  ---------------------------------------------------
  free energy    TOTEN  =        85.32884768 eV

  energy without entropy =       85.37440332  energy(sigma->0) =       85.35162550


--------------------------------------------------------------------------------------------------------




--------------------------------------- Iteration      1(   7)  ---------------------------------------


    POTLOK:  cpu time    0.0456: real time    0.0456
    SETDIJ:  cpu time    0.0129: real time    0.0129
    TRIAL :  cpu time   12.8301: real time   12.8535
    CORREC:  cpu time    4.4723: real time    4.4819
    CHARGE:  cpu time    0.5065: real time    0.5075
    --------------------------------------------
      LOOP:  cpu time   17.8678: real time   17.9019

 eigenvalue-minimisations  :     0
 total energy-change (2. order) :-0.7827870E+02  (-0.3779198E+02)
 number of electron     258.0000029 magnetization       6.0000003
 augmentation part       70.8155242 magnetization       4.3358858

 Free energy of the ion-electron system (eV)
  ---------------------------------------------------
  alpha Z        PSCENC =       769.99095940
  Ewald energy   TEWEN  =    -13867.51831058
  -Hartree energ DENC   =     -6867.39598037
  -exchange      EXHF   =         0.00000000
  -V(xc)+E(xc)   XCENC  =       872.51571134
  PAW double counting   =     24236.11644815   -24522.03351009
  entropy T*S    EENTRO =        -0.05219620
  eigenvalues    EBANDS =      -783.45055961
  atomic energy  EATOM  =     20168.87094289
  ---------------------------------------------------
  free energy    TOTEN  =         7.05014549 eV

  energy without entropy =        7.10234169  energy(sigma->0) =        7.07624359


--------------------------------------------------------------------------------------------------------




--------------------------------------- Iteration      1(   8)  ---------------------------------------


    POTLOK:  cpu time    0.0454: real time    0.0454
    SETDIJ:  cpu time    0.0128: real time    0.0128
    TRIAL :  cpu time   12.9626: real time   12.9920
    CORREC:  cpu time    4.3323: real time    4.3391
    CHARGE:  cpu time    0.5283: real time    0.5289
    --------------------------------------------
      LOOP:  cpu time   17.8818: real time   17.9187

 eigenvalue-minimisations  :     0
 total energy-change (2. order) :-0.9862968E+02  (-0.1142321E+03)
 number of electron     258.0000024 magnetization       6.0000008
 augmentation part       74.1166819 magnetization       4.3560597

 Free energy of the ion-electron system (eV)
  ---------------------------------------------------
  alpha Z        PSCENC =       769.99095940
  Ewald energy   TEWEN  =    -13867.51831058
  -Hartree energ DENC   =     -6860.43604803
  -exchange      EXHF   =         0.00000000
  -V(xc)+E(xc)   XCENC  =       867.58811332
  PAW double counting   =     24064.15465997   -24376.93960076
  entropy T*S    EENTRO =        -0.02150425
  eigenvalues    EBANDS =      -857.23805260
  atomic energy  EATOM  =     20168.87094289
  ---------------------------------------------------
  free energy    TOTEN  =       -91.57953259 eV

  energy without entropy =      -91.55802834  energy(sigma->0) =      -91.56878046


--------------------------------------------------------------------------------------------------------




--------------------------------------- Iteration      1(   9)  ---------------------------------------


    POTLOK:  cpu time    0.0455: real time    0.0456
    SETDIJ:  cpu time    0.0130: real time    0.0130
    TRIAL :  cpu time   12.8972: real time   12.9188
    CORREC:  cpu time    4.2809: real time    4.2884
    CHARGE:  cpu time    0.4999: real time    0.5004
    --------------------------------------------
      LOOP:  cpu time   17.7370: real time   17.7668

 eigenvalue-minimisations  :     0
 total energy-change (2. order) :-0.5819671E+02  (-0.6389142E+02)
 number of electron     258.0000026 magnetization       6.0000006
 augmentation part       76.3099246 magnetization       4.2035593

 Free energy of the ion-electron system (eV)
  ---------------------------------------------------
  alpha Z        PSCENC =       769.99095940
  Ewald energy   TEWEN  =    -13867.51831058
  -Hartree energ DENC   =     -7054.81651022
  -exchange      EXHF   =         0.00000000
  -V(xc)+E(xc)   XCENC  =       860.34139499
  PAW double counting   =     24606.96046563   -25057.44509895
  entropy T*S    EENTRO =        -0.01868626
  eigenvalues    EBANDS =      -576.13858324
  atomic energy  EATOM  =     20168.87094289
  ---------------------------------------------------
  free energy    TOTEN  =      -149.77624432 eV

  energy without entropy =     -149.75755805  energy(sigma->0) =     -149.76690118


--------------------------------------------------------------------------------------------------------




--------------------------------------- Iteration      1(  10)  ---------------------------------------


    POTLOK:  cpu time    0.0458: real time    0.0458
    SETDIJ:  cpu time    0.0127: real time    0.0128
    TRIAL :  cpu time   12.8145: real time   12.8354
    CORREC:  cpu time    4.2715: real time    4.2780
    CHARGE:  cpu time    0.5116: real time    0.5123
    --------------------------------------------
      LOOP:  cpu time   17.6566: real time   17.6849

 eigenvalue-minimisations  :     0
 total energy-change (2. order) :-0.2308033E+02  (-0.2148557E+02)
 number of electron     258.0000026 magnetization       6.0000006
 augmentation part       76.2249937 magnetization       4.1818678

 Free energy of the ion-electron system (eV)
  ---------------------------------------------------
  alpha Z        PSCENC =       769.99095940
  Ewald energy   TEWEN  =    -13867.51831058
  -Hartree energ DENC   =     -7206.19245724
  -exchange      EXHF   =         0.00000000
  -V(xc)+E(xc)   XCENC  =       855.72392115
  PAW double counting   =     24940.02840771   -25483.43053313
  entropy T*S    EENTRO =        -0.03321654
  eigenvalues    EBANDS =      -350.31081904
  atomic energy  EATOM  =     20168.87094289
  ---------------------------------------------------
  free energy    TOTEN  =      -172.85657510 eV

  energy without entropy =     -172.82335856  energy(sigma->0) =     -172.83996683


--------------------------------------------------------------------------------------------------------




--------------------------------------- Iteration      1(  11)  ---------------------------------------


    POTLOK:  cpu time    0.0450: real time    0.0451
    SETDIJ:  cpu time    0.0129: real time    0.0129
    TRIAL :  cpu time   12.8048: real time   12.8422
    CORREC:  cpu time    4.2804: real time    4.2901
    CHARGE:  cpu time    0.5785: real time    0.5791
    --------------------------------------------
      LOOP:  cpu time   17.7221: real time   17.7698

 eigenvalue-minimisations  :     0
 total energy-change (2. order) :-0.2688777E+02  (-0.7651911E+01)
 number of electron     258.0000029 magnetization       6.0000003
 augmentation part       76.1091336 magnetization       4.1867829

 Free energy of the ion-electron system (eV)
  ---------------------------------------------------
  alpha Z        PSCENC =       769.99095940
  Ewald energy   TEWEN  =    -13867.51831058
  -Hartree energ DENC   =     -7149.04881745
  -exchange      EXHF   =         0.00000000
  -V(xc)+E(xc)   XCENC  =       855.18544792
  PAW double counting   =     24884.62183788   -25422.55653885
  entropy T*S    EENTRO =        -0.03622726
  eigenvalues    EBANDS =      -439.25664575
  atomic energy  EATOM  =     20168.87094289
  ---------------------------------------------------
  free energy    TOTEN  =      -199.74434109 eV

  energy without entropy =     -199.70811384  energy(sigma->0) =     -199.72622746


--------------------------------------------------------------------------------------------------------




--------------------------------------- Iteration      1(  12)  ---------------------------------------


    POTLOK:  cpu time    0.0450: real time    0.0451
    SETDIJ:  cpu time    0.0129: real time    0.0129
    TRIAL :  cpu time   12.5198: real time   12.5409
    CORREC:  cpu time    4.3827: real time    4.3897
    CHARGE:  cpu time    0.5262: real time    0.5268
    --------------------------------------------
      LOOP:  cpu time   17.4871: real time   17.5158

 eigenvalue-minimisations  :     0
 total energy-change (2. order) :-0.6745640E+01  (-0.2507735E+01)
 number of electron     258.0000031 magnetization       6.0000002
 augmentation part       75.9246819 magnetization       4.1819048

 Free energy of the ion-electron system (eV)
  ---------------------------------------------------
  alpha Z        PSCENC =       769.99095940
  Ewald energy   TEWEN  =    -13867.51831058
  -Hartree energ DENC   =     -7108.83724395
  -exchange      EXHF   =         0.00000000
  -V(xc)+E(xc)   XCENC  =       854.96849261
  PAW double counting   =     24835.17053236   -25367.35452258
  entropy T*S    EENTRO =        -0.03366102
  eigenvalues    EBANDS =      -491.74460387
  atomic energy  EATOM  =     20168.87094289
  ---------------------------------------------------
  free energy    TOTEN  =      -206.48998097 eV

  energy without entropy =     -206.45631995  energy(sigma->0) =     -206.47315046


--------------------------------------------------------------------------------------------------------




--------------------------------------- Iteration      1(  13)  ---------------------------------------


    POTLOK:  cpu time    0.0456: real time    0.0457
    SETDIJ:  cpu time    0.0128: real time    0.0128
    TRIAL :  cpu time   12.7691: real time   12.7979
    CORREC:  cpu time    4.2480: real time    4.2563
    CHARGE:  cpu time    0.5136: real time    0.5143
    --------------------------------------------
      LOOP:  cpu time   17.5897: real time   17.6276

 eigenvalue-minimisations  :     0
 total energy-change (2. order) :-0.1247151E+01  (-0.4896299E+01)
 number of electron     258.0000030 magnetization       6.0000002
 augmentation part       75.4513500 magnetization       4.1443960

 Free energy of the ion-electron system (eV)
  ---------------------------------------------------
  alpha Z        PSCENC =       769.99095940
  Ewald energy   TEWEN  =    -13867.51831058
  -Hartree energ DENC   =     -7099.46968649
  -exchange      EXHF   =         0.00000000
  -V(xc)+E(xc)   XCENC  =       854.81134832
  PAW double counting   =     24751.92325631   -25274.23129964
  entropy T*S    EENTRO =        -0.02683164
  eigenvalues    EBANDS =      -512.08068139
  atomic energy  EATOM  =     20168.87094289
  ---------------------------------------------------
  free energy    TOTEN  =      -207.73713219 eV

  energy without entropy =     -207.71030055  energy(sigma->0) =     -207.72371637


--------------------------------------------------------------------------------------------------------




--------------------------------------- Iteration      1(  14)  ---------------------------------------


    POTLOK:  cpu time    0.0450: real time    0.0450
    SETDIJ:  cpu time    0.0128: real time    0.0128
    TRIAL :  cpu time   12.6271: real time   12.6494
    CORREC:  cpu time    4.2783: real time    4.2852
    CHARGE:  cpu time    0.5141: real time    0.5149
    --------------------------------------------
      LOOP:  cpu time   17.4778: real time   17.5079

 eigenvalue-minimisations  :     0
 total energy-change (2. order) :-0.8750318E+00  (-0.6344750E+01)
 number of electron     258.0000029 magnetization       6.0000003
 augmentation part       74.7195652 magnetization       4.0871811

 Free energy of the ion-electron system (eV)
  ---------------------------------------------------
  alpha Z        PSCENC =       769.99095940
  Ewald energy   TEWEN  =    -13867.51831058
  -Hartree energ DENC   =     -7113.40322970
  -exchange      EXHF   =         0.00000000
  -V(xc)+E(xc)   XCENC  =       854.48993306
  PAW double counting   =     24575.96464086   -25072.68464488
  entropy T*S    EENTRO =        -0.02134424
  eigenvalues    EBANDS =      -524.29562343
  atomic energy  EATOM  =     20168.87094289
  ---------------------------------------------------
  free energy    TOTEN  =      -208.61216401 eV

  energy without entropy =     -208.59081977  energy(sigma->0) =     -208.60149189


--------------------------------------------------------------------------------------------------------




--------------------------------------- Iteration      1(  15)  ---------------------------------------


    POTLOK:  cpu time    0.0453: real time    0.0453
    SETDIJ:  cpu time    0.0128: real time    0.0128
    TRIAL :  cpu time   12.7015: real time   12.7217
    CORREC:  cpu time    4.2674: real time    4.2732
    CHARGE:  cpu time    0.5188: real time    0.5197
    --------------------------------------------
      LOOP:  cpu time   17.5463: real time   17.5733

 eigenvalue-minimisations  :     0
 total energy-change (2. order) :-0.4749395E+01  (-0.4189602E+01)
 number of electron     258.0000027 magnetization       6.0000005
 augmentation part       74.7067939 magnetization       4.0399137

 Free energy of the ion-electron system (eV)
  ---------------------------------------------------
  alpha Z        PSCENC =       769.99095940
  Ewald energy   TEWEN  =    -13867.51831058
  -Hartree energ DENC   =     -7117.00068886
  -exchange      EXHF   =         0.00000000
  -V(xc)+E(xc)   XCENC  =       853.64787290
  PAW double counting   =     24405.21409831   -24861.66588934
  entropy T*S    EENTRO =        -0.02391633
  eigenvalues    EBANDS =      -564.87919958
  atomic energy  EATOM  =     20168.87094289
  ---------------------------------------------------
  free energy    TOTEN  =      -213.36155909 eV

  energy without entropy =     -213.33764276  energy(sigma->0) =     -213.34960093


--------------------------------------------------------------------------------------------------------




--------------------------------------- Iteration      1(  16)  ---------------------------------------


    POTLOK:  cpu time    0.0451: real time    0.0451
    SETDIJ:  cpu time    0.0129: real time    0.0129
    TRIAL :  cpu time   12.7143: real time   12.7374
    CORREC:  cpu time    4.2495: real time    4.2553
    CHARGE:  cpu time    0.5086: real time    0.5100
    --------------------------------------------
      LOOP:  cpu time   17.5310: real time   17.5612

 eigenvalue-minimisations  :     0
 total energy-change (2. order) :-0.2286977E+01  (-0.2414814E+01)
 number of electron     258.0000027 magnetization       6.0000005
 augmentation part       74.8871559 magnetization       3.9768427

 Free energy of the ion-electron system (eV)
  ---------------------------------------------------
  alpha Z        PSCENC =       769.99095940
  Ewald energy   TEWEN  =    -13867.51831058
  -Hartree energ DENC   =     -7128.50411830
  -exchange      EXHF   =         0.00000000
  -V(xc)+E(xc)   XCENC  =       853.27688488
  PAW double counting   =     24387.62355516   -24835.38178193
  entropy T*S    EENTRO =        -0.02270621
  eigenvalues    EBANDS =      -563.98275087
  atomic energy  EATOM  =     20168.87094289
  ---------------------------------------------------
  free energy    TOTEN  =      -215.64853567 eV

  energy without entropy =     -215.62582946  energy(sigma->0) =     -215.63718257


--------------------------------------------------------------------------------------------------------




--------------------------------------- Iteration      1(  17)  ---------------------------------------


    POTLOK:  cpu time    0.0452: real time    0.0453
    SETDIJ:  cpu time    0.0128: real time    0.0129
    TRIAL :  cpu time   12.6847: real time   12.7236
    CORREC:  cpu time    4.2721: real time    4.2784
    CHARGE:  cpu time    0.6618: real time    0.6624
    --------------------------------------------
      LOOP:  cpu time   17.6772: real time   17.7230

 eigenvalue-minimisations  :     0
 total energy-change (2. order) :-0.2846903E+01  (-0.2281511E+01)
 number of electron     258.0000028 magnetization       6.0000004
 augmentation part       75.1666048 magnetization       3.9312629

 Free energy of the ion-electron system (eV)
  ---------------------------------------------------
  alpha Z        PSCENC =       769.99095940
  Ewald energy   TEWEN  =    -13867.51831058
  -Hartree energ DENC   =     -7153.37557066
  -exchange      EXHF   =         0.00000000
  -V(xc)+E(xc)   XCENC  =       853.11292472
  PAW double counting   =     24407.72525933   -24854.11384782
  entropy T*S    EENTRO =        -0.01963532
  eigenvalues    EBANDS =      -543.16509016
  atomic energy  EATOM  =     20168.87094289
  ---------------------------------------------------
  free energy    TOTEN  =      -218.49543907 eV

  energy without entropy =     -218.47580376  energy(sigma->0) =     -218.48562142


--------------------------------------------------------------------------------------------------------




--------------------------------------- Iteration      1(  18)  ---------------------------------------


    POTLOK:  cpu time    0.0449: real time    0.0450
    SETDIJ:  cpu time    0.0128: real time    0.0128
    TRIAL :  cpu time   12.5237: real time   12.5442
    CORREC:  cpu time    4.3709: real time    4.3767
    CHARGE:  cpu time    0.5149: real time    0.5156
    --------------------------------------------
      LOOP:  cpu time   17.4677: real time   17.4947

 eigenvalue-minimisations  :     0
 total energy-change (2. order) :-0.6434522E+00  (-0.1321825E+01)
 number of electron     258.0000028 magnetization       6.0000004
 augmentation part       75.2874900 magnetization       3.9279518

 Free energy of the ion-electron system (eV)
  ---------------------------------------------------
  alpha Z        PSCENC =       769.99095940
  Ewald energy   TEWEN  =    -13867.51831058
  -Hartree energ DENC   =     -7180.49333231
  -exchange      EXHF   =         0.00000000
  -V(xc)+E(xc)   XCENC  =       853.29226804
  PAW double counting   =     24430.04145786   -24881.46952859
  entropy T*S    EENTRO =        -0.02097023
  eigenvalues    EBANDS =      -511.83371265
  atomic energy  EATOM  =     20168.87094289
  ---------------------------------------------------
  free energy    TOTEN  =      -219.13889125 eV

  energy without entropy =     -219.11792102  energy(sigma->0) =     -219.12840613


--------------------------------------------------------------------------------------------------------




--------------------------------------- Iteration      1(  19)  ---------------------------------------


    POTLOK:  cpu time    0.0449: real time    0.0450
    SETDIJ:  cpu time    0.0127: real time    0.0127
    TRIAL :  cpu time   12.6314: real time   12.6520
    CORREC:  cpu time    4.2642: real time    4.2709
    CHARGE:  cpu time    0.4886: real time    0.5078
    --------------------------------------------
      LOOP:  cpu time   17.4423: real time   17.4890

 eigenvalue-minimisations  :     0
 total energy-change (2. order) :-0.1359539E+01  (-0.6164292E+00)
 number of electron     258.0000028 magnetization       6.0000004
 augmentation part       75.5191379 magnetization       3.9188069

 Free energy of the ion-electron system (eV)
  ---------------------------------------------------
  alpha Z        PSCENC =       769.99095940
  Ewald energy   TEWEN  =    -13867.51831058
  -Hartree energ DENC   =     -7183.24204319
  -exchange      EXHF   =         0.00000000
  -V(xc)+E(xc)   XCENC  =       853.54099553
  PAW double counting   =     24422.41342383   -24877.09380312
  entropy T*S    EENTRO =        -0.01935646
  eigenvalues    EBANDS =      -507.43962498
  atomic energy  EATOM  =     20168.87094289
  ---------------------------------------------------
  free energy    TOTEN  =      -220.49843044 eV

  energy without entropy =     -220.47907398  energy(sigma->0) =     -220.48875221


--------------------------------------------------------------------------------------------------------




--------------------------------------- Iteration      1(  20)  ---------------------------------------


    POTLOK:  cpu time    0.0450: real time    0.0450
    SETDIJ:  cpu time    0.0129: real time    0.0129
    TRIAL :  cpu time   12.7300: real time   12.7564
    CORREC:  cpu time    4.2879: real time    4.2942
    CHARGE:  cpu time    0.5026: real time    0.5032
    --------------------------------------------
      LOOP:  cpu time   17.5789: real time   17.6123

 eigenvalue-minimisations  :     0
 total energy-change (2. order) :-0.6181370E+00  (-0.3495699E+00)
 number of electron     258.0000029 magnetization       6.0000004
 augmentation part       75.7864259 magnetization       3.9129977

 Free energy of the ion-electron system (eV)
  ---------------------------------------------------
  alpha Z        PSCENC =       769.99095940
  Ewald energy   TEWEN  =    -13867.51831058
  -Hartree energ DENC   =     -7193.12408624
  -exchange      EXHF   =         0.00000000
  -V(xc)+E(xc)   XCENC  =       854.07297777
  PAW double counting   =     24412.03190335   -24872.99289998
  entropy T*S    EENTRO =        -0.01946958
  eigenvalues    EBANDS =      -492.42869759
  atomic energy  EATOM  =     20168.87094289
  ---------------------------------------------------
  free energy    TOTEN  =      -221.11656743 eV

  energy without entropy =     -221.09709785  energy(sigma->0) =     -221.10683264


--------------------------------------------------------------------------------------------------------




--------------------------------------- Iteration      1(  21)  ---------------------------------------


    POTLOK:  cpu time    0.0450: real time    0.0450
    SETDIJ:  cpu time    0.0128: real time    0.0128
    TRIAL :  cpu time   12.7715: real time   12.7947
    CORREC:  cpu time    4.2587: real time    4.2656
    CHARGE:  cpu time    0.5161: real time    0.5166
    --------------------------------------------
      LOOP:  cpu time   17.6046: real time   17.6352

 eigenvalue-minimisations  :     0
 total energy-change (2. order) :-0.3549326E+00  (-0.3173724E+00)
 number of electron     258.0000028 magnetization       6.0000004
 augmentation part       76.0437970 magnetization       3.9032628

 Free energy of the ion-electron system (eV)
  ---------------------------------------------------
  alpha Z        PSCENC =       769.99095940
  Ewald energy   TEWEN  =    -13867.51831058
  -Hartree energ DENC   =     -7191.87341603
  -exchange      EXHF   =         0.00000000
  -V(xc)+E(xc)   XCENC  =       854.78972861
  PAW double counting   =     24392.01643286   -24859.38551404
  entropy T*S    EENTRO =        -0.01767010
  eigenvalues    EBANDS =      -488.34285354
  atomic energy  EATOM  =     20168.87094289
  ---------------------------------------------------
  free energy    TOTEN  =      -221.47150001 eV

  energy without entropy =     -221.45382991  energy(sigma->0) =     -221.46266496


--------------------------------------------------------------------------------------------------------




--------------------------------------- Iteration      1(  22)  ---------------------------------------


    POTLOK:  cpu time    0.0451: real time    0.0452
    SETDIJ:  cpu time    0.0127: real time    0.0128
    TRIAL :  cpu time   12.6347: real time   12.6547
    CORREC:  cpu time    4.2465: real time    4.2522
    CHARGE:  cpu time    0.5088: real time    0.5094
    --------------------------------------------
      LOOP:  cpu time   17.4482: real time   17.4748

 eigenvalue-minimisations  :     0
 total energy-change (2. order) :-0.3133700E+00  (-0.1037136E+00)
 number of electron     258.0000028 magnetization       6.0000004
 augmentation part       76.0221418 magnetization       3.9054525

 Free energy of the ion-electron system (eV)
  ---------------------------------------------------
  alpha Z        PSCENC =       769.99095940
  Ewald energy   TEWEN  =    -13867.51831058
  -Hartree energ DENC   =     -7195.54331077
  -exchange      EXHF   =         0.00000000
  -V(xc)+E(xc)   XCENC  =       855.57541737
  PAW double counting   =     24359.03941452   -24831.21343945
  entropy T*S    EENTRO =        -0.01658319
  eigenvalues    EBANDS =      -480.96887330
  atomic energy  EATOM  =     20168.87094289
  ---------------------------------------------------
  free energy    TOTEN  =      -221.78487001 eV

  energy without entropy =     -221.76828682  energy(sigma->0) =     -221.77657842


--------------------------------------------------------------------------------------------------------




--------------------------------------- Iteration      1(  23)  ---------------------------------------


    POTLOK:  cpu time    0.0452: real time    0.0452
    SETDIJ:  cpu time    0.0129: real time    0.0129
    TRIAL :  cpu time   12.9289: real time   12.9532
    CORREC:  cpu time    4.4214: real time    4.4323
    CHARGE:  cpu time    0.4877: real time    0.4884
    --------------------------------------------
      LOOP:  cpu time   17.8966: real time   17.9324

 eigenvalue-minimisations  :     0
 total energy-change (2. order) :-0.1029716E+00  (-0.1061216E+00)
 number of electron     258.0000028 magnetization       6.0000004
 augmentation part       75.9839235 magnetization       3.9069008

 Free energy of the ion-electron system (eV)
  ---------------------------------------------------
  alpha Z        PSCENC =       769.99095940
  Ewald energy   TEWEN  =    -13867.51831058
  -Hartree energ DENC   =     -7188.27484553
  -exchange      EXHF   =         0.00000000
  -V(xc)+E(xc)   XCENC  =       855.59726883
  PAW double counting   =     24334.00606319   -24803.43554590
  entropy T*S    EENTRO =        -0.01547936
  eigenvalues    EBANDS =      -491.10779071
  atomic energy  EATOM  =     20168.87094289
  ---------------------------------------------------
  free energy    TOTEN  =      -221.88784159 eV

  energy without entropy =     -221.87236223  energy(sigma->0) =     -221.88010191


--------------------------------------------------------------------------------------------------------




--------------------------------------- Iteration      1(  24)  ---------------------------------------


    POTLOK:  cpu time    0.0446: real time    0.0446
    SETDIJ:  cpu time    0.0127: real time    0.0129
    TRIAL :  cpu time   12.5505: real time   12.5720
    CORREC:  cpu time    4.4581: real time    4.4667
    CHARGE:  cpu time    0.5176: real time    0.5182
    --------------------------------------------
      LOOP:  cpu time   17.5839: real time   17.6148

 eigenvalue-minimisations  :     0
 total energy-change (2. order) :-0.1002353E+00  (-0.2161651E+00)
 number of electron     258.0000028 magnetization       6.0000005
 augmentation part       75.9850344 magnetization       3.9237776

 Free energy of the ion-electron system (eV)
  ---------------------------------------------------
  alpha Z        PSCENC =       769.99095940
  Ewald energy   TEWEN  =    -13867.51831058
  -Hartree energ DENC   =     -7182.84430916
  -exchange      EXHF   =         0.00000000
  -V(xc)+E(xc)   XCENC  =       855.48907110
  PAW double counting   =     24311.59987201   -24777.69278404
  entropy T*S    EENTRO =        -0.01356143
  eigenvalues    EBANDS =      -499.86803916
  atomic energy  EATOM  =     20168.87094289
  ---------------------------------------------------
  free energy    TOTEN  =      -221.98807690 eV

  energy without entropy =     -221.97451547  energy(sigma->0) =     -221.98129619


--------------------------------------------------------------------------------------------------------




--------------------------------------- Iteration      1(  25)  ---------------------------------------


    POTLOK:  cpu time    0.0499: real time    0.0503
    SETDIJ:  cpu time    0.0132: real time    0.0139
    TRIAL :  cpu time   12.9440: real time   12.9709
    CORREC:  cpu time    4.2855: real time    4.2938
    CHARGE:  cpu time    0.5104: real time    0.5116
    --------------------------------------------
      LOOP:  cpu time   17.8036: real time   17.8410

 eigenvalue-minimisations  :     0
 total energy-change (2. order) :-0.2214676E+00  (-0.1714734E+00)
[...]
   20        1.571   3.428   0.000   4.999
   21        1.585   3.382   0.000   4.966
   22        1.582   3.366   0.000   4.948
   23        1.584   3.399   0.000   4.983
   24        1.578   3.381   0.000   4.959
   25        1.574   3.464   0.000   5.038
   26        1.581   3.409   0.000   4.989
   27        1.558   3.493   0.000   5.051
   28        1.556   3.483   0.000   5.038
   29        1.565   3.467   0.000   5.032
   30        1.563   3.461   0.000   5.024
   31        1.568   3.429   0.000   4.997
   32        1.567   3.425   0.000   4.993
   33        1.565   3.462   0.000   5.027
   34        1.557   3.481   0.000   5.038
   35        1.583   3.370   0.000   4.953
   36        1.572   3.407   0.000   4.978
   37        1.571   3.431   0.000   5.002
   38        1.572   3.403   0.000   4.975
   39        1.559   3.487   0.000   5.047
   40        1.569   3.423   0.000   4.993
   41        1.569   3.433   0.000   5.002
   42        1.565   3.461   0.000   5.026
--------------------------------------------------
tot         43.810  92.620  88.055 224.485
 


 magnetization (x)
 
# of ion       s       p       d       tot
------------------------------------------
    1        0.001  -0.000   0.000   0.000
    2        0.001  -0.001   0.000   0.000
    3        0.001   0.001   0.000   0.001
    4        0.000   0.000   0.000   0.001
    5        0.000  -0.001   0.000  -0.000
    6        0.001  -0.001   0.000  -0.000
    7        0.005   0.007  -0.000   0.012
    8        0.012   0.015   1.338   1.365
    9        0.013   0.018   1.306   1.337
   10        0.011   0.017   1.206   1.234
   11        0.004   0.003  -0.015  -0.008
   12        0.009   0.009   1.241   1.259
   13        0.001   0.001  -0.016  -0.014
   14        0.001   0.001  -0.013  -0.012
   15        0.005   0.005   0.000   0.010
   16        0.010   0.013   1.243   1.266
   17        0.010   0.011   1.267   1.288
   18        0.002   0.003  -0.015  -0.009
   19        0.001  -0.056   0.000  -0.055
   20        0.001  -0.075   0.000  -0.074
   21        0.002  -0.135   0.000  -0.133
   22        0.001  -0.125   0.000  -0.124
   23        0.001  -0.095   0.000  -0.093
   24        0.001  -0.128   0.000  -0.127
   25        0.001  -0.049   0.000  -0.047
   26        0.001  -0.096   0.000  -0.095
   27       -0.000  -0.007   0.000  -0.007
   28        0.000  -0.035   0.000  -0.034
   29        0.001  -0.021   0.000  -0.020
   30        0.000  -0.029   0.000  -0.029
   31        0.000  -0.048   0.000  -0.048
   32        0.000  -0.046   0.000  -0.046
   33       -0.000  -0.063   0.000  -0.063
   34       -0.000  -0.011   0.000  -0.012
   35        0.001  -0.089   0.000  -0.088
   36       -0.000  -0.064   0.000  -0.064
   37        0.000  -0.048   0.000  -0.048
   38       -0.000  -0.107   0.000  -0.107
   39        0.000  -0.026   0.000  -0.026
   40        0.000  -0.083   0.000  -0.083
   41        0.001  -0.056   0.000  -0.055
   42        0.000  -0.038   0.000  -0.038
--------------------------------------------------
tot          0.097  -1.427   7.541   6.212
 
    FORLOC:  cpu time    0.0076: real time    0.0076
    FORNL :  cpu time    4.2248: real time    4.2348
    STRESS:  cpu time   12.4881: real time   12.6754
    FORCOR:  cpu time    0.0475: real time    0.0475
    OFIELD:  cpu time    0.0004: real time    0.0004

  DFT-D2 method for vdW energy calculation
  -------------------------------------------------------------------

  Parameters of vdW forcefield:
         C6(Jnm^6/mol)     R0(A)
   -----------------------------
   Li       1.610          0.825
   Co      10.800          1.562
   O        0.700          1.342

  IVDW =   1
  VDW_RADIUS =    50.000 A
  VDW_S6 =     0.750
  VDW_SR =     1.000
  VDW_D =    20.000
  LVDW_EWALD = F

  Number of pair interactions contributing to vdW energy: 1242073
  Edisp (eV):   -9.85742
    FORVDW:  cpu time    0.1775: real time    0.1780

  FORCE on cell =-STRESS in cart. coord.  units (eV):
  Direction    XX          YY          ZZ          XY          YZ          ZX
  --------------------------------------------------------------------------------------
  Alpha Z   769.99096   769.99096   769.99096
  Ewald   -1425.22873 -1399.80473-11042.55431   108.80127    19.57172    77.68446
  Hartree  4799.26791  4799.54680 -2415.02446    48.42375     2.85088    35.03011
  E(xc)   -1288.85035 -1288.55024 -1289.62090    -0.08772    -0.02228    -0.25745
  Local   -8354.31204 -8372.26469  8441.52252  -157.88583   -20.06114  -118.46832
  n-local  -586.20713  -586.26729  -594.33713     3.08854     0.84344     3.16844
  augment  2021.85127  2018.30269  1997.20191     2.00607    -0.81014     3.82931
  Kinetic  4089.46191  4076.33918  4151.11417    -0.90489    -2.93263     7.21710
  Fock        0.00000     0.00000     0.00000     0.00000     0.00000     0.00000
  vdW        -7.04165    -6.49425   -13.08558     0.04349    -0.14840    -0.15295
  -------------------------------------------------------------------------------------
  Total      18.93215    10.79843     5.20718     3.48468    -0.70856     8.05070
  in kB      79.66753    45.44040    21.91210    14.66375    -2.98164    33.87780
  external pressure =       49.01 kB  Pullay stress =        0.00 kB


 VOLUME and BASIS-vectors are now :
 -----------------------------------------------------------------------------
  energy-cutoff  :      600.00
  volume of cell :      380.74
      direct lattice vectors                 reciprocal lattice vectors
     5.508067131  0.000000000  0.000000000     0.181551890  0.103487603  0.008399732
    -2.757270575  4.837175369  0.000000000     0.000000000  0.206732219 -0.010700411
    -1.082770824  0.739656925 14.290190697     0.000000000  0.000000000  0.069978072

  length of vectors
     5.508067131  5.567836795 14.350227705     0.209144277  0.207008960  0.069978072


 FORCES acting on ions:
    Electron-Ion                     Ewald-Force                    Non-Local-Force
 -----------------------------------------------------------------------------------------------
   0.204E+01 0.983E+00 -.225E+01   -.211E+01 -.819E+00 0.114E+01   -.193E+00 -.193E+00 0.340E-01
   0.633E+01 -.225E+01 0.176E+02   -.586E+01 0.222E+01 -.168E+02   -.111E+01 0.371E+00 -.590E+00
   -.142E+00 0.520E+01 0.229E+02   0.274E+00 -.488E+01 -.224E+02   -.190E+00 -.888E+00 -.899E+00
   0.247E+01 0.129E+01 -.112E+02   -.214E+01 -.131E+01 0.108E+02   -.447E+00 0.608E-01 0.720E+00
   0.338E+01 -.187E+01 -.223E+02   -.321E+01 0.166E+01 0.219E+02   -.325E+00 0.397E+00 0.143E+01
   -.517E+01 -.269E+01 -.135E+01   0.490E+01 0.240E+01 0.159E+01   0.525E+00 0.392E+00 -.459E+00
   -.141E+02 -.232E+02 0.728E+02   0.141E+02 0.263E+02 -.727E+02   -.209E+00 -.186E+00 0.109E+01
   -.182E+01 0.319E+01 0.109E+03   0.313E+01 -.482E+01 -.109E+03   -.118E+00 0.293E+00 0.586E+00
   0.997E+01 -.151E+02 0.475E+02   -.101E+02 0.167E+02 -.473E+02   -.299E+00 0.158E+00 0.244E+00
   0.214E+02 0.200E+02 0.101E+03   -.230E+02 -.221E+02 -.981E+02   -.354E+00 0.791E-01 -.807E+00
   -.137E+02 0.189E+02 0.710E+02   0.143E+02 -.194E+02 -.714E+02   -.375E+00 -.321E+00 0.334E+00
   -.264E+02 -.436E+02 0.684E+02   0.271E+02 0.448E+02 -.680E+02   0.678E-01 0.215E+00 0.407E+00
   0.211E+02 0.249E+02 0.445E+02   -.216E+02 -.259E+02 -.454E+02   -.120E+00 0.249E+00 0.216E+00
   0.364E+02 -.145E+02 0.909E+02   -.376E+02 0.153E+02 -.908E+02   -.843E+00 0.414E+00 0.342E+00
   -.525E+01 -.458E+01 -.107E+03   0.532E+01 0.415E+01 0.108E+03   0.287E+00 0.635E-01 -.175E+00
   0.964E+01 0.354E+01 -.141E+03   -.103E+02 -.312E+01 0.143E+03   -.652E-01 0.229E+00 -.325E+00
   -.782E+01 -.363E+01 -.150E+03   0.796E+01 0.316E+01 0.150E+03   -.231E+00 -.349E+00 -.874E+00
   0.111E+02 0.710E+01 -.207E+03   -.108E+02 -.666E+01 0.208E+03   -.640E+00 0.522E-01 -.153E+01
   -.214E+02 -.753E+01 -.296E+03   0.242E+02 0.840E+01 0.315E+03   -.201E+01 -.774E+00 -.191E+02
   -.154E+02 -.130E+02 -.280E+03   0.195E+02 0.155E+02 0.299E+03   -.380E+01 -.267E+01 -.179E+02
   0.670E+01 -.793E+00 -.302E+03   -.724E+01 -.134E+01 0.328E+03   0.105E+01 0.316E+01 -.257E+02
   0.282E+01 0.144E+02 -.290E+03   -.500E+01 -.150E+02 0.314E+03   0.305E+01 -.361E+00 -.242E+02
   0.383E+01 0.115E+01 0.411E+03   -.457E+01 -.401E+00 -.440E+03   0.609E-01 -.186E+01 0.283E+02
   0.239E+01 0.109E+02 0.386E+03   -.370E+01 -.145E+02 -.409E+03   0.188E+01 0.418E+01 0.221E+02
   0.839E+01 -.173E+02 0.404E+03   -.872E+01 0.225E+02 -.427E+03   -.160E+00 -.598E+01 0.218E+02
   -.437E+01 0.261E+02 0.398E+03   0.566E+01 -.315E+02 -.423E+03   -.168E+01 0.544E+01 0.236E+02
   -.843E+01 -.194E+01 -.295E+03   0.112E+02 0.410E+01 0.313E+03   -.204E+01 -.231E+01 -.178E+02
   -.451E+00 0.132E+02 -.263E+03   0.246E+01 -.150E+02 0.276E+03   -.198E+01 0.948E+00 -.136E+02
   -.260E+01 0.110E+00 -.308E+03   0.764E+00 0.425E+00 0.329E+03   0.224E+01 -.802E+00 -.198E+02
   -.572E+01 -.826E+01 -.290E+03   0.460E+01 0.607E+01 0.308E+03   0.170E+01 0.262E+01 -.180E+02
   -.222E+02 -.141E+02 0.382E+03   0.274E+02 0.166E+02 -.402E+03   -.517E+01 -.236E+01 0.210E+02
   -.128E+02 -.610E+01 0.371E+03   0.177E+02 0.934E+01 -.390E+03   -.520E+01 -.356E+01 0.197E+02
   0.155E+02 0.989E+01 0.395E+03   -.185E+02 -.139E+02 -.416E+03   0.320E+01 0.421E+01 0.200E+02
   0.191E+02 0.187E+02 0.368E+03   -.242E+02 -.211E+02 -.384E+03   0.538E+01 0.236E+01 0.155E+02
   -.191E+02 0.108E+02 -.434E+03   0.224E+02 -.119E+02 0.460E+03   -.307E+01 0.304E+00 -.263E+02
   -.637E+01 -.105E+02 -.427E+03   0.644E+01 0.118E+02 0.449E+03   0.137E+01 -.102E+01 -.214E+02
   0.162E+02 -.966E+01 -.433E+03   -.193E+02 0.117E+02 0.456E+03   0.348E+01 -.180E+01 -.227E+02
   -.854E+01 0.932E+01 -.429E+03   0.107E+02 -.117E+02 0.450E+03   -.208E+01 0.209E+01 -.211E+02
   0.807E+01 0.539E+01 0.229E+03   -.920E+01 -.864E+01 -.244E+03   0.299E+00 0.342E+01 0.140E+02
   0.135E+02 0.947E+01 0.238E+03   -.182E+02 -.104E+02 -.258E+03   0.534E+01 0.651E+00 0.198E+02
   0.611E+01 -.310E+02 0.234E+03   -.667E+01 0.361E+02 -.253E+03   -.574E-01 -.418E+01 0.193E+02
   -.166E+02 0.135E+02 0.235E+03   0.219E+02 -.147E+02 -.253E+03   -.600E+01 0.959E+00 0.187E+02
 -----------------------------------------------------------------------------------------------
   0.889E+01 -.369E+01 0.375E+01   -.497E-13 0.133E-12 0.369E-12   -.884E+01 0.370E+01 -.374E+01
 
 
 POSITION                                       TOTAL-FORCE (eV/Angst)
 -----------------------------------------------------------------------------------
      0.61590      4.54382      0.00375        -0.249991     -0.068450     -1.223670
      3.81927      1.10354      4.91412        -0.493184      0.241496      0.201936
      2.30511      3.75557      5.00535        -0.083340     -0.459190     -0.195479
     -0.41667      2.01839      9.45825        -0.041649      0.039843      0.146248
     -1.88771      4.37738      9.27411        -0.114787      0.191116      0.817827
      0.90154      4.42590      9.52272         0.164100      0.037471     -0.145684
     -0.65741      1.81303      2.42952        -0.259480      2.708467      1.177717
     -2.10512      4.32586      2.38659         1.170088     -1.312281      0.576929
      2.05313      1.82043      2.46805        -0.321822      1.662552      0.432148
      0.70675      4.31477      2.42233        -1.737313     -1.951363      2.050003
     -0.49948      0.40671      7.18289         0.130567     -0.775402      0.004433
     -1.86288      2.76820      7.16271         0.644603      1.260750      0.684039
      2.27349      0.39681      7.25010        -0.473189     -0.715612     -0.637069
      0.92669      2.75292      7.16294        -1.760940      1.156175      0.448088
      0.90903      1.29230     11.74244         0.264652     -0.411899      1.208753
     -0.46517      3.69917     11.77164        -0.686517      0.630910      1.000950
      3.64425      1.32314     11.86904        -0.097510     -0.807164     -0.632062
      2.26266      3.68240     11.91584        -0.269013      0.543895     -0.780651
      4.76729      0.23093      3.48689         0.827545      0.152295     -0.300275
      3.39934      2.67310      3.36464         0.233353     -0.119577      0.989213
     -0.73859      5.01237      3.39694         0.543564      1.072264      0.377740
      0.65200      2.75730      3.43567         0.901151     -0.950759     -0.259074
      0.75121      1.11722      1.46700        -0.681981     -1.128996     -0.423433
     -0.71546      3.46126      1.50062         0.568107      0.610310     -0.836534
      3.46574      1.06097      1.55426        -0.472309     -0.716679     -1.807314
      2.05444      3.48346      1.51683        -0.407812      0.041653     -1.104318
      0.81458      1.19665      8.22260         0.827365     -0.109161     -0.044365
     -0.47620      3.64136      8.28446        -0.006829     -0.785572     -0.976741
      3.63831      1.24215      8.19814         0.316705     -0.235080      0.348346
      2.24494      3.57833      8.18140         0.591354      0.349707     -0.089817
     -0.51793      1.98929      6.13945         0.111004      0.180653      0.520785
     -1.84506      4.39472      6.20378        -0.282375     -0.290890      0.343730
      2.29596      1.95879      6.22458         0.215028      0.182306     -1.104906
      0.88218      4.41911      6.21525         0.139642     -0.134758     -0.524440
     -0.50193      2.17810     12.78574         0.290971     -0.723233     -0.270068
     -1.88378      4.52858     12.78644         1.382758      0.178537      0.236096
      2.24713      2.02468     12.81074         0.358463      0.327118      0.162962
      0.83310      4.56795     12.84704         0.203069     -0.307821     -0.038860
     -3.23420      5.29159     10.90304        -0.733375      0.142506     -1.398609
     -1.89398      2.91461     10.80464         0.633426     -0.303466      0.359057
     -0.39505      5.22458     10.75254        -0.699996      0.907485      0.411316
      0.93398      2.93481     10.78124        -0.644104     -0.310158      0.295055
 -----------------------------------------------------------------------------------
    total drift:                                0.044847      0.009472      0.007573


--------------------------------------------------------------------------------------------------------



  FREE ENERGIE OF THE ION-ELECTRON SYSTEM (eV)
  ---------------------------------------------------
  free  energy   TOTEN  =      -234.53528916 eV

  energy  without entropy=     -234.53215660  energy(sigma->0) =     -234.53372288
 


--------------------------------------------------------------------------------------------------------


    POTLOK:  cpu time    0.0614: real time    0.0614


--------------------------------------------------------------------------------------------------------


     LOOP+:  cpu time 2151.0411: real time 2154.3116
    4ORBIT:  cpu time    0.0000: real time    0.0000
 


 total charge     
 
# of ion       s       p       d       tot
------------------------------------------
    1        0.072   0.143   0.000   0.215
    2        0.097   0.203   0.000   0.300
    3        0.092   0.194   0.000   0.286
    4        0.097   0.209   0.000   0.306
    5        0.107   0.233   0.000   0.340
    6        0.102   0.220   0.000   0.322
    7        0.457   0.738   7.428   8.623
    8        0.479   0.784   7.260   8.523
    9        0.483   0.798   7.272   8.553
   10        0.504   0.849   7.324   8.677
   11        0.453   0.728   7.454   8.636
   12        0.474   0.764   7.258   8.496
   13        0.442   0.706   7.391   8.539
   14        0.437   0.689   7.378   8.503
   15        0.436   0.691   7.391   8.518
   16        0.481   0.791   7.266   8.538
   17        0.472   0.760   7.243   8.476
   18        0.444   0.709   7.390   8.543
   19        1.567   3.468   0.000   5.035
   20        1.571   3.428   0.000   4.999
   21        1.585   3.382   0.000   4.966
   22        1.582   3.366   0.000   4.948
   23        1.584   3.399   0.000   4.983
   24        1.578   3.381   0.000   4.959
   25        1.574   3.464   0.000   5.038
   26        1.581   3.409   0.000   4.989
   27        1.558   3.493   0.000   5.051
   28        1.556   3.483   0.000   5.038
   29        1.565   3.467   0.000   5.032
   30        1.563   3.461   0.000   5.024
   31        1.568   3.429   0.000   4.997
   32        1.567   3.425   0.000   4.993
   33        1.565   3.462   0.000   5.027
   34        1.557   3.481   0.000   5.038
   35        1.583   3.370   0.000   4.953
   36        1.572   3.407   0.000   4.978
   37        1.571   3.431   0.000   5.002
   38        1.572   3.403   0.000   4.975
   39        1.559   3.487   0.000   5.047
   40        1.569   3.423   0.000   4.993
   41        1.569   3.433   0.000   5.002
   42        1.565   3.461   0.000   5.026
--------------------------------------------------
tot         43.810  92.620  88.055 224.485
 


 magnetization (x)
 
# of ion       s       p       d       tot
------------------------------------------
    1        0.001  -0.000   0.000   0.000
    2        0.001  -0.001   0.000   0.000
    3        0.001   0.001   0.000   0.001
    4        0.000   0.000   0.000   0.001
    5        0.000  -0.001   0.000  -0.000
    6        0.001  -0.001   0.000  -0.000
    7        0.005   0.007  -0.000   0.012
    8        0.012   0.015   1.338   1.365
    9        0.013   0.018   1.306   1.337
   10        0.011   0.017   1.206   1.234
   11        0.004   0.003  -0.015  -0.008
   12        0.009   0.009   1.241   1.259
   13        0.001   0.001  -0.016  -0.014
   14        0.001   0.001  -0.013  -0.012
   15        0.005   0.005   0.000   0.010
   16        0.010   0.013   1.243   1.266
   17        0.010   0.011   1.267   1.288
   18        0.002   0.003  -0.015  -0.009
   19        0.001  -0.056   0.000  -0.055
   20        0.001  -0.075   0.000  -0.074
   21        0.002  -0.135   0.000  -0.133
   22        0.001  -0.125   0.000  -0.124
   23        0.001  -0.095   0.000  -0.093
   24        0.001  -0.128   0.000  -0.127
   25        0.001  -0.049   0.000  -0.047
   26        0.001  -0.096   0.000  -0.095
   27       -0.000  -0.007   0.000  -0.007
   28        0.000  -0.035   0.000  -0.034
   29        0.001  -0.021   0.000  -0.020
   30        0.000  -0.029   0.000  -0.029
   31        0.000  -0.048   0.000  -0.048
   32        0.000  -0.046   0.000  -0.046
   33       -0.000  -0.063   0.000  -0.063
   34       -0.000  -0.011   0.000  -0.012
   35        0.001  -0.089   0.000  -0.088
   36       -0.000  -0.064   0.000  -0.064
   37        0.000  -0.048   0.000  -0.048
   38       -0.000  -0.107   0.000  -0.107
   39        0.000  -0.026   0.000  -0.026
   40        0.000  -0.083   0.000  -0.083
   41        0.001  -0.056   0.000  -0.055
   42        0.000  -0.038   0.000  -0.038
--------------------------------------------------
tot          0.097  -1.427   7.541   6.212
 

 total amount of memory used by VASP MPI-rank0   155586. kBytes
=======================================================================

   base      :      30000. kBytes
   nonlr-proj:       4451. kBytes
   fftplans  :       1687. kBytes
   grid      :       4644. kBytes
   one-center:        342. kBytes
   wavefun   :     114462. kBytes
 
  
  
 General timing and accounting informations for this job:
 ========================================================
  
                  Total CPU time used (sec):     2175.788
                            User time (sec):     2052.391
                          System time (sec):      123.397
                         Elapsed time (sec):     2179.521
  
                   Maximum memory used (kb):      669976.
                   Average memory used (kb):           0.
  
                          Minor page faults:        69874
                          Major page faults:           79
                 Voluntary context switches:          587
