       N       E                     dE             d eps       ncg     rms          ort
DAV:   1     0.346814520771E+04    0.34681E+04   -0.13931E+05  5760   0.216E+03
DAV:   2     0.415438551256E+03   -0.30527E+04   -0.28158E+04  5760   0.525E+02
DAV:   3    -0.218488102657E+03   -0.63393E+03   -0.58192E+03  5760   0.253E+02
DAV:   4    -0.270032432614E+03   -0.51544E+02   -0.50347E+02  5760   0.741E+01
DAV:   5    -0.271927199686E+03   -0.18948E+01   -0.18909E+01  5760   0.142E+01
SDA:   6     0.160562922369E+03    0.43249E+03   -0.18909E+01  5760   0.462E+04 0.000E+00
CGA:   7     0.573331518002E+02   -0.10323E+03   -0.15686E+03  5760   0.427E+04 0.985E+03
CGA:   8     0.447779363769E+01   -0.52855E+02   -0.23872E+03  5760   0.130E+04 0.609E+03
CGA:   9    -0.158579687217E+03   -0.16306E+03   -0.16002E+02  5760   0.233E+04 0.570E+04
CGA:  10    -0.195771998539E+03   -0.37192E+02   -0.36779E+02  5760   0.168E+03-0.315E+02
CGA:  11    -0.201276529313E+03   -0.55045E+01   -0.98908E+01  5760   0.348E+03-0.527E+02
CGA:  12    -0.207566181413E+03   -0.62897E+01   -0.88993E+01  5760   0.129E+03-0.813E+01
CGA:  13    -0.212952914246E+03   -0.53867E+01   -0.71092E+01  5760   0.121E+03-0.108E+02
CGA:  14    -0.215435153674E+03   -0.24822E+01   -0.29920E+01  5760   0.426E+02-0.260E+02
CGA:  15    -0.217617650240E+03   -0.21825E+01   -0.25306E+01  5760   0.497E+02-0.104E+01
CGA:  16    -0.219489048530E+03   -0.18714E+01   -0.21921E+01  5760   0.851E+01-0.650E+01
CGA:  17    -0.219894185090E+03   -0.40514E+00   -0.47864E+00  5760   0.918E+01-0.553E+00
CGA:  18    -0.220499013515E+03   -0.60483E+00   -0.64469E+00  5760   0.358E+01-0.176E+00
CGA:  19    -0.220817535646E+03   -0.31852E+00   -0.32178E+00  5760   0.165E+01 0.113E-01
CGA:  20    -0.220974436259E+03   -0.15690E+00   -0.15883E+00  5760   0.115E+01 0.194E-01
CGA:  21    -0.221099444288E+03   -0.12501E+00   -0.12626E+00  5760   0.104E+01 0.244E-01
CGA:  22    -0.221275375118E+03   -0.17593E+00   -0.17016E+00  5760   0.145E+01 0.112E+00
CGA:  23    -0.221414918259E+03   -0.13954E+00   -0.13919E+00  5760   0.885E+00 0.597E-02
CGA:  24    -0.221573288319E+03   -0.15837E+00   -0.16113E+00  5760   0.181E+01-0.465E-01
CGA:  25    -0.221739349317E+03   -0.16606E+00   -0.16886E+00  5760   0.139E+01 0.253E-01
CGA:  26    -0.221957312096E+03   -0.21796E+00   -0.21903E+00  5760   0.934E+00-0.297E-01
CGA:  27    -0.222085896276E+03   -0.12858E+00   -0.12824E+00  5760   0.905E+00 0.160E-01
CGA:  28    -0.222168625874E+03   -0.82730E-01   -0.78580E-01  5760   0.103E+01 0.197E-02
CGA:  29    -0.222273166221E+03   -0.10454E+00   -0.10579E+00  5760   0.690E+00 0.150E-01
CGA:  30    -0.222355716221E+03   -0.82550E-01   -0.82796E-01  5760   0.626E+00 0.156E-01
CGA:  31    -0.222412177523E+03   -0.56461E-01   -0.54648E-01  5760   0.643E+00 0.144E-02
CGA:  32    -0.222482229272E+03   -0.70052E-01   -0.70913E-01  5760   0.673E+00 0.265E-01
CGA:  33    -0.222543622793E+03   -0.61394E-01   -0.59187E-01  5760   0.541E+00-0.320E+00
CGA:  34    -0.815120607980E+01    0.21439E+03   -0.62676E+02  5760   0.143E+05-0.371E+03
CGA:  35    -0.196101257973E+03   -0.18795E+03   -0.66094E+03  5760   0.434E+03-0.854E+03
CGA:  36    -0.206444099869E+03   -0.10343E+02   -0.74177E+01  5760   0.171E+03 0.209E+03
CGA:  37    -0.208432268323E+03   -0.19882E+01   -0.11153E+01  5760   0.147E+03 0.228E+03
CGA:  38    -0.211613961266E+03   -0.31817E+01   -0.17662E+01  5760   0.144E+03 0.162E+03
CGA:  39    -0.214833343612E+03   -0.32194E+01   -0.23582E+01  5760   0.133E+03 0.157E+03
CGA:  40    -0.217707779883E+03   -0.28744E+01   -0.29073E+01  5760   0.749E+02 0.939E+02
CGA:  41    -0.219708698212E+03   -0.20009E+01   -0.18404E+01  5760   0.337E+02 0.444E+02
CGA:  42    -0.220799317922E+03   -0.10906E+01   -0.69956E+00  5760   0.169E+02 0.220E+02
CGA:  43    -0.221491473207E+03   -0.69216E+00   -0.29016E+00  5760   0.105E+02 0.137E+02
CGA:  44    -0.222077438052E+03   -0.58596E+00   -0.19819E+00  5760   0.574E+01 0.865E+01
CGA:  45    -0.222389285661E+03   -0.31185E+00   -0.14945E+00  5760   0.212E+01 0.302E+01
CGA:  46    -0.222608260175E+03   -0.21897E+00   -0.21028E+00  5760   0.184E+01 0.516E+00
CGA:  47    -0.222828850758E+03   -0.22059E+00   -0.21051E+00  5760   0.173E+01 0.214E-01
CGA:  48    -0.223139177882E+03   -0.31033E+00   -0.33804E+00  5760   0.150E+01-0.212E+00
CGA:  49    -0.223257603493E+03   -0.11843E+00   -0.10947E+00  5760   0.821E+00 0.920E-01
CGA:  50    -0.223361607171E+03   -0.10400E+00   -0.10305E+00  5760   0.499E+00 0.556E-02
CGA:  51    -0.223433291405E+03   -0.71684E-01   -0.72888E-01  5760   0.266E+00 0.145E-01
CGA:  52    -0.223467525947E+03   -0.34235E-01   -0.31028E-01  5760   0.264E+00-0.435E-02
CGA:  53    -0.223498077506E+03   -0.30552E-01   -0.30392E-01  5760   0.998E-01-0.677E-02
CGA:  54    -0.223515043496E+03   -0.16966E-01   -0.16978E-01  5760   0.110E+00 0.797E-02
CGA:  55    -0.223527472457E+03   -0.12429E-01   -0.10526E-01  5760   0.700E-01 0.515E-02
CGA:  56    -0.223542152273E+03   -0.14680E-01   -0.15093E-01  5760   0.539E-01-0.340E-02
CGA:  57    -0.223553462620E+03   -0.11310E-01   -0.11331E-01  5760   0.654E-01 0.127E-02
CGA:  58    -0.223561218514E+03   -0.77559E-02   -0.69521E-02  5760   0.668E-01 0.264E-02
CGA:  59    -0.223575617191E+03   -0.14399E-01   -0.14695E-01  5760   0.378E-01-0.268E-02
CGA:  60    -0.223583211081E+03   -0.75939E-02   -0.76040E-02  5760   0.430E-01 0.221E-03
CGA:  61    -0.223587511774E+03   -0.43007E-02   -0.41491E-02  5760   0.371E-01-0.775E-03
CGA:  62    -0.223593355407E+03   -0.58436E-02   -0.58306E-02  5760   0.183E-01 0.435E-03
CGA:  63    -0.223596374462E+03   -0.30191E-02   -0.30190E-02  5760   0.297E-01-0.236E-03
CGA:  64    -0.223599024450E+03   -0.26500E-02   -0.26905E-02  5760   0.151E-01 0.114E-03
CGA:  65    -0.223602168059E+03   -0.31436E-02   -0.31624E-02  5760   0.200E-01-0.343E-03
CGA:  66    -0.223603559072E+03   -0.13910E-02   -0.14611E-02  5760   0.120E-01-0.232E-03
CGA:  67    -0.223606147667E+03   -0.25886E-02   -0.25883E-02  5760   0.101E-01-0.191E-05
CGA:  68    -0.223607243296E+03   -0.10956E-02   -0.10987E-02  5760   0.127E-01-0.322E-04
CGA:  69    -0.223609101365E+03   -0.18581E-02   -0.18576E-02  5760   0.626E-02 0.101E-03
CGA:  70    -0.223610254959E+03   -0.11536E-02   -0.11501E-02  5760   0.136E-01 0.679E-04
CGA:  71    -0.223611760775E+03   -0.15058E-02   -0.15014E-02  5760   0.723E-02 0.184E-04
CGA:  72    -0.223613860529E+03   -0.20998E-02   -0.21088E-02  5760   0.145E-01-0.216E-04
CGA:  73    -0.223615110921E+03   -0.12504E-02   -0.12524E-02  5760   0.101E-01 0.962E-03
CGA:  74    -0.223618054058E+03   -0.29431E-02   -0.29770E-02  5760   0.102E-01-0.250E-03
CGA:  75    -0.223620317336E+03   -0.22633E-02   -0.23364E-02  5760   0.193E-01 0.176E-03
SDA:  76    -0.223621971304E+03   -0.16540E-02   -0.16089E-02  5760   0.842E-02-0.463E-04
CGA:  77    -0.223623372059E+03   -0.14008E-02   -0.14034E-02  5760   0.108E-01 0.135E-03
CGA:  78    -0.223624461785E+03   -0.10897E-02   -0.10660E-02  5760   0.571E-02 0.146E-03
CGA:  79    -0.223625661827E+03   -0.12000E-02   -0.12237E-02  5760   0.334E-02-0.208E-03
CGA:  80    -0.223626591852E+03   -0.93003E-03   -0.92645E-03  5760   0.305E-02 0.288E-04
CGA:  81    -0.223626990001E+03   -0.39815E-03   -0.38947E-03  5760   0.402E-02 0.964E-04
CGA:  82    -0.223627686898E+03   -0.69690E-03   -0.69679E-03  5760   0.229E-02 0.189E-04
CGA:  83    -0.223628432497E+03   -0.74560E-03   -0.75561E-03  5760   0.197E-02-0.436E-04
CGA:  84    -0.223629155250E+03   -0.72275E-03   -0.72509E-03  5760   0.297E-02-0.140E-04
CGA:  85    -0.223629515177E+03   -0.35993E-03   -0.34067E-03  5760   0.337E-02 0.190E-03
CGA:  86    -0.223630201865E+03   -0.68669E-03   -0.68639E-03  5760   0.208E-02 0.166E-04
CGA:  87    -0.223631001953E+03   -0.80009E-03   -0.80224E-03  5760   0.260E-02 0.526E-05
CGA:  88    -0.223631752485E+03   -0.75053E-03   -0.76041E-03  5760   0.603E-02 0.127E-03
CGA:  89    -0.223632461612E+03   -0.70913E-03   -0.62265E-03  5760   0.308E-02 0.331E-03
CGA:  90    -0.223633673207E+03   -0.12116E-02   -0.12118E-02  5760   0.432E-02 0.225E-04
CGA:  91    -0.223634637549E+03   -0.96434E-03   -0.97975E-03  5760   0.880E-02 0.349E-03
CGA:  92    -0.223635767017E+03   -0.11295E-02   -0.10805E-02  5760   0.382E-02 0.101E-03
CGA:  93    -0.223637115489E+03   -0.13485E-02   -0.13992E-02  5760   0.621E-02-0.737E-04
CGA:  94    -0.223637854844E+03   -0.73936E-03   -0.69875E-03  5760   0.524E-02 0.463E-03
CGA:  95    -0.223638951206E+03   -0.10964E-02   -0.10915E-02  5760   0.450E-02-0.144E-03
CGA:  96    -0.223639634811E+03   -0.68360E-03   -0.67275E-03  5760   0.479E-02 0.894E-04
CGA:  97    -0.223640422035E+03   -0.78722E-03   -0.76005E-03  5760   0.426E-02 0.896E-04
CGA:  98    -0.223641252432E+03   -0.83040E-03   -0.82986E-03  5760   0.448E-02 0.613E-04
CGA:  99    -0.223641856630E+03   -0.60420E-03   -0.54859E-03  5760   0.339E-02 0.269E-03
CGA: 100    -0.223642506978E+03   -0.65035E-03   -0.65002E-03  5760   0.304E-02 0.159E-04
CGA: 101    -0.223643048044E+03   -0.54107E-03   -0.53289E-03  5760   0.386E-02 0.141E-03
CGA: 102    -0.223643541069E+03   -0.49303E-03   -0.48225E-03  5760   0.208E-02 0.141E-04
CGA: 103    -0.223643942001E+03   -0.40093E-03   -0.40265E-03  5760   0.181E-02 0.159E-04
CGA: 104    -0.223644182658E+03   -0.24066E-03   -0.23338E-03  5760   0.174E-02 0.703E-04
CGA: 105    -0.223644473397E+03   -0.29074E-03   -0.28557E-03  5760   0.108E-02-0.557E-05
CGA: 106    -0.223644645731E+03   -0.17233E-03   -0.17034E-03  5760   0.109E-02 0.202E-04
SDA: 107    -0.223644802654E+03   -0.15692E-03   -0.15083E-03  5760   0.967E-03 0.266E-04
CGA: 108    -0.223644880921E+03   -0.78267E-04   -0.68400E-04  5760   0.511E-03 0.102E-03
CGA: 109    -0.223644979860E+03   -0.98939E-04   -0.98995E-04  5760   0.492E-03-0.415E-05
CGA: 110    -0.223645146626E+03   -0.16677E-03   -0.17022E-03  5760   0.530E-03-0.169E-04
CGA: 111    -0.223645255148E+03   -0.10852E-03   -0.10977E-03  5760   0.107E-02 0.274E-04
CGA: 112    -0.223645392376E+03   -0.13723E-03   -0.13236E-03  5760   0.839E-03 0.151E-04
CGA: 113    -0.223645644596E+03   -0.25222E-03   -0.25990E-03  5760   0.831E-03-0.332E-04
CGA: 114    -0.223645858228E+03   -0.21363E-03   -0.21346E-03  5760   0.914E-03 0.431E-06
CGA: 115    -0.223645984794E+03   -0.12657E-03   -0.12285E-03  5760   0.112E-02 0.618E-04
CGA: 116    -0.223646181586E+03   -0.19679E-03   -0.19535E-03  5760   0.854E-03-0.948E-05
CGA: 117    -0.223646379752E+03   -0.19817E-03   -0.19968E-03  5760   0.965E-03-0.772E-06
CGA: 118    -0.223646521126E+03   -0.14137E-03   -0.14016E-03  5760   0.106E-02 0.132E-04
CGA: 119    -0.223646674127E+03   -0.15300E-03   -0.14870E-03  5760   0.604E-03-0.388E-05
CGA: 120    -0.223646827526E+03   -0.15340E-03   -0.15428E-03  5760   0.107E-02-0.161E-05
CGA: 121    -0.223646962128E+03   -0.13460E-03   -0.13049E-03  5760   0.682E-03 0.159E-04
CGA: 122    -0.223647068387E+03   -0.10626E-03   -0.10565E-03  5760   0.490E-03-0.729E-06
CGA: 123    -0.223647165796E+03   -0.97409E-04   -0.97929E-04  5760   0.682E-03-0.448E-05
CGA: 124    -0.223647248363E+03   -0.82567E-04   -0.81586E-04  5760   0.412E-03-0.504E-06
CGA: 125    -0.223647325480E+03   -0.77117E-04   -0.77222E-04  5760   0.279E-03-0.373E-05
CGA: 126    -0.223647363352E+03   -0.37872E-04   -0.37637E-04  5760   0.306E-03 0.235E-05
CGA: 127    -0.223647415204E+03   -0.51852E-04   -0.51780E-04  5760   0.239E-03 0.199E-05
CGA: 128    -0.223647459730E+03   -0.44526E-04   -0.44512E-04  5760   0.207E-03 0.269E-05
CGA: 129    -0.223647485310E+03   -0.25579E-04   -0.25241E-04  5760   0.162E-03 0.411E-05
CGA: 130    -0.223647510644E+03   -0.25334E-04   -0.25379E-04  5760   0.117E-03 0.133E-05
CGA: 131    -0.223647539862E+03   -0.29218E-04   -0.29188E-04  5760   0.176E-03 0.318E-05
CGA: 132    -0.223647559635E+03   -0.19774E-04   -0.19839E-04  5760   0.106E-03 0.154E-05
CGA: 133    -0.223647579474E+03   -0.19839E-04   -0.19881E-04  5760   0.953E-04-0.808E-06
CGA: 134    -0.223647596277E+03   -0.16803E-04   -0.16808E-04  5760   0.114E-03-0.258E-05
CGA: 135    -0.223647610732E+03   -0.14455E-04   -0.14219E-04  5760   0.798E-04-0.107E-05
CGA: 136    -0.223647626726E+03   -0.15994E-04   -0.16060E-04  5760   0.727E-04-0.248E-05
CGA: 137    -0.223647636453E+03   -0.97270E-05   -0.96280E-05  5760   0.699E-04-0.948E-06
SDA: 138    -0.223647646573E+03   -0.10120E-04   -0.10087E-04  5760   0.466E-04-0.154E-05
CGA: 139    -0.223647651570E+03   -0.49969E-05   -0.50046E-05  5760   0.451E-04 0.618E-06
CGA: 140    -0.223647657501E+03   -0.59315E-05   -0.59482E-05  5760   0.226E-04 0.900E-06
CGA: 141    -0.223647664180E+03   -0.66787E-05   -0.65083E-05  5760   0.159E-04 0.153E-05
CGA: 142    -0.223647670785E+03   -0.66055E-05   -0.62023E-05  5760   0.117E-04 0.210E-05
CGA: 143    -0.223647675087E+03   -0.43018E-05   -0.42305E-05  5760   0.146E-04 0.625E-06
CGA: 144    -0.223647678048E+03   -0.29606E-05   -0.29616E-05  5760   0.270E-04-0.116E-06
CGA: 145    -0.223647681000E+03   -0.29518E-05   -0.29205E-05  5760   0.124E-04-0.385E-07
CGA: 146    -0.223647684723E+03   -0.37237E-05   -0.37451E-05  5760   0.126E-04-0.477E-07
CGA: 147    -0.223647687611E+03   -0.28880E-05   -0.29274E-05  5760   0.353E-04-0.799E-06
CGA: 148    -0.223647691312E+03   -0.37009E-05   -0.36079E-05  5760   0.136E-04-0.124E-05
CGA: 149    -0.223647694335E+03   -0.30225E-05   -0.30465E-05  5760   0.226E-04-0.602E-06
CGA: 150    -0.223647696049E+03   -0.17146E-05   -0.16826E-05  5760   0.128E-04 0.470E-08
CGA: 151    -0.223647700034E+03   -0.39851E-05   -0.39379E-05  5760   0.211E-04 0.548E-06
CGA: 152    -0.223647701807E+03   -0.17727E-05   -0.17921E-05  5760   0.151E-04-0.133E-06
CGA: 153    -0.223647704723E+03   -0.29160E-05   -0.29186E-05  5760   0.115E-04-0.137E-06
CGA: 154    -0.223647706513E+03   -0.17896E-05   -0.17925E-05  5760   0.231E-04 0.243E-06
CGA: 155    -0.223647709396E+03   -0.28830E-05   -0.29311E-05  5760   0.955E-05 0.649E-06
CGA: 156    -0.223647711168E+03   -0.17720E-05   -0.17726E-05  5760   0.144E-04 0.335E-06
CGA: 157    -0.223647712399E+03   -0.12315E-05   -0.12427E-05  5760   0.697E-05 0.305E-06
CGA: 158    -0.223647714570E+03   -0.21705E-05   -0.22378E-05  5760   0.961E-05-0.370E-06
CGA: 159    -0.223647715347E+03   -0.77757E-06   -0.77173E-06  5760   0.750E-05-0.132E-06
CGA: 160    -0.223647716550E+03   -0.12032E-05   -0.12010E-05  5760   0.470E-05-0.228E-07
CGA: 161    -0.223647717326E+03   -0.77590E-06   -0.77365E-06  5760   0.876E-05-0.174E-06
   1 F= -.23275380E+03 E0= -.23274898E+03  d E =-.963564E-02  mag=     6.0000
