 running on   64 total cores
 distrk:  each k-point on   64 cores,    1 groups
 distr:  one band on    4 cores,   16 groups
 using from now: INCAR     
 vasp.5.4.4.18Apr17-6-g9f103f2a35 (build Nov 22 2021 14:44:17) complex          
  
 POSCAR found type information on POSCAR  Li Co O 
 POSCAR found :  3 types and      42 ions
 scaLAPACK will be used
 LDA part: xc-table for Pade appr. of Perdew
 generate k-points for:    6    6    2
 POSCAR, INCAR and KPOINTS ok, starting setup
 FFT: planning ...
 WAVECAR not read
 entering main loop
       N       E                     dE             d eps       ncg     rms          ort
DAV:   1     0.348066567013E+04    0.34807E+04   -0.13935E+05  5760   0.217E+03
DAV:   2     0.404849995190E+03   -0.30758E+04   -0.28350E+04  5760   0.531E+02
DAV:   3    -0.221638518225E+03   -0.62649E+03   -0.57340E+03  5760   0.253E+02
DAV:   4    -0.271301226386E+03   -0.49663E+02   -0.48624E+02  5760   0.735E+01
DAV:   5    -0.273069496481E+03   -0.17683E+01   -0.17650E+01  5760   0.138E+01
 gam= 0.000 g(H,U,f)=  0.199E+04 0.291E+04 0.105E+04 ort(H,U,f) = 0.000E+00 0.000E+00 0.000E+00
SDA:   6     0.197254175205E+03    0.47032E+03   -0.17650E+01  5760   0.594E+04 0.000E+00
 gam= 0.000 trial= 0.400  step= 0.084 mean= 0.400
 gam= 0.000 g(H,U,f)=  0.192E+04 0.173E+05 0.328E+05 ort(H,U,f) = 0.399E+03-0.611E+04-0.127E+05
CGA:   7     0.382233261790E+03    0.18498E+03   -0.25042E+03  5760   0.520E+05-0.184E+05
 gam= 0.000 trial= 0.384  step= 0.123 mean= 0.384
 gam= 1.286 g(H,U,f)=  0.785E+04 0.517E+05 0.728E+04 ort(H,U,f) =-0.341E+04-0.133E+05-0.215E+04
CGA:   8     0.396253850191E+04    0.35803E+04   -0.32051E+04  5760   0.669E+05-0.189E+05
 gam= 1.286 trial= 0.371  step= 0.131 mean= 0.371
 gam= 0.263 g(H,U,f)=  0.831E+04 0.930E+04 0.476E+01 ort(H,U,f) =-0.584E+04-0.207E+04-0.315E+01
CGA:   9     0.364039116863E+04   -0.32215E+03   -0.27880E+04  5760   0.176E+05-0.791E+04
 gam= 0.263 trial= 0.359  step= 0.063 mean= 0.359
 gam= 0.000 g(H,U,f)=  0.213E+04 0.592E+05 0.190E+05 ort(H,U,f) =-0.121E+04-0.587E+05-0.115E+05
CGA:  10     0.543200998901E+03   -0.30972E+04   -0.48871E+03  5760   0.803E+05-0.715E+05
 gam= 0.000 trial= 0.344  step= 0.142 mean= 0.344
 gam= 0.525 g(H,U,f)=  0.105E+05 0.310E+05 0.739E+03 ort(H,U,f) =-0.341E+04-0.939E+04-0.191E+03
CGA:  11     0.381903530884E+04    0.32758E+04   -0.56921E+04  5760   0.422E+05-0.130E+05
 gam= 0.525 trial= 0.334  step= 0.100 mean= 0.334
 gam= 0.000 g(H,U,f)=  0.753E+04 0.151E+05 0.123E+05 ort(H,U,f) =-0.548E+04-0.158E+05-0.181E+05
CGA:  12     0.245406410993E+04   -0.13650E+04   -0.17688E+04  5760   0.349E+05-0.394E+05
 gam= 0.000 trial= 0.323  step= 0.078 mean= 0.323
 gam= 0.000 g(H,U,f)=  0.470E+04 0.173E+06 0.562E+05 ort(H,U,f) =-0.438E+04-0.207E+06-0.671E+05
CGA:  13     0.162913117383E+04   -0.82493E+03   -0.13635E+04  5760   0.234E+06-0.279E+06
 gam= 0.000 trial= 0.310  step= 0.137 mean= 0.310
 gam= 0.205 g(H,U,f)=  0.117E+05 0.303E+05 0.597E+04 ort(H,U,f) =-0.576E+04-0.119E+05-0.206E+04
CGA:  14     0.512763873779E+04    0.34985E+04   -0.16009E+05  5760   0.480E+05-0.198E+05
 gam= 0.205 trial= 0.302  step= 0.121 mean= 0.302
 gam= 1.397 g(H,U,f)=  0.114E+05 0.546E+05 0.994E+03 ort(H,U,f) =-0.661E+04 0.167E+05 0.122E+04
CGA:  15     0.371349272563E+04   -0.14141E+04   -0.26674E+04  5760   0.670E+05 0.113E+05
 gam= 1.397 trial= 0.293  step= 0.106 mean= 0.293
 gam= 1.129 g(H,U,f)=  0.336E+05 0.392E+05 0.286E+04 ort(H,U,f) =-0.904E+04-0.200E+05-0.158E+04
CGA:  16     0.101642466751E+05    0.64508E+04   -0.44058E+04  5760   0.757E+05-0.307E+05
 gam= 1.129 trial= 0.283  step= 0.518 mean= 0.283
 gam= 0.801 g(H,U,f)=  0.446E+05 0.156E+05 0.417E+03 ort(H,U,f) =-0.729E+03-0.487E+04-0.223E+03
CGA:  17     0.316248081061E+04   -0.70018E+04   -0.10629E+05  5760   0.606E+05-0.582E+04
 gam= 0.801 trial= 0.295  step= 0.136 mean= 0.295
 gam= 0.200 g(H,U,f)=  0.641E+04 0.560E+04 0.112E+03 ort(H,U,f) = 0.804E+04 0.486E+04 0.426E+02
CGA:  18     0.139093336337E+04   -0.17715E+04   -0.38040E+04  5760   0.121E+05 0.129E+05
 gam= 0.200 trial= 0.287  step= 0.054 mean= 0.287
 gam= 0.000 g(H,U,f)=  0.193E+04 0.127E+04 0.289E+02 ort(H,U,f) = 0.383E+04 0.297E+04 0.767E+02
CGA:  19     0.102195190663E+04   -0.36898E+03   -0.39554E+03  5760   0.323E+04 0.687E+04
 gam= 0.000 trial= 0.275  step= 0.104 mean= 0.275
 gam= 0.510 g(H,U,f)=  0.131E+04 0.333E+03 0.183E+01 ort(H,U,f) = 0.412E+03 0.169E+03 0.200E+01
CGA:  20     0.823529581916E+03   -0.19842E+03   -0.16788E+03  5760   0.165E+04 0.583E+03
 gam= 0.510 trial= 0.267  step= 0.316 mean= 0.267
 gam= 0.000 g(H,U,f)=  0.337E+04 0.338E+04 0.822E+02 ort(H,U,f) = 0.515E+03-0.201E+04-0.563E+02
CGA:  21     0.564385510414E+03   -0.25914E+03   -0.30739E+03  5760   0.683E+04-0.155E+04
 gam= 0.000 trial= 0.269  step= 0.088 mean= 0.269
 gam= 0.248 g(H,U,f)=  0.677E+03 0.999E+03 0.184E+02 ort(H,U,f) =-0.744E+03-0.116E+04-0.204E+02
CGA:  22     0.410030555799E+03   -0.15435E+03   -0.30051E+03  5760   0.169E+04-0.193E+04
 gam= 0.248 trial= 0.260  step= 0.155 mean= 0.260
 gam= 0.388 g(H,U,f)=  0.421E+03 0.232E+03 0.474E+01 ort(H,U,f) = 0.216E+03-0.113E+03-0.526E+01
CGA:  23     0.298755535798E+03   -0.11128E+03   -0.94455E+02  5760   0.658E+03 0.982E+02
 gam= 0.388 trial= 0.255  step= 0.295 mean= 0.255
 gam= 3.012 g(H,U,f)=  0.385E+03 0.154E+04 0.536E+02 ort(H,U,f) = 0.153E+03-0.800E+02-0.565E+01
CGA:  24     0.194192372876E+03   -0.10456E+03   -0.10274E+03  5760   0.198E+04 0.676E+02
 gam= 3.012 trial= 0.257  step= 0.092 mean= 0.257
 gam= 0.261 g(H,U,f)=  0.218E+03 0.293E+03 0.667E+01 ort(H,U,f) = 0.754E+03 0.443E+02-0.170E+02
CGA:  25     0.459258744574E+02   -0.14827E+03   -0.10007E+03  5760   0.518E+03 0.781E+03
 gam= 0.261 trial= 0.249  step= 0.162 mean= 0.249
 gam= 2.549 g(H,U,f)=  0.208E+03 0.107E+04 0.417E+02 ort(H,U,f) = 0.398E+02-0.325E+02-0.585E+01
CGA:  26    -0.927088563834E+01   -0.55197E+02   -0.58651E+02  5760   0.132E+04 0.142E+01
 gam= 2.549 trial= 0.244  step= 0.133 mean= 0.244
 gam= 0.246 g(H,U,f)=  0.845E+02 0.231E+03 0.944E+01 ort(H,U,f) =-0.119E+03 0.166E+03-0.582E+01
CGA:  27    -0.117487665450E+03   -0.10822E+03   -0.88331E+02  5760   0.324E+03 0.417E+02
 gam= 0.246 trial= 0.239  step= 0.081 mean= 0.239
 gam= 0.509 g(H,U,f)=  0.644E+02 0.968E+02 0.396E+01 ort(H,U,f) = 0.123E+02-0.203E+02-0.361E+01
CGA:  28    -0.130792522330E+03   -0.13305E+02   -0.13623E+02  5760   0.165E+03-0.116E+02
 gam= 0.509 trial= 0.231  step= 0.191 mean= 0.231
 gam= 1.308 g(H,U,f)=  0.538E+02 0.157E+03 0.558E+01 ort(H,U,f) = 0.254E+02-0.265E+02-0.129E+01
CGA:  29    -0.146001907514E+03   -0.15209E+02   -0.15238E+02  5760   0.216E+03-0.239E+01
 gam= 1.308 trial= 0.229  step= 0.137 mean= 0.229
 gam= 0.947 g(H,U,f)=  0.464E+02 0.152E+03 0.630E+01 ort(H,U,f) = 0.330E+02-0.386E+02-0.105E+01
CGA:  30    -0.160491076005E+03   -0.14489E+02   -0.14585E+02  5760   0.205E+03-0.661E+01
 gam= 0.947 trial= 0.224  step= 0.133 mean= 0.224
 gam= 0.341 g(H,U,f)=  0.276E+02 0.404E+02 0.172E+01 ort(H,U,f) = 0.140E+02-0.188E+02 0.906E+00
CGA:  31    -0.173878106471E+03   -0.13387E+02   -0.13173E+02  5760   0.697E+02-0.396E+01
 gam= 0.341 trial= 0.220  step= 0.192 mean= 0.220
 gam= 1.756 g(H,U,f)=  0.224E+02 0.975E+02 0.254E+01 ort(H,U,f) = 0.123E+02-0.116E+02-0.111E+01
CGA:  32    -0.180367806749E+03   -0.64897E+01   -0.65505E+01  5760   0.122E+03-0.371E+00
 gam= 1.756 trial= 0.218  step= 0.163 mean= 0.218
 gam= 0.378 g(H,U,f)=  0.181E+02 0.268E+02 0.143E+01 ort(H,U,f) =-0.209E+02 0.136E+02 0.107E+01
CGA:  33    -0.190471699060E+03   -0.10104E+02   -0.99149E+01  5760   0.463E+02-0.624E+01
 gam= 0.378 trial= 0.216  step= 0.186 mean= 0.216
 gam= 1.403 g(H,U,f)=  0.159E+02 0.469E+02 0.206E+01 ort(H,U,f) =-0.240E+01 0.589E+00-0.178E+01
CGA:  34    -0.194623220254E+03   -0.41515E+01   -0.40931E+01  5760   0.649E+02-0.359E+01
 gam= 1.403 trial= 0.214  step= 0.157 mean= 0.214
 gam= 0.743 g(H,U,f)=  0.205E+02 0.269E+02 0.846E+00 ort(H,U,f) =-0.827E+01 0.488E+01 0.796E+00
CGA:  35    -0.199410133328E+03   -0.47869E+01   -0.46966E+01  5760   0.482E+02-0.260E+01
 gam= 0.743 trial= 0.211  step= 0.264 mean= 0.211
 gam= 0.861 g(H,U,f)=  0.157E+02 0.244E+02 0.148E+01 ort(H,U,f) =-0.856E+01 0.486E+00 0.589E-01
CGA:  36    -0.205231897088E+03   -0.58218E+01   -0.61017E+01  5760   0.415E+02-0.801E+01
 gam= 0.861 trial= 0.214  step= 0.100 mean= 0.214
 gam= 0.684 g(H,U,f)=  0.116E+02 0.137E+02 0.314E+01 ort(H,U,f) =-0.641E+00 0.120E+01-0.185E+01
CGA:  37    -0.206917781185E+03   -0.16859E+01   -0.17347E+01  5760   0.284E+02-0.130E+01
 gam= 0.684 trial= 0.208  step= 0.147 mean= 0.208
 gam= 0.821 g(H,U,f)=  0.971E+01 0.124E+02 0.118E+01 ort(H,U,f) = 0.299E+01-0.129E+01 0.118E+01
CGA:  38    -0.208919835942E+03   -0.20021E+01   -0.20178E+01  5760   0.233E+02 0.289E+01
 gam= 0.821 trial= 0.205  step= 0.149 mean= 0.205
 gam= 1.486 g(H,U,f)=  0.797E+01 0.212E+02 0.548E+01 ort(H,U,f) = 0.520E+01-0.254E+01-0.242E+01
CGA:  39    -0.210755609843E+03   -0.18358E+01   -0.19175E+01  5760   0.347E+02 0.234E+00
 gam= 1.486 trial= 0.202  step= 0.084 mean= 0.202
 gam= 0.474 g(H,U,f)=  0.667E+01 0.908E+01 0.685E+00 ort(H,U,f) = 0.379E+01-0.207E+01 0.384E+00
CGA:  40    -0.212196509609E+03   -0.14409E+01   -0.14787E+01  5760   0.164E+02 0.209E+01
 gam= 0.474 trial= 0.196  step= 0.121 mean= 0.196
 gam= 1.317 g(H,U,f)=  0.523E+01 0.134E+02 0.301E+01 ort(H,U,f) = 0.305E+01-0.117E+01-0.818E+00
CGA:  41    -0.213195852221E+03   -0.99934E+00   -0.10580E+01  5760   0.216E+02 0.107E+01
 gam= 1.317 trial= 0.193  step= 0.082 mean= 0.193
 gam= 0.616 g(H,U,f)=  0.388E+01 0.874E+01 0.713E+00 ort(H,U,f) = 0.133E+01-0.387E+00-0.400E+00
CGA:  42    -0.214015272761E+03   -0.81942E+00   -0.94830E+00  5760   0.133E+02 0.544E+00
 gam= 0.616 trial= 0.187  step= 0.099 mean= 0.187
 gam= 0.875 g(H,U,f)=  0.337E+01 0.750E+01 0.804E+00 ort(H,U,f) = 0.187E+00 0.695E+00-0.265E+00
CGA:  43    -0.214643627390E+03   -0.62835E+00   -0.67553E+00  5760   0.117E+02 0.617E+00
 gam= 0.875 trial= 0.183  step= 0.102 mean= 0.183
 gam= 0.878 g(H,U,f)=  0.324E+01 0.651E+01 0.491E+00 ort(H,U,f) =-0.364E+00 0.130E+01-0.162E+00
CGA:  44    -0.215218817980E+03   -0.57519E+00   -0.62499E+00  5760   0.102E+02 0.775E+00
 gam= 0.878 trial= 0.179  step= 0.120 mean= 0.179
 gam= 1.031 g(H,U,f)=  0.330E+01 0.685E+01 0.409E+00 ort(H,U,f) =-0.644E+00 0.167E+01-0.214E+00
CGA:  45    -0.215843405475E+03   -0.62459E+00   -0.65369E+00  5760   0.106E+02 0.815E+00
 gam= 1.031 trial= 0.176  step= 0.123 mean= 0.176
 gam= 0.870 g(H,U,f)=  0.279E+01 0.582E+01 0.579E+00 ort(H,U,f) =-0.129E+01 0.217E+01-0.318E-01
CGA:  46    -0.216524527353E+03   -0.68112E+00   -0.70367E+00  5760   0.919E+01 0.844E+00
 gam= 0.870 trial= 0.173  step= 0.092 mean= 0.173
 gam= 0.694 g(H,U,f)=  0.236E+01 0.387E+01 0.148E+00 ort(H,U,f) =-0.883E+00 0.148E+01-0.155E+00
CGA:  47    -0.216949921084E+03   -0.42539E+00   -0.45639E+00  5760   0.638E+01 0.446E+00
 gam= 0.694 trial= 0.169  step= 0.152 mean= 0.169
 gam= 0.905 g(H,U,f)=  0.201E+01 0.349E+01 0.270E+00 ort(H,U,f) =-0.635E+00 0.136E+01-0.572E-01
CGA:  48    -0.217449951723E+03   -0.50003E+00   -0.50773E+00  5760   0.577E+01 0.672E+00
 gam= 0.905 trial= 0.168  step= 0.114 mean= 0.168
 gam= 0.863 g(H,U,f)=  0.183E+01 0.271E+01 0.443E+00 ort(H,U,f) =-0.229E+00 0.782E+00-0.213E+00
CGA:  49    -0.217791680208E+03   -0.34173E+00   -0.36434E+00  5760   0.498E+01 0.341E+00
 gam= 0.863 trial= 0.166  step= 0.169 mean= 0.166
 gam= 0.815 g(H,U,f)=  0.165E+01 0.236E+01 0.522E-01 ort(H,U,f) =-0.199E+00 0.518E+00-0.193E-01
CGA:  50    -0.218237569731E+03   -0.44589E+00   -0.44533E+00  5760   0.406E+01 0.299E+00
 gam= 0.815 trial= 0.166  step= 0.183 mean= 0.166
 gam= 0.723 g(H,U,f)=  0.123E+01 0.165E+01 0.506E-01 ort(H,U,f) =-0.198E+00 0.409E+00-0.403E-01
CGA:  51    -0.218632705615E+03   -0.39514E+00   -0.39328E+00  5760   0.293E+01 0.171E+00
 gam= 0.723 trial= 0.167  step= 0.173 mean= 0.167
 gam= 0.000 g(H,U,f)=  0.109E+01 0.175E+01 0.250E+00 ort(H,U,f) =-0.700E-01 0.127E+00 0.108E-01
SDA:  52    -0.218897467716E+03   -0.26476E+00   -0.26444E+00  5760   0.309E+01 0.678E-01
 gam= 0.000 trial= 0.167  step= 0.257 mean= 0.167
 gam= 0.784 g(H,U,f)=  0.629E+00 0.165E+01 0.147E+00 ort(H,U,f) = 0.291E+00 0.354E+00-0.455E-01
CGA:  53    -0.219330128573E+03   -0.43266E+00   -0.39778E+00  5760   0.243E+01 0.599E+00
 gam= 0.784 trial= 0.171  step= 0.381 mean= 0.171
 gam= 1.633 g(H,U,f)=  0.791E+00 0.200E+01 0.117E+01 ort(H,U,f) =-0.214E+00 0.640E+00-0.324E+00
CGA:  54    -0.219894286804E+03   -0.56416E+00   -0.55139E+00  5760   0.396E+01 0.102E+00
 gam= 1.633 trial= 0.182  step= 0.196 mean= 0.182
 gam= 0.472 g(H,U,f)=  0.792E+00 0.921E+00 0.154E+00 ort(H,U,f) =-0.888E+00 0.122E+01-0.898E-02
CGA:  55    -0.220302495158E+03   -0.40821E+00   -0.40410E+00  5760   0.187E+01 0.328E+00
 gam= 0.472 trial= 0.183  step= 0.198 mean= 0.183
 gam= 0.865 g(H,U,f)=  0.547E+00 0.760E+00 0.308E+00 ort(H,U,f) =-0.200E+00 0.415E+00-0.217E+00
CGA:  56    -0.220503194910E+03   -0.20070E+00   -0.20073E+00  5760   0.162E+01-0.203E-02
 gam= 0.865 trial= 0.183  step= 0.242 mean= 0.183
 gam= 0.847 g(H,U,f)=  0.531E+00 0.762E+00 0.753E-01 ort(H,U,f) =-0.168E+00 0.193E+00-0.578E-01
CGA:  57    -0.220697652187E+03   -0.19446E+00   -0.19533E+00  5760   0.137E+01-0.322E-01
 gam= 0.847 trial= 0.186  step= 0.252 mean= 0.186
 gam= 0.980 g(H,U,f)=  0.387E+00 0.729E+00 0.225E+00 ort(H,U,f) =-0.604E-01 0.184E+00-0.633E-01
CGA:  58    -0.220868604489E+03   -0.17095E+00   -0.16891E+00  5760   0.134E+01 0.598E-01
 gam= 0.980 trial= 0.190  step= 0.195 mean= 0.190
 gam= 0.347 g(H,U,f)=  0.210E+00 0.249E+00 0.648E-02 ort(H,U,f) =-0.175E+00 0.264E+00-0.382E-02
CGA:  59    -0.221005793861E+03   -0.13719E+00   -0.13671E+00  5760   0.465E+00 0.852E-01
 gam= 0.347 trial= 0.190  step= 0.609 mean= 0.190
 gam= 2.641 g(H,U,f)=  0.367E+00 0.715E+00 0.147E+00 ort(H,U,f) =-0.118E+00 0.667E-01 0.597E-02
CGA:  60    -0.221148539606E+03   -0.14275E+00   -0.15067E+00  5760   0.123E+01-0.449E-01
 gam= 2.641 trial= 0.211  step= 0.186 mean= 0.211
 gam= 0.788 g(H,U,f)=  0.456E+00 0.512E+00 0.667E-03 ort(H,U,f) =-0.296E+00 0.353E+00 0.143E-02
CGA:  61    -0.221250039352E+03   -0.10150E+00   -0.10325E+00  5760   0.969E+00 0.584E-01
 gam= 0.788 trial= 0.210  step= 0.255 mean= 0.210
 gam= 1.384 g(H,U,f)=  0.410E+00 0.515E+00 0.416E+00 ort(H,U,f) =-0.123E+00 0.350E+00-0.259E+00
CGA:  62    -0.221378674005E+03   -0.12863E+00   -0.12957E+00  5760   0.134E+01-0.318E-01
 gam= 1.384 trial= 0.212  step= 0.167 mean= 0.212
 gam= 0.557 g(H,U,f)=  0.381E+00 0.328E+00 0.382E-01 ort(H,U,f) =-0.311E+00 0.332E+00-0.205E-01
CGA:  63    -0.221487303084E+03   -0.10863E+00   -0.10800E+00  5760   0.748E+00 0.807E-04
 gam= 0.557 trial= 0.210  step= 0.336 mean= 0.210
 gam= 0.000 g(H,U,f)=  0.299E+00 0.260E+00 0.637E+00 ort(H,U,f) =-0.150E+00 0.116E+00-0.117E+01
CGA:  64    -0.221611878723E+03   -0.12458E+00   -0.12557E+00  5760   0.119E+01-0.121E+01
 gam= 0.000 trial= 0.216  step= 0.158 mean= 0.216
 gam= 0.317 g(H,U,f)=  0.137E+00 0.133E+00 0.109E+00 ort(H,U,f) = 0.181E+00 0.132E+00 0.127E+00
CGA:  65    -0.221680214478E+03   -0.68336E-01   -0.94596E-01  5760   0.379E+00 0.440E+00
 gam= 0.317 trial= 0.213  step= 0.184 mean= 0.213
 gam= 1.407 g(H,U,f)=  0.850E-01 0.194E+00 0.255E+00 ort(H,U,f) = 0.889E-01 0.765E-01-0.874E-01
CGA:  66    -0.221725350192E+03   -0.45136E-01   -0.47671E-01  5760   0.533E+00 0.779E-01
 gam= 1.407 trial= 0.212  step= 0.209 mean= 0.212
 gam= 0.827 g(H,U,f)=  0.976E-01 0.162E+00 0.181E+00 ort(H,U,f) =-0.487E-01 0.168E+00-0.110E+00
CGA:  67    -0.221792659670E+03   -0.67309E-01   -0.67331E-01  5760   0.441E+00 0.935E-02
 gam= 0.827 trial= 0.211  step= 0.155 mean= 0.211
 gam= 0.938 g(H,U,f)=  0.989E-01 0.116E+00 0.199E+00 ort(H,U,f) =-0.735E-01 0.171E+00-0.102E+00
CGA:  68    -0.221828429433E+03   -0.35770E-01   -0.34799E-01  5760   0.414E+00-0.498E-02
 gam= 0.938 trial= 0.209  step= 0.217 mean= 0.209
 gam= 0.701 g(H,U,f)=  0.938E-01 0.937E-01 0.103E+00 ort(H,U,f) =-0.775E-01 0.156E+00-0.713E-01
CGA:  69    -0.221872875726E+03   -0.44446E-01   -0.44391E-01  5760   0.290E+00 0.722E-02
 gam= 0.701 trial= 0.209  step= 0.133 mean= 0.209
 gam= 0.918 g(H,U,f)=  0.663E-01 0.615E-01 0.138E+00 ort(H,U,f) =-0.280E-01 0.965E-01-0.673E-01
CGA:  70    -0.221893323370E+03   -0.20448E-01   -0.19701E-01  5760   0.266E+00 0.118E-02
 gam= 0.918 trial= 0.205  step= 0.241 mean= 0.205
 gam= 0.588 g(H,U,f)=  0.617E-01 0.605E-01 0.343E-01 ort(H,U,f) =-0.417E-01 0.907E-01-0.335E-01
CGA:  71    -0.221925932542E+03   -0.32609E-01   -0.32177E-01  5760   0.156E+00 0.155E-01
 gam= 0.588 trial= 0.207  step= 0.188 mean= 0.207
 gam= 2.177 g(H,U,f)=  0.665E-01 0.582E-01 0.216E+00 ort(H,U,f) = 0.136E-02 0.363E-01-0.428E-01
CGA:  72    -0.221941628704E+03   -0.15696E-01   -0.15581E-01  5760   0.341E+00-0.506E-02
 gam= 2.177 trial= 0.206  step= 0.253 mean= 0.206
 gam= 0.473 g(H,U,f)=  0.695E-01 0.618E-01 0.299E-01 ort(H,U,f) =-0.531E-01 0.315E-01 0.336E-01
CGA:  73    -0.221983841588E+03   -0.42213E-01   -0.41763E-01  5760   0.161E+00 0.121E-01
 gam= 0.473 trial= 0.208  step= 0.191 mean= 0.208
 gam= 2.145 g(H,U,f)=  0.723E-01 0.106E+00 0.167E+00 ort(H,U,f) = 0.196E-01 0.957E-01-0.106E+00
CGA:  74    -0.221999565768E+03   -0.15724E-01   -0.15920E-01  5760   0.346E+00 0.881E-02
 gam= 2.145 trial= 0.208  step= 0.197 mean= 0.208
 gam= 0.599 g(H,U,f)=  0.684E-01 0.652E-01 0.737E-01 ort(H,U,f) =-0.104E+00 0.483E-01 0.278E-01
CGA:  75    -0.222035865463E+03   -0.36300E-01   -0.35971E-01  5760   0.207E+00-0.278E-01
 gam= 0.599 trial= 0.207  step= 0.666 mean= 0.207
 gam= 0.000 g(H,U,f)=  0.475E+01 0.438E+02 0.253E+02 ort(H,U,f) =-0.360E+00-0.968E+01-0.203E+01
CGA:  76    -0.219932064467E+03    0.21038E+01   -0.63535E-01  5760   0.739E+02-0.121E+02
 gam= 0.000 trial= 0.230  step= 0.120 mean= 0.230
 gam= 0.062 g(H,U,f)=  0.142E+01 0.302E+01 0.149E+00 ort(H,U,f) =-0.204E+01-0.531E+01-0.211E+00
CGA:  77    -0.221729093188E+03   -0.17970E+01   -0.44329E+01  5760   0.460E+01-0.756E+01
 gam= 0.062 trial= 0.225  step= 0.142 mean= 0.225
 gam= 0.033 g(H,U,f)=  0.658E-01 0.812E-01 0.490E-02 ort(H,U,f) = 0.187E+00 0.316E+00 0.206E-01
CGA:  78    -0.222173431440E+03   -0.44434E+00   -0.29215E+00  5760   0.152E+00 0.523E+00
 gam= 0.033 trial= 0.220  step= 0.147 mean= 0.220
 gam= 0.981 g(H,U,f)=  0.408E-01 0.107E+00 0.128E-02 ort(H,U,f) = 0.280E-01 0.408E-02 0.163E-02
CGA:  79    -0.222188870391E+03   -0.15439E-01   -0.12402E-01  5760   0.149E+00 0.337E-01
 gam= 0.981 trial= 0.217  step= 0.316 mean= 0.217
 gam= 1.793 g(H,U,f)=  0.636E-01 0.191E+00 0.127E-01 ort(H,U,f) =-0.117E-01 0.692E-01 0.913E-02
CGA:  80    -0.222219807182E+03   -0.30937E-01   -0.28770E-01  5760   0.267E+00 0.667E-01
 gam= 1.793 trial= 0.222  step= 0.147 mean= 0.222
 gam= 0.468 g(H,U,f)=  0.544E-01 0.646E-01 0.611E-02 ort(H,U,f) =-0.733E-01 0.844E-01 0.133E-01
CGA:  81    -0.222248632319E+03   -0.28825E-01   -0.28384E-01  5760   0.125E+00 0.243E-01
 gam= 0.468 trial= 0.218  step= 0.323 mean= 0.218
 gam= 0.709 g(H,U,f)=  0.394E-01 0.489E-01 0.415E-03 ort(H,U,f) =-0.276E-01 0.430E-01 0.889E-03
CGA:  82    -0.222272242373E+03   -0.23610E-01   -0.22060E-01  5760   0.887E-01 0.163E-01
 gam= 0.709 trial= 0.223  step= 0.210 mean= 0.223
 gam= 1.220 g(H,U,f)=  0.394E-01 0.687E-01 0.207E-03 ort(H,U,f) =-0.905E-02 0.665E-02-0.149E-03
CGA:  83    -0.222283306781E+03   -0.11064E-01   -0.10524E-01  5760   0.108E+00-0.254E-02
 gam= 1.220 trial= 0.223  step= 0.250 mean= 0.223
 gam= 0.939 g(H,U,f)=  0.390E-01 0.625E-01 0.826E-04 ort(H,U,f) =-0.162E-01 0.385E-01 0.291E-03
CGA:  84    -0.222296820070E+03   -0.13513E-01   -0.13170E-01  5760   0.102E+00 0.226E-01
 gam= 0.939 trial= 0.224  step= 0.120 mean= 0.224
 gam= 0.525 g(H,U,f)=  0.299E-01 0.232E-01 0.201E-03 ort(H,U,f) =-0.942E-02 0.177E-01 0.742E-03
CGA:  85    -0.222305169564E+03   -0.83495E-02   -0.73657E-02  5760   0.533E-01 0.900E-02
 gam= 0.525 trial= 0.219  step= 0.451 mean= 0.219
 gam= 1.840 g(H,U,f)=  0.281E-01 0.697E-01 0.270E-03 ort(H,U,f) =-0.540E-02-0.400E-02 0.515E-03
CGA:  86    -0.222317395424E+03   -0.12226E-01   -0.13084E-01  5760   0.981E-01-0.889E-02
 gam= 1.840 trial= 0.230  step= 0.143 mean= 0.230
 gam= 0.392 g(H,U,f)=  0.163E-01 0.219E-01 0.255E-03 ort(H,U,f) =-0.112E-01 0.821E-02-0.156E-02
CGA:  87    -0.222326111957E+03   -0.87165E-02   -0.58392E-02  5760   0.385E-01-0.458E-02
 gam= 0.392 trial= 0.226  step= 0.251 mean= 0.226
 gam= 1.046 g(H,U,f)=  0.114E-01 0.267E-01 0.209E-02 ort(H,U,f) =-0.175E-02 0.114E-01-0.783E-03
CGA:  88    -0.222330762603E+03   -0.46506E-02   -0.45976E-02  5760   0.402E-01 0.887E-02
 gam= 1.046 trial= 0.227  step= 0.190 mean= 0.227
 gam= 0.827 g(H,U,f)=  0.130E-01 0.201E-01 0.210E-03 ort(H,U,f) =-0.680E-02 0.604E-02-0.255E-03
CGA:  89    -0.222335710861E+03   -0.49483E-02   -0.46951E-02  5760   0.333E-01-0.102E-02
 gam= 0.827 trial= 0.225  step= 0.443 mean= 0.225
 gam= 1.344 g(H,U,f)=  0.180E-01 0.263E-01 0.442E-03 ort(H,U,f) =-0.106E-01 0.976E-02-0.388E-04
CGA:  90    -0.222342737316E+03   -0.70265E-02   -0.71866E-02  5760   0.447E-01-0.900E-03
 gam= 1.344 trial= 0.236  step= 0.181 mean= 0.236
 gam= 0.808 g(H,U,f)=  0.182E-01 0.176E-01 0.379E-03 ort(H,U,f) =-0.105E-01 0.123E-01-0.509E-03
CGA:  91    -0.222347154242E+03   -0.44169E-02   -0.39294E-02  5760   0.361E-01 0.130E-02
 gam= 0.808 trial= 0.233  step= 0.290 mean= 0.233
 gam= 0.803 g(H,U,f)=  0.147E-01 0.141E-01 0.291E-03 ort(H,U,f) =-0.571E-02 0.716E-02-0.216E-04
CGA:  92    -0.222352599449E+03   -0.54452E-02   -0.53940E-02  5760   0.290E-01 0.142E-02
 gam= 0.803 trial= 0.236  step= 0.197 mean= 0.236
 gam= 1.010 g(H,U,f)=  0.114E-01 0.171E-01 0.807E-03 ort(H,U,f) = 0.268E-03 0.233E-02-0.465E-03
CGA:  93    -0.222355644244E+03   -0.30448E-02   -0.29745E-02  5760   0.293E-01 0.213E-02
 gam= 1.010 trial= 0.234  step= 0.299 mean= 0.234
 gam= 0.609 g(H,U,f)=  0.924E-02 0.858E-02 0.352E-04 ort(H,U,f) =-0.577E-02 0.146E-02 0.868E-04
CGA:  94    -0.222360137827E+03   -0.44936E-02   -0.47077E-02  5760   0.179E-01-0.422E-02
 gam= 0.609 trial= 0.238  step= 0.275 mean= 0.238
 gam= 1.290 g(H,U,f)=  0.832E-02 0.124E-01 0.232E-02 ort(H,U,f) = 0.404E-03 0.155E-02-0.933E-03
CGA:  95    -0.222362228569E+03   -0.20907E-02   -0.21035E-02  5760   0.230E-01 0.102E-02
 gam= 1.290 trial= 0.239  step= 0.252 mean= 0.239
 gam= 0.654 g(H,U,f)=  0.638E-02 0.861E-02 0.615E-04 ort(H,U,f) =-0.386E-02 0.308E-02 0.310E-03
CGA:  96    -0.222365270824E+03   -0.30423E-02   -0.30647E-02  5760   0.150E-01-0.470E-03
 gam= 0.654 trial= 0.240  step= 0.438 mean= 0.240
 gam= 0.944 g(H,U,f)=  0.674E-02 0.746E-02 0.693E-05 ort(H,U,f) =-0.517E-02 0.549E-02 0.631E-04
CGA:  97    -0.222368545122E+03   -0.32743E-02   -0.32288E-02  5760   0.142E-01 0.385E-03
 gam= 0.944 trial= 0.250  step= 0.485 mean= 0.250
 gam= 1.191 g(H,U,f)=  0.841E-02 0.850E-02 0.174E-04 ort(H,U,f) =-0.553E-02 0.563E-02-0.121E-03
CGA:  98    -0.222372077782E+03   -0.35327E-02   -0.35335E-02  5760   0.169E-01-0.199E-04
 gam= 1.191 trial= 0.262  step= 0.492 mean= 0.262
 gam= 2.072 g(H,U,f)=  0.127E-01 0.221E-01 0.187E-03 ort(H,U,f) =-0.488E-02 0.451E-02-0.238E-03
CGA:  99    -0.222375744379E+03   -0.36666E-02   -0.41597E-02  5760   0.351E-01-0.614E-03
 gam= 2.072 trial= 0.273  step= 0.245 mean= 0.273
 gam= 0.793 g(H,U,f)=  0.140E-01 0.133E-01 0.500E-03 ort(H,U,f) =-0.106E-01 0.946E-02-0.916E-03
CGA: 100    -0.222379987478E+03   -0.42431E-02   -0.41436E-02  5760   0.278E-01-0.203E-02
 gam= 0.793 trial= 0.272  step= 0.391 mean= 0.272
 gam= 0.810 g(H,U,f)=  0.123E-01 0.101E-01 0.941E-04 ort(H,U,f) =-0.640E-02 0.344E-02-0.476E-03
CGA: 101    -0.222384877136E+03   -0.48897E-02   -0.51225E-02  5760   0.225E-01-0.344E-02
 gam= 0.810 trial= 0.278  step= 0.342 mean= 0.278
 gam= 1.304 g(H,U,f)=  0.113E-01 0.178E-01 0.309E-03 ort(H,U,f) =-0.134E-03 0.252E-02-0.541E-03
CGA: 102    -0.222388160202E+03   -0.32831E-02   -0.33720E-02  5760   0.294E-01 0.184E-02
 gam= 1.304 trial= 0.281  step= 0.272 mean= 0.281
 gam= 0.825 g(H,U,f)=  0.923E-02 0.146E-01 0.389E-03 ort(H,U,f) =-0.270E-02 0.547E-03-0.593E-03
CGA: 103    -0.222392531158E+03   -0.43710E-02   -0.43239E-02  5760   0.242E-01-0.274E-02
 gam= 0.825 trial= 0.281  step= 0.285 mean= 0.281
 gam= 0.651 g(H,U,f)=  0.773E-02 0.757E-02 0.458E-03 ort(H,U,f) =-0.409E-02 0.279E-02-0.204E-03
CGA: 104    -0.222395652880E+03   -0.31217E-02   -0.31300E-02  5760   0.158E-01-0.150E-02
 gam= 0.651 trial= 0.281  step= 0.414 mean= 0.281
 gam= 0.880 g(H,U,f)=  0.677E-02 0.684E-02 0.265E-03 ort(H,U,f) =-0.241E-02 0.278E-02 0.189E-03
CGA: 105    -0.222398754330E+03   -0.31014E-02   -0.30615E-02  5760   0.139E-01 0.563E-03
 gam= 0.880 trial= 0.287  step= 0.391 mean= 0.287
 gam= 0.908 g(H,U,f)=  0.517E-02 0.646E-02 0.960E-03 ort(H,U,f) =-0.197E-02 0.281E-02-0.831E-05
CGA: 106    -0.222401606000E+03   -0.28517E-02   -0.28076E-02  5760   0.126E-01 0.839E-03
 gam= 0.908 trial= 0.293  step= 0.243 mean= 0.293
 gam= 0.000 g(H,U,f)=  0.429E-02 0.467E-02 0.129E-02 ort(H,U,f) =-0.658E-03 0.186E-02-0.772E-03
SDA: 107    -0.222403220296E+03   -0.16143E-02   -0.16228E-02  5760   0.103E-01 0.432E-03
 gam= 0.000 trial= 0.290  step= 0.191 mean= 0.290
 gam= 0.875 g(H,U,f)=  0.259E-02 0.470E-02 0.168E-02 ort(H,U,f) = 0.226E-02-0.632E-03-0.143E-02
CGA: 108    -0.222404244759E+03   -0.10245E-02   -0.98144E-03  5760   0.897E-02 0.198E-03
 gam= 0.875 trial= 0.285  step= 0.334 mean= 0.285
 gam= 0.534 g(H,U,f)=  0.172E-02 0.305E-02 0.256E-04 ort(H,U,f) =-0.214E-03 0.324E-03-0.600E-05
CGA: 109    -0.222405772489E+03   -0.15277E-02   -0.15254E-02  5760   0.479E-02 0.104E-03
 gam= 0.534 trial= 0.288  step= 0.559 mean= 0.288
 gam= 0.987 g(H,U,f)=  0.144E-02 0.261E-02 0.676E-03 ort(H,U,f) =-0.867E-03 0.948E-03-0.171E-04
CGA: 110    -0.222407138390E+03   -0.13659E-02   -0.13550E-02  5760   0.473E-02 0.638E-04
 gam= 0.987 trial= 0.301  step= 0.215 mean= 0.301
 gam= 0.973 g(H,U,f)=  0.131E-02 0.259E-02 0.703E-03 ort(H,U,f) =-0.351E-03 0.122E-02-0.635E-03
CGA: 111    -0.222407683452E+03   -0.54506E-03   -0.51590E-03  5760   0.461E-02 0.233E-03
 gam= 0.973 trial= 0.297  step= 0.328 mean= 0.297
 gam= 0.462 g(H,U,f)=  0.956E-03 0.117E-02 0.399E-05 ort(H,U,f) =-0.751E-03 0.827E-03 0.715E-05
CGA: 112    -0.222408477162E+03   -0.79371E-03   -0.79181E-03  5760   0.213E-02 0.823E-04
 gam= 0.462 trial= 0.298  step= 0.483 mean= 0.298
 gam= 1.457 g(H,U,f)=  0.812E-03 0.182E-02 0.466E-03 ort(H,U,f) =-0.161E-03 0.221E-03-0.446E-04
CGA: 113    -0.222409001112E+03   -0.52395E-03   -0.52288E-03  5760   0.310E-02 0.157E-04
 gam= 1.457 trial= 0.308  step= 0.201 mean= 0.308
 gam= 0.735 g(H,U,f)=  0.738E-03 0.133E-02 0.207E-03 ort(H,U,f) =-0.379E-04 0.461E-03-0.281E-03
CGA: 114    -0.222409342309E+03   -0.34120E-03   -0.31380E-03  5760   0.228E-02 0.143E-03
 gam= 0.735 trial= 0.302  step= 0.430 mean= 0.302
 gam= 0.424 g(H,U,f)=  0.481E-03 0.475E-03 0.957E-05 ort(H,U,f) =-0.381E-03 0.417E-03-0.333E-06
CGA: 115    -0.222409857179E+03   -0.51487E-03   -0.51239E-03  5760   0.965E-03 0.363E-04
 gam= 0.424 trial= 0.309  step= 0.562 mean= 0.309
 gam= 1.980 g(H,U,f)=  0.438E-03 0.113E-02 0.342E-03 ort(H,U,f) =-0.664E-04 0.145E-03-0.537E-04
CGA: 116    -0.222410130179E+03   -0.27300E-03   -0.27560E-03  5760   0.191E-02 0.245E-04
 gam= 1.980 trial= 0.321  step= 0.207 mean= 0.321
 gam= 0.663 g(H,U,f)=  0.414E-03 0.751E-03 0.102E-03 ort(H,U,f) =-0.278E-03 0.472E-03-0.130E-03
CGA: 117    -0.222410352642E+03   -0.22246E-03   -0.20278E-03  5760   0.127E-02 0.643E-04
 gam= 0.663 trial= 0.316  step= 0.600 mean= 0.316
 gam= 0.754 g(H,U,f)=  0.539E-03 0.415E-03 0.120E-05 ort(H,U,f) =-0.463E-03 0.446E-03-0.271E-05
CGA: 118    -0.222410741814E+03   -0.38917E-03   -0.39316E-03  5760   0.955E-03-0.201E-04
 gam= 0.754 trial= 0.330  step= 0.956 mean= 0.330
 gam= 1.791 g(H,U,f)=  0.738E-03 0.963E-03 0.991E-05 ort(H,U,f) =-0.255E-03 0.244E-03-0.908E-06
CGA: 119    -0.222411188268E+03   -0.44645E-03   -0.44946E-03  5760   0.171E-02-0.120E-04
 gam= 1.791 trial= 0.361  step= 0.625 mean= 0.361
 gam= 1.428 g(H,U,f)=  0.772E-03 0.120E-02 0.468E-03 ort(H,U,f) =-0.404E-03 0.449E-03-0.577E-04
CGA: 120    -0.222411707324E+03   -0.51906E-03   -0.52809E-03  5760   0.244E-02-0.128E-04
 gam= 1.428 trial= 0.374  step= 0.199 mean= 0.374
 gam= 0.708 g(H,U,f)=  0.775E-03 0.949E-03 0.655E-05 ort(H,U,f) =-0.267E-03 0.630E-03 0.710E-07
CGA: 121    -0.222411958287E+03   -0.25096E-03   -0.24147E-03  5760   0.173E-02 0.363E-03
 gam= 0.708 trial= 0.366  step= 0.800 mean= 0.366
 gam= 1.412 g(H,U,f)=  0.918E-03 0.152E-02 0.570E-05 ort(H,U,f) =-0.410E-03 0.281E-03 0.448E-05
CGA: 122    -0.222412697354E+03   -0.73907E-03   -0.79565E-03  5760   0.244E-02-0.125E-03
 gam= 1.412 trial= 0.387  step= 0.371 mean= 0.387
 gam= 1.177 g(H,U,f)=  0.102E-02 0.184E-02 0.120E-04 ort(H,U,f) =-0.566E-03 0.798E-03 0.542E-05
CGA: 123    -0.222413122257E+03   -0.42490E-03   -0.42004E-03  5760   0.288E-02 0.237E-03
 gam= 1.177 trial= 0.387  step= 0.230 mean= 0.387
 gam= 0.594 g(H,U,f)=  0.801E-03 0.905E-03 0.333E-05 ort(H,U,f) =-0.454E-03 0.587E-03 0.558E-05
CGA: 124    -0.222413527988E+03   -0.40573E-03   -0.36229E-03  5760   0.171E-02 0.138E-03
 gam= 0.594 trial= 0.379  step= 0.907 mean= 0.379
 gam= 1.870 g(H,U,f)=  0.123E-02 0.194E-02 0.289E-04 ort(H,U,f) =-0.516E-03 0.249E-03-0.790E-05
CGA: 125    -0.222414170572E+03   -0.64258E-03   -0.81204E-03  5760   0.320E-02-0.275E-03
 gam= 1.870 trial= 0.405  step= 0.185 mean= 0.405
 gam= 0.625 g(H,U,f)=  0.109E-02 0.894E-03 0.141E-04 ort(H,U,f) =-0.521E-03 0.748E-03-0.200E-04
CGA: 126    -0.222414448023E+03   -0.27745E-03   -0.24830E-03  5760   0.200E-02 0.207E-03
 gam= 0.625 trial= 0.394  step= 0.390 mean= 0.394
 gam= 0.659 g(H,U,f)=  0.664E-03 0.647E-03 0.363E-05 ort(H,U,f) =-0.167E-03 0.225E-04 0.328E-05
CGA: 127    -0.222414862863E+03   -0.41484E-03   -0.41442E-03  5760   0.131E-02-0.142E-03
 gam= 0.659 trial= 0.394  step= 0.310 mean= 0.394
 gam= 1.213 g(H,U,f)=  0.493E-03 0.104E-02 0.601E-04 ort(H,U,f) = 0.119E-03 0.119E-03-0.216E-04
CGA: 128    -0.222415056011E+03   -0.19315E-03   -0.18912E-03  5760   0.160E-02 0.216E-03
 gam= 1.213 trial= 0.390  step= 0.255 mean= 0.390
 gam= 0.559 g(H,U,f)=  0.373E-03 0.495E-03 0.239E-04 ort(H,U,f) =-0.136E-03 0.201E-03-0.183E-04
CGA: 129    -0.222415319323E+03   -0.26331E-03   -0.23681E-03  5760   0.892E-03 0.468E-04
 gam= 0.559 trial= 0.383  step= 0.479 mean= 0.383
 gam= 1.224 g(H,U,f)=  0.349E-03 0.716E-03 0.265E-04 ort(H,U,f) =-0.176E-03 0.156E-03-0.116E-04
CGA: 130    -0.222415530262E+03   -0.21094E-03   -0.21982E-03  5760   0.109E-02-0.315E-04
 gam= 1.224 trial= 0.388  step= 0.273 mean= 0.388
 gam= 0.808 g(H,U,f)=  0.330E-03 0.526E-03 0.253E-04 ort(H,U,f) =-0.193E-03 0.254E-03-0.144E-04
CGA: 131    -0.222415682330E+03   -0.15207E-03   -0.14366E-03  5760   0.882E-03 0.467E-04
 gam= 0.808 trial= 0.382  step= 0.383 mean= 0.382
 gam= 0.803 g(H,U,f)=  0.330E-03 0.357E-03 0.212E-04 ort(H,U,f) =-0.200E-03 0.219E-03-0.142E-04
CGA: 132    -0.222415858450E+03   -0.17612E-03   -0.17620E-03  5760   0.708E-03 0.483E-05
 gam= 0.803 trial= 0.382  step= 0.487 mean= 0.382
 gam= 1.811 g(H,U,f)=  0.352E-03 0.854E-03 0.767E-04 ort(H,U,f) =-0.133E-03 0.155E-03-0.201E-04
CGA: 133    -0.222416022087E+03   -0.16364E-03   -0.17339E-03  5760   0.128E-02 0.172E-05
 gam= 1.811 trial= 0.387  step= 0.255 mean= 0.387
 gam= 0.663 g(H,U,f)=  0.383E-03 0.454E-03 0.134E-04 ort(H,U,f) =-0.332E-03 0.352E-03-0.134E-04
CGA: 134    -0.222416196826E+03   -0.17474E-03   -0.16391E-03  5760   0.851E-03 0.657E-05
 gam= 0.663 trial= 0.381  step= 0.458 mean= 0.381
 gam= 0.726 g(H,U,f)=  0.358E-03 0.259E-03 0.855E-06 ort(H,U,f) =-0.191E-03 0.164E-03 0.299E-05
CGA: 135    -0.222416390220E+03   -0.19339E-03   -0.19573E-03  5760   0.618E-03-0.244E-04
 gam= 0.726 trial= 0.385  step= 0.697 mean= 0.385
 gam= 1.163 g(H,U,f)=  0.303E-03 0.414E-03 0.122E-05 ort(H,U,f) =-0.942E-04 0.102E-03 0.246E-05
CGA: 136    -0.222416600907E+03   -0.21069E-03   -0.20898E-03  5760   0.719E-03 0.100E-04
 gam= 1.163 trial= 0.400  step= 0.511 mean= 0.400
 gam= 0.722 g(H,U,f)=  0.264E-03 0.254E-03 0.715E-06 ort(H,U,f) =-0.153E-03 0.154E-03-0.345E-05
CGA: 137    -0.222416785332E+03   -0.18442E-03   -0.18649E-03  5760   0.519E-03-0.270E-05
 gam= 0.722 trial= 0.406  step= 0.339 mean= 0.406
 gam= 0.000 g(H,U,f)=  0.229E-03 0.453E-03 0.774E-04 ort(H,U,f) =-0.654E-05 0.444E-04-0.223E-04
SDA: 138    -0.222416874900E+03   -0.89568E-04   -0.87675E-04  5760   0.759E-03 0.155E-04
 gam= 0.000 trial= 0.402  step= 0.128 mean= 0.402
 gam= 0.412 g(H,U,f)=  0.149E-03 0.163E-03 0.115E-05 ort(H,U,f) = 0.143E-03 0.197E-04 0.532E-06
CGA: 139    -0.222416938217E+03   -0.63318E-04   -0.48662E-04  5760   0.313E-03 0.163E-03
 gam= 0.412 trial= 0.389  step= 0.553 mean= 0.389
 gam= 1.054 g(H,U,f)=  0.927E-04 0.237E-03 0.527E-06 ort(H,U,f) =-0.413E-05 0.554E-05 0.503E-06
CGA: 140    -0.222417043293E+03   -0.10508E-03   -0.10495E-03  5760   0.330E-03 0.191E-05
 gam= 1.054 trial= 0.397  step= 0.297 mean= 0.397
 gam= 1.273 g(H,U,f)=  0.116E-03 0.303E-03 0.251E-06 ort(H,U,f) =-0.319E-04 0.799E-04-0.184E-06
CGA: 141    -0.222417093959E+03   -0.50666E-04   -0.49311E-04  5760   0.420E-03 0.477E-04
 gam= 1.273 trial= 0.392  step= 0.298 mean= 0.392
 gam= 0.656 g(H,U,f)=  0.129E-03 0.146E-03 0.326E-06 ort(H,U,f) =-0.110E-03 0.117E-03 0.910E-06
CGA: 142    -0.222417172161E+03   -0.78202E-04   -0.71623E-04  5760   0.275E-03 0.850E-05
 gam= 0.656 trial= 0.387  step= 0.550 mean= 0.387
 gam= 1.453 g(H,U,f)=  0.141E-03 0.258E-03 0.494E-06 ort(H,U,f) =-0.611E-04 0.518E-04 0.264E-06
CGA: 143    -0.222417244257E+03   -0.72097E-04   -0.77162E-04  5760   0.400E-03-0.906E-05
 gam= 1.453 trial= 0.395  step= 0.249 mean= 0.395
 gam= 0.766 g(H,U,f)=  0.108E-03 0.198E-03 0.905E-06 ort(H,U,f) =-0.654E-04 0.917E-04 0.234E-05
CGA: 144    -0.222417299021E+03   -0.54764E-04   -0.48149E-04  5760   0.306E-03 0.286E-04
 gam= 0.766 trial= 0.388  step= 0.415 mean= 0.388
 gam= 0.762 g(H,U,f)=  0.109E-03 0.125E-03 0.371E-06 ort(H,U,f) =-0.809E-04 0.699E-04-0.671E-06
CGA: 145    -0.222417366576E+03   -0.67555E-04   -0.68101E-04  5760   0.234E-03-0.116E-04
 gam= 0.762 trial= 0.389  step= 0.617 mean= 0.389
 gam= 1.940 g(H,U,f)=  0.153E-03 0.299E-03 0.701E-06 ort(H,U,f) =-0.565E-04 0.591E-04-0.467E-06
CGA: 146    -0.222417428528E+03   -0.61951E-04   -0.69344E-04  5760   0.453E-03 0.218E-05
 gam= 1.940 trial= 0.401  step= 0.225 mean= 0.401
 gam= 0.741 g(H,U,f)=  0.136E-03 0.198E-03 0.131E-05 ort(H,U,f) =-0.791E-04 0.115E-03-0.447E-05
CGA: 147    -0.222417489361E+03   -0.60833E-04   -0.51561E-04  5760   0.336E-03 0.314E-04
 gam= 0.741 trial= 0.392  step= 0.478 mean= 0.392
 gam= 0.853 g(H,U,f)=  0.125E-03 0.160E-03 0.624E-06 ort(H,U,f) =-0.851E-04 0.737E-04-0.146E-05
CGA: 148    -0.222417574220E+03   -0.84859E-04   -0.85720E-04  5760   0.286E-03-0.128E-04
 gam= 0.853 trial= 0.396  step= 0.565 mean= 0.396
 gam= 1.201 g(H,U,f)=  0.145E-03 0.198E-03 0.147E-06 ort(H,U,f) =-0.660E-04 0.810E-04-0.112E-06
CGA: 149    -0.222417651378E+03   -0.77157E-04   -0.77720E-04  5760   0.344E-03 0.149E-04
 gam= 1.201 trial= 0.405  step= 0.218 mean= 0.405
 gam= 0.835 g(H,U,f)=  0.130E-03 0.156E-03 0.911E-06 ort(H,U,f) =-0.162E-04 0.581E-04-0.129E-05
CGA: 150    -0.222417695028E+03   -0.43650E-04   -0.39480E-04  5760   0.287E-03 0.407E-04
 gam= 0.835 trial= 0.395  step= 0.486 mean= 0.395
 gam= 1.167 g(H,U,f)=  0.128E-03 0.205E-03 0.192E-05 ort(H,U,f) =-0.307E-04-0.274E-06-0.276E-06
CGA: 151    -0.222417769026E+03   -0.73998E-04   -0.77991E-04  5760   0.335E-03-0.313E-04
 gam= 1.167 trial= 0.400  step= 0.466 mean= 0.400
 gam= 0.954 g(H,U,f)=  0.129E-03 0.189E-03 0.199E-05 ort(H,U,f) =-0.811E-04 0.751E-04 0.107E-05
CGA: 152    -0.222417837910E+03   -0.68883E-04   -0.69580E-04  5760   0.320E-03-0.494E-05
 gam= 0.954 trial= 0.403  step= 0.261 mean= 0.403
 gam= 0.667 g(H,U,f)=  0.967E-04 0.116E-03 0.389E-06 ort(H,U,f) =-0.520E-04 0.758E-04 0.879E-06
CGA: 153    -0.222417881758E+03   -0.43849E-04   -0.41115E-04  5760   0.213E-03 0.247E-04
 gam= 0.667 trial= 0.396  step= 0.335 mean= 0.396
 gam= 1.109 g(H,U,f)=  0.941E-04 0.142E-03 0.632E-06 ort(H,U,f) =-0.169E-04 0.259E-04 0.480E-06
CGA: 154    -0.222417920899E+03   -0.39141E-04   -0.38466E-04  5760   0.236E-03 0.944E-05
 gam= 1.109 trial= 0.393  step= 0.492 mean= 0.393
 gam= 1.367 g(H,U,f)=  0.110E-03 0.213E-03 0.366E-06 ort(H,U,f) =-0.586E-04 0.575E-04-0.851E-06
CGA: 155    -0.222417979419E+03   -0.58520E-04   -0.60737E-04  5760   0.323E-03-0.195E-05
 gam= 1.367 trial= 0.398  step= 0.322 mean= 0.398
 gam= 0.836 g(H,U,f)=  0.115E-03 0.154E-03 0.250E-06 ort(H,U,f) =-0.109E-03 0.112E-03 0.157E-06
CGA: 156    -0.222418032761E+03   -0.53342E-04   -0.51612E-04  5760   0.270E-03 0.396E-05
 gam= 0.836 trial= 0.394  step= 0.288 mean= 0.394
 gam= 0.702 g(H,U,f)=  0.109E-03 0.808E-04 0.111E-06 ort(H,U,f) =-0.628E-04 0.657E-04-0.664E-06
CGA: 157    -0.222418074317E+03   -0.41556E-04   -0.39454E-04  5760   0.190E-03 0.228E-05
 gam= 0.702 trial= 0.389  step= 0.435 mean= 0.389
 gam= 1.266 g(H,U,f)=  0.100E-03 0.140E-03 0.723E-07 ort(H,U,f) =-0.850E-05 0.784E-05 0.848E-07
CGA: 158    -0.222418115472E+03   -0.41155E-04   -0.41653E-04  5760   0.240E-03-0.583E-06
 gam= 1.266 trial= 0.391  step= 0.398 mean= 0.391
 gam= 1.036 g(H,U,f)=  0.905E-04 0.158E-03 0.331E-06 ort(H,U,f) =-0.310E-04 0.363E-04-0.868E-06
CGA: 159    -0.222418162997E+03   -0.47525E-04   -0.47653E-04  5760   0.249E-03 0.444E-05
 gam= 1.036 trial= 0.391  step= 0.250 mean= 0.391
 gam= 0.606 g(H,U,f)=  0.727E-04 0.780E-04 0.343E-06 ort(H,U,f) =-0.398E-04 0.479E-04-0.250E-06
CGA: 160    -0.222418197222E+03   -0.34225E-04   -0.31747E-04  5760   0.151E-03 0.793E-05
 gam= 0.606 trial= 0.384  step= 0.342 mean= 0.384
 gam= 0.907 g(H,U,f)=  0.649E-04 0.714E-04 0.720E-06 ort(H,U,f) =-0.121E-04 0.108E-04-0.210E-06
CGA: 161    -0.222418224245E+03   -0.27023E-04   -0.26673E-04  5760   0.137E-03-0.155E-05
 gam= 0.907 trial= 0.382  step= 0.527 mean= 0.382
 gam= 1.416 g(H,U,f)=  0.697E-04 0.124E-03 0.358E-06 ort(H,U,f) =-0.248E-04 0.244E-04 0.208E-06
CGA: 162    -0.222418259295E+03   -0.35050E-04   -0.35711E-04  5760   0.194E-03-0.188E-06
 gam= 1.416 trial= 0.390  step= 0.333 mean= 0.390
 gam= 0.794 g(H,U,f)=  0.676E-04 0.859E-04 0.587E-06 ort(H,U,f) =-0.622E-04 0.695E-04-0.206E-06
CGA: 163    -0.222418292184E+03   -0.32890E-04   -0.32259E-04  5760   0.154E-03 0.711E-05
 gam= 0.794 trial= 0.387  step= 0.274 mean= 0.387
 gam= 0.893 g(H,U,f)=  0.671E-04 0.703E-04 0.113E-06 ort(H,U,f) =-0.342E-04 0.401E-04-0.165E-06
CGA: 164    -0.222418315488E+03   -0.23304E-04   -0.21890E-04  5760   0.138E-03 0.577E-05
 gam= 0.893 trial= 0.381  step= 0.436 mean= 0.381
 gam= 1.282 g(H,U,f)=  0.749E-04 0.101E-03 0.834E-07 ort(H,U,f) =-0.301E-04 0.261E-04 0.762E-07
CGA: 165    -0.222418346170E+03   -0.30682E-04   -0.31075E-04  5760   0.176E-03-0.388E-05
 gam= 1.282 trial= 0.384  step= 0.460 mean= 0.384
 gam= 1.043 g(H,U,f)=  0.842E-04 0.995E-04 0.199E-06 ort(H,U,f) =-0.570E-04 0.529E-04-0.522E-07
CGA: 166    -0.222418384718E+03   -0.38548E-04   -0.39428E-04  5760   0.184E-03-0.417E-05
 gam= 1.043 trial= 0.388  step= 0.357 mean= 0.388
 gam= 1.060 g(H,U,f)=  0.924E-04 0.102E-03 0.148E-06 ort(H,U,f) =-0.536E-04 0.561E-04-0.180E-06
CGA: 167    -0.222418417074E+03   -0.32356E-04   -0.32065E-04  5760   0.195E-03 0.236E-05
 gam= 1.060 trial= 0.386  step= 0.331 mean= 0.386
 gam= 1.108 g(H,U,f)=  0.932E-04 0.122E-03 0.624E-06 ort(H,U,f) =-0.391E-04 0.428E-04-0.117E-05
CGA: 168    -0.222418450452E+03   -0.33379E-04   -0.32643E-04  5760   0.216E-03 0.258E-05
 gam= 1.108 trial= 0.383  step= 0.426 mean= 0.383
 gam= 0.000 g(H,U,f)=  0.113E-03 0.148E-03 0.142E-05 ort(H,U,f) =-0.562E-04 0.507E-04-0.964E-06
SDA: 169    -0.222418496300E+03   -0.45847E-04   -0.46554E-04  5760   0.263E-03-0.653E-05
 gam= 0.000 trial= 0.385  step= 0.264 mean= 0.385
 gam= 0.759 g(H,U,f)=  0.523E-04 0.146E-03 0.103E-05 ort(H,U,f) = 0.470E-04-0.195E-05 0.188E-06
CGA: 170    -0.222418533212E+03   -0.36912E-04   -0.34622E-04  5760   0.199E-03 0.452E-04
 gam= 0.759 trial= 0.379  step= 0.206 mean= 0.379
 gam= 0.457 g(H,U,f)=  0.281E-04 0.628E-04 0.153E-06 ort(H,U,f) = 0.216E-04-0.466E-05 0.227E-06
CGA: 171    -0.222418562481E+03   -0.29269E-04   -0.24030E-04  5760   0.910E-04 0.172E-04
 gam= 0.457 trial= 0.371  step= 0.716 mean= 0.371
 gam= 1.397 g(H,U,f)=  0.400E-04 0.868E-04 0.379E-06 ort(H,U,f) =-0.196E-04 0.161E-04 0.986E-07
CGA: 172    -0.222418595814E+03   -0.33333E-04   -0.35385E-04  5760   0.127E-03-0.350E-05
 gam= 1.397 trial= 0.388  step= 0.277 mean= 0.388
 gam= 0.943 g(H,U,f)=  0.409E-04 0.786E-04 0.296E-06 ort(H,U,f) =-0.187E-04 0.367E-04 0.198E-07
CGA: 173    -0.222418614685E+03   -0.18871E-04   -0.16964E-04  5760   0.120E-03 0.180E-04
 gam= 0.943 trial= 0.382  step= 0.342 mean= 0.382
 gam= 0.678 g(H,U,f)=  0.342E-04 0.470E-04 0.112E-06 ort(H,U,f) =-0.244E-04 0.217E-04 0.122E-06
CGA: 174    -0.222418638660E+03   -0.23975E-04   -0.23384E-04  5760   0.813E-04-0.262E-05
 gam= 0.678 trial= 0.380  step= 0.409 mean= 0.380
 gam= 1.272 g(H,U,f)=  0.321E-04 0.708E-04 0.433E-06 ort(H,U,f) =-0.957E-05 0.134E-04-0.196E-06
CGA: 175    -0.222418654601E+03   -0.15941E-04   -0.16250E-04  5760   0.103E-03 0.368E-05
 gam= 1.272 trial= 0.382  step= 0.309 mean= 0.382
 gam= 0.929 g(H,U,f)=  0.323E-04 0.635E-04 0.171E-06 ort(H,U,f) =-0.150E-04 0.200E-04-0.318E-06
CGA: 176    -0.222418672548E+03   -0.17946E-04   -0.16679E-04  5760   0.961E-04 0.463E-05
 gam= 0.929 trial= 0.378  step= 0.478 mean= 0.378
 gam= 1.165 g(H,U,f)=  0.387E-04 0.727E-04 0.473E-06 ort(H,U,f) =-0.282E-04 0.240E-04-0.359E-06
CGA: 177    -0.222418695169E+03   -0.22621E-04   -0.23960E-04  5760   0.112E-03-0.454E-05
 gam= 1.165 trial= 0.383  step= 0.282 mean= 0.383
 gam= 0.893 g(H,U,f)=  0.391E-04 0.605E-04 0.331E-06 ort(H,U,f) =-0.253E-04 0.339E-04-0.560E-06
CGA: 178    -0.222418711847E+03   -0.16678E-04   -0.15045E-04  5760   0.999E-04 0.810E-05
 gam= 0.893 trial= 0.378  step= 0.539 mean= 0.378
 gam= 1.436 g(H,U,f)=  0.523E-04 0.907E-04 0.479E-06 ort(H,U,f) =-0.293E-04 0.223E-04-0.158E-06
CGA: 179    -0.222418738088E+03   -0.26242E-04   -0.28886E-04  5760   0.144E-03-0.709E-05
 gam= 1.436 trial= 0.386  step= 0.302 mean= 0.386
 gam= 1.126 g(H,U,f)=  0.634E-04 0.976E-04 0.544E-06 ort(H,U,f) =-0.264E-04 0.350E-04-0.580E-06
CGA: 180    -0.222418759904E+03   -0.21815E-04   -0.20131E-04  5760   0.162E-03 0.803E-05
 gam= 1.126 trial= 0.382  step= 0.587 mean= 0.382
 gam= 1.001 g(H,U,f)=  0.663E-04 0.950E-04 0.394E-06 ort(H,U,f) =-0.428E-04 0.307E-04-0.834E-07
CGA: 181    -0.222418806330E+03   -0.46426E-04   -0.50060E-04  5760   0.162E-03-0.122E-04
 gam= 1.001 trial= 0.392  step= 0.272 mean= 0.392
 gam= 0.897 g(H,U,f)=  0.615E-04 0.829E-04 0.558E-06 ort(H,U,f) =-0.142E-04 0.332E-04-0.427E-06
CGA: 182    -0.222418829256E+03   -0.22927E-04   -0.20370E-04  5760   0.145E-03 0.186E-04
 gam= 0.897 trial= 0.386  step= 0.405 mean= 0.386
 gam= 1.294 g(H,U,f)=  0.582E-04 0.129E-03 0.459E-06 ort(H,U,f) =-0.126E-04 0.711E-05 0.201E-07
CGA: 183    -0.222418861668E+03   -0.32412E-04   -0.32706E-04  5760   0.188E-03-0.545E-05
 gam= 1.294 trial= 0.387  step= 0.489 mean= 0.387
 gam= 1.121 g(H,U,f)=  0.789E-04 0.130E-03 0.102E-05 ort(H,U,f) =-0.630E-04 0.589E-04-0.341E-06
CGA: 184    -0.222418903952E+03   -0.42284E-04   -0.44111E-04  5760   0.210E-03-0.441E-05
 gam= 1.121 trial= 0.392  step= 0.308 mean= 0.392
 gam= 1.022 g(H,U,f)=  0.912E-04 0.122E-03 0.117E-05 ort(H,U,f) =-0.653E-04 0.789E-04-0.830E-06
CGA: 185    -0.222418937619E+03   -0.33667E-04   -0.31647E-04  5760   0.215E-03 0.127E-04
 gam= 1.022 trial= 0.388  step= 0.463 mean= 0.388
 gam= 1.619 g(H,U,f)=  0.133E-03 0.213E-03 0.204E-05 ort(H,U,f) =-0.629E-04 0.535E-04-0.716E-06
CGA: 186    -0.222418988138E+03   -0.50519E-04   -0.52775E-04  5760   0.348E-03-0.101E-04
 gam= 1.619 trial= 0.392  step= 0.396 mean= 0.392
 gam= 1.154 g(H,U,f)=  0.165E-03 0.234E-03 0.233E-05 ort(H,U,f) =-0.117E-03 0.117E-03-0.121E-05
CGA: 187    -0.222419053743E+03   -0.65605E-04   -0.65694E-04  5760   0.401E-03-0.104E-05
 gam= 1.154 trial= 0.392  step= 0.485 mean= 0.392
 gam= 1.178 g(H,U,f)=  0.222E-03 0.243E-03 0.794E-05 ort(H,U,f) =-0.153E-03 0.158E-03-0.368E-05
CGA: 188    -0.222419146307E+03   -0.92564E-04   -0.97029E-04  5760   0.473E-03 0.536E-06
 gam= 1.178 trial= 0.397  step= 0.309 mean= 0.397
 gam= 1.125 g(H,U,f)=  0.246E-03 0.278E-03 0.734E-05 ort(H,U,f) =-0.114E-03 0.126E-03-0.462E-05
CGA: 189    -0.222419222454E+03   -0.76147E-04   -0.73083E-04  5760   0.532E-03 0.747E-05
 gam= 1.125 trial= 0.392  step= 0.371 mean= 0.392
 gam= 0.991 g(H,U,f)=  0.239E-03 0.283E-03 0.484E-05 ort(H,U,f) =-0.103E-03 0.964E-04-0.323E-05
CGA: 190    -0.222419323262E+03   -0.10081E-03   -0.10015E-03  5760   0.527E-03-0.941E-05
 gam= 0.991 trial= 0.391  step= 0.543 mean= 0.391
 gam= 1.048 g(H,U,f)=  0.267E-03 0.277E-03 0.861E-05 ort(H,U,f) =-0.135E-03 0.102E-03-0.117E-05
CGA: 191    -0.222419460069E+03   -0.13681E-03   -0.14051E-03  5760   0.553E-03-0.345E-04
 gam= 1.048 trial= 0.399  step= 0.376 mean= 0.399
 gam= 0.950 g(H,U,f)=  0.235E-03 0.289E-03 0.119E-05 ort(H,U,f) =-0.771E-04 0.841E-04 0.134E-05
CGA: 192    -0.222419557929E+03   -0.97860E-04   -0.97114E-04  5760   0.525E-03 0.830E-05
 gam= 0.950 trial= 0.398  step= 0.337 mean= 0.398
 gam= 1.208 g(H,U,f)=  0.221E-03 0.413E-03 0.297E-06 ort(H,U,f) =-0.318E-04 0.282E-04-0.839E-08
CGA: 193    -0.222419649107E+03   -0.91178E-04   -0.89890E-04  5760   0.634E-03-0.361E-05
 gam= 1.208 trial= 0.395  step= 0.323 mean= 0.395
 gam= 0.687 g(H,U,f)=  0.193E-03 0.242E-03 0.544E-06 ort(H,U,f) =-0.145E-03 0.150E-03 0.131E-05
CGA: 194    -0.222419754550E+03   -0.10544E-03   -0.10174E-03  5760   0.436E-03 0.608E-05
 gam= 0.687 trial= 0.391  step= 0.352 mean= 0.391
 gam= 0.935 g(H,U,f)=  0.193E-03 0.214E-03 0.709E-06 ort(H,U,f) =-0.624E-04 0.646E-04 0.954E-06
CGA: 195    -0.222419832358E+03   -0.77808E-04   -0.77372E-04  5760   0.408E-03 0.313E-05
 gam= 0.935 trial= 0.389  step= 0.440 mean= 0.389
 gam= 1.055 g(H,U,f)=  0.166E-03 0.264E-03 0.303E-06 ort(H,U,f) =-0.430E-04 0.456E-04 0.126E-05
CGA: 196    -0.222419922145E+03   -0.89787E-04   -0.90268E-04  5760   0.430E-03 0.384E-05
 gam= 1.055 trial= 0.392  step= 0.287 mean= 0.392
 gam= 0.662 g(H,U,f)=  0.119E-03 0.166E-03 0.145E-06 ort(H,U,f) =-0.492E-04 0.479E-04-0.711E-06
CGA: 197    -0.222419985296E+03   -0.63152E-04   -0.62199E-04  5760   0.285E-03-0.202E-05
 gam= 0.662 trial= 0.386  step= 0.357 mean= 0.386
 gam= 1.093 g(H,U,f)=  0.110E-03 0.201E-03 0.300E-06 ort(H,U,f) =-0.308E-04 0.269E-04-0.890E-06
CGA: 198    -0.222420036274E+03   -0.50977E-04   -0.50609E-04  5760   0.311E-03-0.485E-05
 gam= 1.093 trial= 0.385  step= 0.380 mean= 0.385
 gam= 1.074 g(H,U,f)=  0.121E-03 0.213E-03 0.464E-06 ort(H,U,f) =-0.660E-04 0.534E-04-0.936E-06
CGA: 199    -0.222420094503E+03   -0.58230E-04   -0.58170E-04  5760   0.334E-03-0.135E-04
 gam= 1.074 trial= 0.385  step= 0.363 mean= 0.385
 gam= 0.000 g(H,U,f)=  0.127E-03 0.213E-03 0.893E-07 ort(H,U,f) =-0.919E-04 0.891E-04-0.274E-06
SDA: 200    -0.222420152777E+03   -0.58274E-04   -0.58028E-04  5760   0.339E-03-0.302E-05
 gam= 0.000 trial= 0.384  step= 0.435 mean= 0.384
 gam= 1.224 g(H,U,f)=  0.788E-04 0.336E-03 0.729E-06 ort(H,U,f) = 0.298E-04-0.750E-05 0.120E-06
CGA: 201    -0.222420225815E+03   -0.73038E-04   -0.73770E-04  5760   0.415E-03 0.224E-04
 gam= 1.224 trial= 0.386  step= 0.268 mean= 0.386
 gam= 1.057 g(H,U,f)=  0.867E-04 0.352E-03 0.285E-06 ort(H,U,f) =-0.155E-04 0.626E-04 0.106E-06
CGA: 202    -0.222420290792E+03   -0.64977E-04   -0.59404E-04  5760   0.439E-03 0.473E-04
 gam= 1.057 trial= 0.380  step= 0.627 mean= 0.380
 gam= 1.536 g(H,U,f)=  0.240E-03 0.434E-03 0.651E-06 ort(H,U,f) =-0.195E-03 0.124E-03 0.592E-06
CGA: 203    -0.222420424511E+03   -0.13372E-03   -0.15323E-03  5760   0.675E-03-0.703E-04
 gam= 1.536 trial= 0.393  step= 0.504 mean= 0.393
 gam= 1.269 g(H,U,f)=  0.415E-03 0.441E-03 0.443E-06 ort(H,U,f) =-0.272E-03 0.265E-03-0.880E-06
CGA: 204    -0.222420563528E+03   -0.13902E-03   -0.14283E-03  5760   0.856E-03-0.755E-05
 gam= 1.269 trial= 0.398  step= 0.268 mean= 0.398
 gam= 0.896 g(H,U,f)=  0.357E-03 0.410E-03 0.499E-06 ort(H,U,f) =-0.105E-03 0.189E-03 0.706E-06
CGA: 205    -0.222420691602E+03   -0.12807E-03   -0.11348E-03  5760   0.768E-03 0.846E-04
 gam= 0.896 trial= 0.392  step= 0.574 mean= 0.392
 gam= 1.306 g(H,U,f)=  0.352E-03 0.649E-03 0.115E-05 ort(H,U,f) =-0.147E-03 0.128E-03-0.227E-05
CGA: 206    -0.222420922876E+03   -0.23127E-03   -0.24225E-03  5760   0.100E-02-0.209E-04
 gam= 1.306 trial= 0.401  step= 0.269 mean= 0.401
 gam= 0.719 g(H,U,f)=  0.313E-03 0.407E-03 0.135E-05 ort(H,U,f) =-0.185E-03 0.280E-03-0.145E-05
CGA: 207    -0.222421073547E+03   -0.15067E-03   -0.13100E-03  5760   0.721E-03 0.932E-04
 gam= 0.719 trial= 0.394  step= 0.326 mean= 0.394
 gam= 0.972 g(H,U,f)=  0.304E-03 0.394E-03 0.199E-05 ort(H,U,f) =-0.668E-04 0.666E-04-0.239E-05
CGA: 208    -0.222421204696E+03   -0.13115E-03   -0.12861E-03  5760   0.701E-03-0.265E-05
 gam= 0.972 trial= 0.391  step= 0.562 mean= 0.391
 gam= 1.127 g(H,U,f)=  0.324E-03 0.465E-03 0.779E-06 ort(H,U,f) =-0.161E-03 0.135E-03-0.220E-06
CGA: 209    -0.222421389063E+03   -0.18437E-03   -0.19609E-03  5760   0.790E-03-0.259E-04
 gam= 1.127 trial= 0.399  step= 0.245 mean= 0.399
 gam= 0.637 g(H,U,f)=  0.247E-03 0.256E-03 0.860E-06 ort(H,U,f) =-0.122E-03 0.180E-03-0.994E-06
CGA: 210    -0.222421491775E+03   -0.10271E-03   -0.93269E-04  5760   0.503E-03 0.568E-04
 gam= 0.637 trial= 0.392  step= 0.317 mean= 0.392
 gam= 0.897 g(H,U,f)=  0.223E-03 0.228E-03 0.218E-06 ort(H,U,f) =-0.158E-04 0.213E-04 0.792E-07
CGA: 211    -0.222421580876E+03   -0.89101E-04   -0.85608E-04  5760   0.452E-03 0.563E-05
 gam= 0.897 trial= 0.388  step= 0.433 mean= 0.388
 gam= 0.857 g(H,U,f)=  0.160E-03 0.226E-03 0.122E-05 ort(H,U,f) =-0.367E-04 0.376E-04 0.389E-06
CGA: 212    -0.222421679338E+03   -0.98463E-04   -0.98818E-04  5760   0.387E-03 0.128E-05
 gam= 0.857 trial= 0.390  step= 0.296 mean= 0.390
 gam= 0.637 g(H,U,f)=  0.110E-03 0.135E-03 0.150E-05 ort(H,U,f) =-0.273E-04 0.475E-04 0.125E-05
CGA: 213    -0.222421739151E+03   -0.59813E-04   -0.57410E-04  5760   0.246E-03 0.215E-04
 gam= 0.637 trial= 0.385  step= 0.289 mean= 0.385
 gam= 0.865 g(H,U,f)=  0.814E-04 0.131E-03 0.922E-06 ort(H,U,f) =-0.689E-05 0.168E-04 0.115E-05
CGA: 214    -0.222421779063E+03   -0.39911E-04   -0.37617E-04  5760   0.213E-03 0.111E-04
 gam= 0.865 trial= 0.381  step= 0.298 mean= 0.381
 gam= 0.718 g(H,U,f)=  0.622E-04 0.907E-04 0.136E-06 ort(H,U,f) =-0.246E-04 0.254E-04-0.483E-06
CGA: 215    -0.222421813164E+03   -0.34101E-04   -0.33217E-04  5760   0.153E-03 0.281E-06
 gam= 0.718 trial= 0.377  step= 0.476 mean= 0.377
 gam= 0.935 g(H,U,f)=  0.617E-04 0.808E-04 0.544E-06 ort(H,U,f) =-0.432E-04 0.437E-04-0.776E-06
CGA: 216    -0.222421849150E+03   -0.35986E-04   -0.36468E-04  5760   0.143E-03-0.290E-06
 gam= 0.935 trial= 0.381  step= 0.361 mean= 0.381
 gam= 0.945 g(H,U,f)=  0.611E-04 0.737E-04 0.241E-06 ort(H,U,f) =-0.381E-04 0.421E-04-0.234E-06
CGA: 217    -0.222421875071E+03   -0.25921E-04   -0.25770E-04  5760   0.135E-03 0.375E-05
 gam= 0.945 trial= 0.380  step= 0.348 mean= 0.380
 gam= 1.338 g(H,U,f)=  0.628E-04 0.118E-03 0.341E-06 ort(H,U,f) =-0.212E-04 0.265E-04 0.264E-06
CGA: 218    -0.222421899747E+03   -0.24676E-04   -0.24117E-04  5760   0.181E-03 0.556E-05
 gam= 1.338 trial= 0.379  step= 0.330 mean= 0.379
 gam= 0.717 g(H,U,f)=  0.644E-04 0.651E-04 0.191E-06 ort(H,U,f) =-0.407E-04 0.364E-04 0.584E-07
CGA: 219    -0.222421931235E+03   -0.31488E-04   -0.31031E-04  5760   0.130E-03-0.423E-05
 gam= 0.717 trial= 0.376  step= 0.532 mean= 0.376
 gam= 1.095 g(H,U,f)=  0.548E-04 0.871E-04 0.149E-06 ort(H,U,f) =-0.195E-04 0.202E-04-0.386E-06
CGA: 220    -0.222421964295E+03   -0.33060E-04   -0.33662E-04  5760   0.142E-03 0.292E-06
 gam= 1.095 trial= 0.384  step= 0.355 mean= 0.384
 gam= 0.619 g(H,U,f)=  0.404E-04 0.469E-04 0.592E-06 ort(H,U,f) =-0.250E-04 0.275E-04-0.665E-06
CGA: 221    -0.222421989709E+03   -0.25414E-04   -0.25291E-04  5760   0.879E-04 0.183E-05
 gam= 0.619 trial= 0.383  step= 0.312 mean= 0.383
 gam= 1.401 g(H,U,f)=  0.414E-04 0.813E-04 0.447E-06 ort(H,U,f) =-0.237E-06 0.667E-05 0.992E-07
CGA: 222    -0.222422004138E+03   -0.14430E-04   -0.13874E-04  5760   0.123E-03 0.653E-05
 gam= 1.401 trial= 0.379  step= 0.480 mean= 0.379
 gam= 1.082 g(H,U,f)=  0.519E-04 0.812E-04 0.137E-06 ort(H,U,f) =-0.338E-04 0.267E-04 0.979E-07
CGA: 223    -0.222422034948E+03   -0.30809E-04   -0.31755E-04  5760   0.133E-03-0.704E-05
 gam= 1.082 trial= 0.384  step= 0.355 mean= 0.384
 gam= 0.772 g(H,U,f)=  0.526E-04 0.502E-04 0.761E-07 ort(H,U,f) =-0.423E-04 0.447E-04 0.463E-08
CGA: 224    -0.222422057466E+03   -0.22518E-04   -0.22300E-04  5760   0.103E-03 0.236E-05
 gam= 0.772 trial= 0.383  step= 0.393 mean= 0.383
 gam= 1.267 g(H,U,f)=  0.566E-04 0.734E-04 0.318E-06 ort(H,U,f) =-0.183E-04 0.215E-04 0.158E-07
CGA: 225    -0.222422077970E+03   -0.20504E-04   -0.20575E-04  5760   0.130E-03 0.321E-05
 gam= 1.267 trial= 0.383  step= 0.302 mean= 0.383
 gam= 0.897 g(H,U,f)=  0.538E-04 0.630E-04 0.896E-07 ort(H,U,f) =-0.119E-04 0.147E-04-0.219E-07
CGA: 226    -0.222422098815E+03   -0.20845E-04   -0.20279E-04  5760   0.117E-03 0.273E-05
 gam= 0.897 trial= 0.379  step= 0.492 mean= 0.379
 gam= 0.940 g(H,U,f)=  0.435E-04 0.662E-04 0.230E-06 ort(H,U,f) =-0.275E-04 0.224E-04-0.377E-06
CGA: 227    -0.222422127065E+03   -0.28250E-04   -0.29381E-04  5760   0.110E-03-0.551E-05
 gam= 0.940 trial= 0.385  step= 0.306 mean= 0.385
 gam= 0.797 g(H,U,f)=  0.393E-04 0.480E-04 0.248E-06 ort(H,U,f) =-0.220E-04 0.228E-04-0.449E-06
CGA: 228    -0.222422143955E+03   -0.16890E-04   -0.16028E-04  5760   0.875E-04 0.332E-06
 gam= 0.797 trial= 0.381  step= 0.279 mean= 0.381
 gam= 0.965 g(H,U,f)=  0.356E-04 0.488E-04 0.157E-06 ort(H,U,f) =-0.845E-05 0.953E-05-0.739E-07
CGA: 229    -0.222422156517E+03   -0.12563E-04   -0.12235E-04  5760   0.845E-04 0.101E-05
 gam= 0.965 trial= 0.376  step= 0.574 mean= 0.376
 gam= 1.230 g(H,U,f)=  0.471E-04 0.568E-04 0.951E-07 ort(H,U,f) =-0.245E-04 0.217E-04 0.162E-08
CGA: 230    -0.222422180013E+03   -0.23496E-04   -0.24525E-04  5760   0.104E-03-0.283E-05
 gam= 1.230 trial= 0.386  step= 0.496 mean= 0.386
 gam= 0.000 g(H,U,f)=  0.520E-04 0.438E-04 0.673E-07 ort(H,U,f) =-0.377E-04 0.341E-04 0.582E-08
SDA: 231    -0.222422204268E+03   -0.24254E-04   -0.24891E-04  5760   0.959E-04-0.363E-05
 gam= 0.000 trial= 0.391  step= 0.288 mean= 0.391
 gam= 0.741 g(H,U,f)=  0.231E-04 0.477E-04 0.248E-06 ort(H,U,f) = 0.212E-04-0.119E-04-0.813E-07
CGA: 232    -0.222422218527E+03   -0.14259E-04   -0.13791E-04  5760   0.710E-04 0.916E-05
 gam= 0.741 trial= 0.386  step= 0.208 mean= 0.386
 gam= 0.536 g(H,U,f)=  0.115E-04 0.265E-04 0.911E-07 ort(H,U,f) = 0.134E-04-0.527E-05-0.803E-07
CGA: 233    -0.222422228655E+03   -0.10128E-04   -0.80948E-05  5760   0.381E-04 0.805E-05
 gam= 0.536 trial= 0.377  step= 0.473 mean= 0.377
 gam= 0.696 g(H,U,f)=  0.922E-05 0.172E-04 0.127E-06 ort(H,U,f) =-0.701E-05 0.489E-05 0.498E-07
CGA: 234    -0.222422238440E+03   -0.97850E-05   -0.10025E-04  5760   0.265E-04-0.206E-05
 gam= 0.696 trial= 0.382  step= 0.429 mean= 0.382
 gam= 1.009 g(H,U,f)=  0.956E-05 0.170E-04 0.116E-06 ort(H,U,f) =-0.483E-05 0.697E-05 0.650E-07
CGA: 235    -0.222422243810E+03   -0.53702E-05   -0.53816E-05  5760   0.267E-04 0.220E-05
 gam= 1.009 trial= 0.384  step= 0.246 mean= 0.384
 gam= 0.835 g(H,U,f)=  0.858E-05 0.137E-04 0.528E-07 ort(H,U,f) =-0.219E-05 0.674E-05-0.492E-08
CGA: 236    -0.222422248058E+03   -0.42484E-05   -0.35658E-05  5760   0.223E-04 0.455E-05
 gam= 0.835 trial= 0.377  step= 0.611 mean= 0.377
 gam= 1.466 g(H,U,f)=  0.110E-04 0.216E-04 0.136E-06 ort(H,U,f) =-0.580E-05 0.311E-05-0.153E-06
CGA: 237    -0.222422255420E+03   -0.73616E-05   -0.79776E-05  5760   0.327E-04-0.285E-05
 gam= 1.466 trial= 0.389  step= 0.260 mean= 0.389
 gam= 0.702 g(H,U,f)=  0.105E-04 0.124E-04 0.107E-06 ort(H,U,f) =-0.654E-05 0.872E-05-0.178E-06
CGA: 238    -0.222422259584E+03   -0.41642E-05   -0.37141E-05  5760   0.230E-04 0.200E-05
 gam= 0.702 trial= 0.383  step= 0.472 mean= 0.383
 gam= 0.966 g(H,U,f)=  0.881E-05 0.133E-04 0.660E-07 ort(H,U,f) =-0.405E-05 0.410E-05-0.248E-07
CGA: 239    -0.222422265146E+03   -0.55615E-05   -0.57577E-05  5760   0.222E-04 0.212E-07
 gam= 0.966 trial= 0.387  step= 0.314 mean= 0.387
 gam= 1.099 g(H,U,f)=  0.824E-05 0.161E-04 0.479E-07 ort(H,U,f) =-0.249E-05 0.428E-05-0.386E-07
CGA: 240    -0.222422268867E+03   -0.37212E-05   -0.34930E-05  5760   0.244E-04 0.175E-05
 gam= 1.099 trial= 0.383  step= 0.344 mean= 0.383
 gam= 0.851 g(H,U,f)=  0.778E-05 0.130E-04 0.284E-07 ort(H,U,f) =-0.489E-05 0.393E-05-0.880E-09
CGA: 241    -0.222422273477E+03   -0.46104E-05   -0.45383E-05  5760   0.208E-04-0.959E-06
 gam= 0.851 trial= 0.382  step= 0.627 mean= 0.382
 gam= 1.317 g(H,U,f)=  0.115E-04 0.158E-04 0.694E-07 ort(H,U,f) =-0.782E-05 0.623E-05-0.390E-07
CGA: 242    -0.222422279162E+03   -0.56849E-05   -0.62625E-05  5760   0.274E-04-0.163E-05
 gam= 1.317 trial= 0.394  step= 0.236 mean= 0.394
 gam= 0.816 g(H,U,f)=  0.113E-04 0.110E-04 0.415E-07 ort(H,U,f) =-0.565E-05 0.821E-05-0.328E-07
CGA: 243    -0.222422282603E+03   -0.34408E-05   -0.29781E-05  5760   0.223E-04 0.252E-05
 gam= 0.816 trial= 0.386  step= 0.462 mean= 0.386
 gam= 1.104 g(H,U,f)=  0.116E-04 0.131E-04 0.215E-07 ort(H,U,f) =-0.313E-05 0.316E-05-0.200E-07
CGA: 244    -0.222422288181E+03   -0.55779E-05   -0.56312E-05  5760   0.247E-04 0.132E-07
 gam= 1.104 trial= 0.390  step= 0.614 mean= 0.390
 gam= 0.933 g(H,U,f)=  0.115E-04 0.115E-04 0.682E-07 ort(H,U,f) =-0.549E-05 0.507E-05 0.129E-07
CGA: 245    -0.222422295657E+03   -0.74761E-05   -0.75789E-05  5760   0.230E-04-0.405E-06
 gam= 0.933 trial= 0.401  step= 0.474 mean= 0.401
 gam= 1.182 g(H,U,f)=  0.967E-05 0.174E-04 0.134E-06 ort(H,U,f) =-0.416E-05 0.375E-05-0.143E-07
CGA: 246    -0.222422300928E+03   -0.52709E-05   -0.53628E-05  5760   0.272E-04-0.425E-06
 gam= 1.182 trial= 0.405  step= 0.229 mean= 0.405
 gam= 0.765 g(H,U,f)=  0.877E-05 0.120E-04 0.554E-07 ort(H,U,f) =-0.301E-05 0.559E-05-0.684E-07
CGA: 247    -0.222422304518E+03   -0.35903E-05   -0.30570E-05  5760   0.208E-04 0.251E-05
 gam= 0.765 trial= 0.396  step= 0.436 mean= 0.396
 gam= 1.023 g(H,U,f)=  0.902E-05 0.122E-04 0.785E-07 ort(H,U,f) =-0.445E-05 0.443E-05-0.844E-07
CGA: 248    -0.222422309445E+03   -0.49273E-05   -0.49502E-05  5760   0.213E-04-0.104E-06
 gam= 1.023 trial= 0.398  step= 0.568 mean= 0.398
 gam= 0.900 g(H,U,f)=  0.107E-04 0.840E-05 0.844E-07 ort(H,U,f) =-0.734E-05 0.789E-05-0.257E-07
CGA: 249    -0.222422315498E+03   -0.60531E-05   -0.60155E-05  5760   0.192E-04 0.533E-06
 gam= 0.900 trial= 0.406  step= 0.623 mean= 0.406
 gam= 1.128 g(H,U,f)=  0.121E-04 0.953E-05 0.124E-08 ort(H,U,f) =-0.618E-05 0.481E-05 0.586E-08
CGA: 250    -0.222422321465E+03   -0.59664E-05   -0.61162E-05  5760   0.216E-04-0.137E-05
 gam= 1.128 trial= 0.417  step= 0.480 mean= 0.417
 gam= 0.887 g(H,U,f)=  0.110E-04 0.815E-05 0.330E-07 ort(H,U,f) =-0.395E-05 0.319E-05-0.308E-07
CGA: 251    -0.222422326254E+03   -0.47890E-05   -0.48167E-05  5760   0.192E-04-0.782E-06
 gam= 0.887 trial= 0.420  step= 0.519 mean= 0.420
 gam= 1.021 g(H,U,f)=  0.865E-05 0.109E-04 0.537E-07 ort(H,U,f) =-0.196E-05 0.254E-05-0.413E-08
CGA: 252    -0.222422331075E+03   -0.48214E-05   -0.47945E-05  5760   0.196E-04 0.575E-06
 gam= 1.021 trial= 0.425  step= 0.277 mean= 0.425
 gam= 0.759 g(H,U,f)=  0.584E-05 0.891E-05 0.961E-07 ort(H,U,f) =-0.551E-06 0.312E-05-0.480E-07
CGA: 253    -0.222422334049E+03   -0.29736E-05   -0.27870E-05  5760   0.148E-04 0.252E-05
 gam= 0.759 trial= 0.418  step= 0.284 mean= 0.418
 gam= 0.912 g(H,U,f)=  0.544E-05 0.806E-05 0.495E-07 ort(H,U,f) =-0.800E-06 0.998E-06-0.478E-07
CGA: 254    -0.222422336647E+03   -0.25981E-05   -0.23772E-05  5760   0.135E-04 0.150E-06
 gam= 0.912 trial= 0.411  step= 0.427 mean= 0.411
 gam= 0.923 g(H,U,f)=  0.597E-05 0.649E-05 0.305E-07 ort(H,U,f) =-0.360E-05 0.248E-05-0.728E-08
CGA: 255    -0.222422339555E+03   -0.29079E-05   -0.29228E-05  5760   0.125E-04-0.112E-05
 gam= 0.923 trial= 0.412  step= 0.404 mean= 0.412
 gam= 0.763 g(H,U,f)=  0.556E-05 0.394E-05 0.365E-07 ort(H,U,f) =-0.299E-05 0.309E-05 0.134E-08
CGA: 256    -0.222422341870E+03   -0.23152E-05   -0.23136E-05  5760   0.953E-05 0.992E-07
 gam= 0.763 trial= 0.411  step= 0.388 mean= 0.411
 gam= 0.908 g(H,U,f)=  0.446E-05 0.416E-05 0.323E-07 ort(H,U,f) =-0.857E-06 0.147E-05-0.351E-07
CGA: 257    -0.222422343743E+03   -0.18729E-05   -0.18622E-05  5760   0.866E-05 0.575E-06
 gam= 0.908 trial= 0.410  step= 0.258 mean= 0.410
 gam= 0.797 g(H,U,f)=  0.309E-05 0.378E-05 0.301E-07 ort(H,U,f) = 0.791E-07 0.244E-06-0.170E-07
CGA: 258    -0.222422344953E+03   -0.12103E-05   -0.11839E-05  5760   0.690E-05 0.306E-06
 gam= 0.797 trial= 0.403  step= 0.372 mean= 0.403
 gam= 0.788 g(H,U,f)=  0.243E-05 0.298E-05 0.314E-07 ort(H,U,f) =-0.901E-06 0.705E-06-0.129E-07
CGA: 259    -0.222422346302E+03   -0.13487E-05   -0.13290E-05  5760   0.544E-05-0.208E-06
 gam= 0.788 trial= 0.401  step= 0.425 mean= 0.401
 gam= 0.983 g(H,U,f)=  0.245E-05 0.288E-05 0.179E-07 ort(H,U,f) =-0.153E-05 0.119E-05-0.100E-07
CGA: 260    -0.222422347411E+03   -0.11086E-05   -0.11201E-05  5760   0.534E-05-0.348E-06
 gam= 0.983 trial= 0.402  step= 0.286 mean= 0.402
 gam= 1.020 g(H,U,f)=  0.251E-05 0.293E-05 0.185E-07 ort(H,U,f) =-0.106E-05 0.136E-05-0.133E-07
CGA: 261    -0.222422348147E+03   -0.73639E-06   -0.71485E-06  5760   0.545E-05 0.294E-06
 gam= 1.020 trial= 0.396  step= 0.440 mean= 0.396
 gam= 0.000 g(H,U,f)=  0.279E-05 0.330E-05 0.146E-07 ort(H,U,f) =-0.155E-05 0.197E-05-0.961E-08
SDA: 262    -0.222422349411E+03   -0.12642E-05   -0.12643E-05  5760   0.610E-05 0.410E-06
 gam= 0.000 trial= 0.399  step= 0.318 mean= 0.399
 gam= 0.825 g(H,U,f)=  0.121E-05 0.377E-05 0.589E-07 ort(H,U,f) = 0.752E-06-0.401E-06-0.255E-07
CGA: 263    -0.222422350422E+03   -0.10111E-05   -0.97144E-06  5760   0.504E-05 0.326E-06
 gam= 0.825 trial= 0.395  step= 0.203 mean= 0.395
 gam= 0.646 g(H,U,f)=  0.796E-06 0.245E-05 0.125E-07 ort(H,U,f) = 0.289E-06 0.804E-07-0.162E-07
CGA: 264    -0.222422351087E+03   -0.66513E-06   -0.53775E-06  5760   0.325E-05 0.353E-06
 gam= 0.646 trial= 0.385  step= 0.545 mean= 0.385
 final diagonalization
   1 F= -.23198363E+03 E0= -.23197874E+03  d E =-.978324E-02  mag=     6.0000
