 running on   64 total cores
 distrk:  each k-point on   64 cores,    1 groups
 distr:  one band on    4 cores,   16 groups
 using from now: INCAR     
 vasp.5.4.4.18Apr17-6-g9f103f2a35 (build Nov 22 2021 14:44:17) complex          
  
 POSCAR found type information on POSCAR  Li Co O 
 POSCAR found :  3 types and      42 ions
 scaLAPACK will be used
 LDA part: xc-table for Pade appr. of Perdew
 generate k-points for:    6    6    2
 POSCAR, INCAR and KPOINTS ok, starting setup
 FFT: planning ...
 WAVECAR not read
 entering main loop
       N       E                     dE             d eps       ncg     rms          ort
DAV:   1     0.348989272150E+04    0.34899E+04   -0.13939E+05  5760   0.218E+03
DAV:   2     0.410695644219E+03   -0.30792E+04   -0.28382E+04  5760   0.532E+02
DAV:   3    -0.221202716850E+03   -0.63190E+03   -0.57804E+03  5760   0.254E+02
DAV:   4    -0.271652558023E+03   -0.50450E+02   -0.49375E+02  5760   0.739E+01
DAV:   5    -0.273393311562E+03   -0.17408E+01   -0.17378E+01  5760   0.137E+01
 gam= 0.000 g(H,U,f)=  0.176E+04 0.832E+03 0.836E+03 ort(H,U,f) = 0.000E+00 0.000E+00 0.000E+00
SDA:   6     0.982554364638E+02    0.37165E+03   -0.17378E+01  5760   0.343E+04 0.000E+00
 gam= 0.000 trial= 0.400  step= 0.055 mean= 0.400
 gam= 1.426 g(H,U,f)=  0.110E+04 0.197E+04 0.183E+04 ort(H,U,f) = 0.122E+04-0.297E+03-0.133E+04
CGA:   7     0.137739323506E+02   -0.84482E+02   -0.93893E+02  5760   0.489E+04-0.411E+03
 gam= 1.426 trial= 0.383  step= 0.065 mean= 0.383
 gam= 0.000 g(H,U,f)=  0.769E+03 0.172E+04 0.307E+04 ort(H,U,f) = 0.177E+04 0.875E+03-0.839E+02
CGA:   8    -0.212270870506E+02   -0.35001E+02   -0.13884E+03  5760   0.555E+04 0.256E+04
 gam= 0.000 trial= 0.367  step= 0.077 mean= 0.367
 gam= 0.178 g(H,U,f)=  0.373E+03 0.436E+03 0.181E+03 ort(H,U,f) = 0.132E+03 0.783E+02-0.770E+02
CGA:   9    -0.124643443125E+03   -0.10342E+03   -0.21384E+03  5760   0.991E+03 0.133E+03
 gam= 0.178 trial= 0.352  step= 0.057 mean= 0.352
 gam= 0.825 g(H,U,f)=  0.202E+03 0.361E+03 0.255E+03 ort(H,U,f) = 0.255E+03 0.106E+03-0.181E+03
CGA:  10    -0.158000262398E+03   -0.33357E+02   -0.29164E+02  5760   0.818E+03 0.181E+03
 gam= 0.825 trial= 0.338  step= 0.010 mean= 0.338
 gam= 0.000 g(H,U,f)=  0.196E+03 0.343E+03 0.166E+03 ort(H,U,f) = 0.405E+03 0.509E+03 0.894E+02
CGA:  11    -0.161320074561E+03   -0.33198E+01   -0.48254E+01  5760   0.705E+03 0.100E+04
 gam= 0.000 trial= 0.321  step= 0.016 mean= 0.321
 gam= 0.000 g(H,U,f)=  0.145E+03 0.545E+03 0.330E+03 ort(H,U,f) = 0.168E+03 0.736E+03 0.487E+03
CGA:  12    -0.175368318975E+03   -0.14048E+02   -0.55359E+01  5760   0.102E+04 0.139E+04
 gam= 0.000 trial= 0.306  step= 0.063 mean= 0.306
 gam= 0.000 g(H,U,f)=  0.938E+02 0.753E+03 0.436E+03 ort(H,U,f) = 0.449E+02-0.559E+03-0.371E+03
CGA:  13    -0.181980731859E+03   -0.66124E+01   -0.32068E+02  5760   0.128E+04-0.885E+03
 gam= 0.000 trial= 0.294  step= 0.073 mean= 0.294
 gam= 0.323 g(H,U,f)=  0.984E+02 0.241E+03 0.747E+02 ort(H,U,f) = 0.550E+01-0.139E+03-0.482E+02
CGA:  14    -0.184544380925E+03   -0.25636E+01   -0.47044E+02  5760   0.414E+03-0.181E+03
 gam= 0.323 trial= 0.283  step= 0.049 mean= 0.283
 gam= 0.191 g(H,U,f)=  0.312E+02 0.393E+02 0.868E+01 ort(H,U,f) = 0.552E+02 0.859E+02 0.107E+02
CGA:  15    -0.206122627107E+03   -0.21578E+02   -0.86652E+01  5760   0.792E+02 0.152E+03
 gam= 0.191 trial= 0.271  step= 0.045 mean= 0.271
 gam= 1.155 g(H,U,f)=  0.227E+02 0.624E+02 0.633E+01 ort(H,U,f) = 0.303E+02-0.471E+02-0.705E+01
CGA:  16    -0.207993176310E+03   -0.18705E+01   -0.24125E+01  5760   0.914E+02-0.238E+02
 gam= 1.155 trial= 0.260  step= 0.092 mean= 0.260
 gam= 2.641 g(H,U,f)=  0.197E+02 0.178E+03 0.436E+02 ort(H,U,f) = 0.271E+02-0.238E+02-0.676E+01
CGA:  17    -0.210726610449E+03   -0.27334E+01   -0.29557E+01  5760   0.241E+03-0.350E+01
 gam= 2.641 trial= 0.251  step= 0.045 mean= 0.251
 gam= 0.318 g(H,U,f)=  0.195E+02 0.485E+02 0.873E+01 ort(H,U,f) = 0.282E+02-0.237E+02 0.462E+01
CGA:  18    -0.215202749877E+03   -0.44761E+01   -0.52293E+01  5760   0.768E+02 0.913E+01
 gam= 0.318 trial= 0.241  step= 0.046 mean= 0.241
 gam= 0.507 g(H,U,f)=  0.173E+02 0.190E+02 0.256E+01 ort(H,U,f) = 0.178E+02-0.303E+02-0.523E+01
CGA:  19    -0.216550867348E+03   -0.13481E+01   -0.18509E+01  5760   0.389E+02-0.177E+02
 gam= 0.507 trial= 0.231  step= 0.165 mean= 0.231
 gam= 0.922 g(H,U,f)=  0.613E+01 0.241E+02 0.569E+01 ort(H,U,f) = 0.236E+01-0.157E+01-0.495E+00
CGA:  20    -0.218978276840E+03   -0.24274E+01   -0.24756E+01  5760   0.359E+02 0.296E+00
 gam= 0.922 trial= 0.228  step= 0.065 mean= 0.228
 gam= 0.323 g(H,U,f)=  0.377E+01 0.600E+01 0.182E+01 ort(H,U,f) =-0.458E+01 0.220E-01-0.953E+00
CGA:  21    -0.219942692177E+03   -0.96442E+00   -0.11807E+01  5760   0.116E+02-0.551E+01
 gam= 0.323 trial= 0.220  step= 0.063 mean= 0.220
 gam= 0.529 g(H,U,f)=  0.332E+01 0.237E+01 0.427E+00 ort(H,U,f) = 0.595E+00-0.871E+00-0.570E+00
CGA:  22    -0.220214375085E+03   -0.27168E+00   -0.30788E+00  5760   0.612E+01-0.846E+00
 gam= 0.529 trial= 0.212  step= 0.176 mean= 0.212
 gam= 1.499 g(H,U,f)=  0.234E+01 0.508E+01 0.176E+01 ort(H,U,f) = 0.131E+01-0.928E+00-0.295E+00
CGA:  23    -0.220707771065E+03   -0.49340E+00   -0.49845E+00  5760   0.918E+01 0.826E-01
 gam= 1.499 trial= 0.210  step= 0.103 mean= 0.210
 gam= 0.855 g(H,U,f)=  0.167E+01 0.510E+01 0.108E+01 ort(H,U,f) = 0.696E+00-0.403E+00-0.644E+00
CGA:  24    -0.221138384783E+03   -0.43061E+00   -0.48041E+00  5760   0.785E+01-0.352E+00
 gam= 0.855 trial= 0.205  step= 0.124 mean= 0.205
 gam= 0.190 g(H,U,f)=  0.769E+00 0.648E+00 0.712E-01 ort(H,U,f) =-0.133E+01 0.127E+01 0.141E-01
CGA:  25    -0.221581369727E+03   -0.44298E+00   -0.46939E+00  5760   0.149E+01-0.456E-01
 gam= 0.190 trial= 0.201  step= 0.167 mean= 0.201
 gam= 1.381 g(H,U,f)=  0.549E+00 0.111E+01 0.393E+00 ort(H,U,f) = 0.112E+00 0.340E-01-0.139E+00
CGA:  26    -0.221704675050E+03   -0.12331E+00   -0.12368E+00  5760   0.206E+01 0.692E-02
 gam= 1.381 trial= 0.199  step= 0.135 mean= 0.199
 gam= 0.652 g(H,U,f)=  0.545E+00 0.730E+00 0.650E-01 ort(H,U,f) =-0.447E-01 0.850E-01-0.424E-01
CGA:  27    -0.221844546819E+03   -0.13987E+00   -0.13947E+00  5760   0.134E+01-0.209E-02
 gam= 0.652 trial= 0.196  step= 0.246 mean= 0.196
 gam= 1.287 g(H,U,f)=  0.445E+00 0.991E+00 0.289E+00 ort(H,U,f) =-0.181E+00 0.226E+00-0.412E-01
CGA:  28    -0.222009888181E+03   -0.16534E+00   -0.16499E+00  5760   0.172E+01 0.414E-02
 gam= 1.287 trial= 0.198  step= 0.164 mean= 0.198
 gam= 0.578 g(H,U,f)=  0.463E+00 0.474E+00 0.595E-01 ort(H,U,f) =-0.543E+00 0.594E+00 0.275E-01
CGA:  29    -0.222147884628E+03   -0.13800E+00   -0.14200E+00  5760   0.997E+00 0.787E-01
 gam= 0.578 trial= 0.197  step= 0.275 mean= 0.197
 gam= 1.651 g(H,U,f)=  0.533E+00 0.807E+00 0.305E+00 ort(H,U,f) =-0.174E+00 0.272E+00-0.176E+00
CGA:  30    -0.222287664781E+03   -0.13978E+00   -0.14360E+00  5760   0.165E+01-0.777E-01
 gam= 1.651 trial= 0.201  step= 0.189 mean= 0.201
 gam= 0.770 g(H,U,f)=  0.700E+00 0.560E+00 0.851E-02 ort(H,U,f) =-0.416E+00 0.469E+00-0.858E-02
CGA:  31    -0.222430241823E+03   -0.14258E+00   -0.14316E+00  5760   0.127E+01 0.438E-01
 gam= 0.770 trial= 0.200  step= 0.337 mean= 0.200
 gam= 1.337 g(H,U,f)=  0.702E+00 0.741E+00 0.252E+00 ort(H,U,f) =-0.406E+00 0.425E+00 0.373E-01
CGA:  32    -0.222654629948E+03   -0.22439E+00   -0.21933E+00  5760   0.169E+01 0.557E-01
 gam= 1.337 trial= 0.207  step= 0.147 mean= 0.207
 gam= 1.108 g(H,U,f)=  0.703E+00 0.839E+00 0.336E+00 ort(H,U,f) =-0.311E+00 0.656E+00-0.369E+00
CGA:  33    -0.222787155300E+03   -0.13253E+00   -0.13044E+00  5760   0.188E+01-0.243E-01
 gam= 1.108 trial= 0.204  step= 0.199 mean= 0.204
 gam= 0.790 g(H,U,f)=  0.715E+00 0.575E+00 0.194E+00 ort(H,U,f) =-0.470E+00 0.522E+00-0.749E-01
CGA:  34    -0.222971311296E+03   -0.18416E+00   -0.18401E+00  5760   0.148E+01-0.236E-01
 gam= 0.790 trial= 0.204  step= 0.140 mean= 0.204
 gam= 1.107 g(H,U,f)=  0.634E+00 0.691E+00 0.318E+00 ort(H,U,f) =-0.727E-01 0.176E+00-0.948E-01
CGA:  35    -0.223073229781E+03   -0.10192E+00   -0.10275E+00  5760   0.164E+01 0.909E-02
 gam= 1.107 trial= 0.201  step= 0.200 mean= 0.201
 gam= 0.562 g(H,U,f)=  0.456E+00 0.430E+00 0.363E-01 ort(H,U,f) =-0.217E+00 0.269E+00 0.217E-01
CGA:  36    -0.223238078533E+03   -0.16485E+00   -0.16492E+00  5760   0.923E+00 0.738E-01
 gam= 0.562 trial= 0.200  step= 0.263 mean= 0.200
 gam= 1.778 g(H,U,f)=  0.338E+00 0.666E+00 0.636E+00 ort(H,U,f) =-0.248E-01 0.240E+00-0.181E+00
CGA:  37    -0.223366375688E+03   -0.12830E+00   -0.12665E+00  5760   0.164E+01 0.339E-01
 gam= 1.778 trial= 0.204  step= 0.088 mean= 0.204
 gam= 0.390 g(H,U,f)=  0.262E+00 0.332E+00 0.469E-01 ort(H,U,f) =-0.146E+00 0.353E+00-0.734E-01
CGA:  38    -0.223448218392E+03   -0.81843E-01   -0.75031E-01  5760   0.640E+00 0.134E+00
 gam= 0.390 trial= 0.198  step= 0.159 mean= 0.198
 gam= 1.097 g(H,U,f)=  0.186E+00 0.285E+00 0.232E+00 ort(H,U,f) = 0.166E-01 0.285E-01-0.177E+00
CGA:  39    -0.223506699321E+03   -0.58481E-01   -0.54961E-01  5760   0.702E+00-0.132E+00
 gam= 1.097 trial= 0.196  step= 0.086 mean= 0.196
 gam= 1.207 g(H,U,f)=  0.167E+00 0.353E+00 0.328E+00 ort(H,U,f) = 0.587E-01 0.864E-01-0.214E+00
CGA:  40    -0.223541938929E+03   -0.35240E-01   -0.23936E-01  5760   0.847E+00-0.686E-01
 gam= 1.207 trial= 0.190  step= 0.110 mean= 0.190
 gam= 1.112 g(H,U,f)=  0.211E+00 0.417E+00 0.315E+00 ort(H,U,f) =-0.451E-01 0.162E+00-0.235E+00
CGA:  41    -0.223590611502E+03   -0.48673E-01   -0.42028E-01  5760   0.942E+00-0.118E+00
 gam= 1.112 trial= 0.186  step= 0.094 mean= 0.186
 gam= 0.944 g(H,U,f)=  0.275E+00 0.486E+00 0.128E+00 ort(H,U,f) =-0.793E-01 0.335E+00-0.900E-01
CGA:  42    -0.223633158408E+03   -0.42547E-01   -0.37904E-01  5760   0.889E+00 0.166E+00
 gam= 0.944 trial= 0.182  step= 0.121 mean= 0.182
 gam= 0.938 g(H,U,f)=  0.265E+00 0.541E+00 0.291E-01 ort(H,U,f) =-0.118E+00 0.242E+00 0.564E-02
CGA:  43    -0.223694907330E+03   -0.61749E-01   -0.63296E-01  5760   0.834E+00 0.130E+00
 gam= 0.938 trial= 0.179  step= 0.093 mean= 0.179
 gam= 0.000 g(H,U,f)=  0.242E+00 0.317E+00 0.147E+00 ort(H,U,f) =-0.136E+00 0.112E+00 0.138E+00
SDA:  44    -0.223738691094E+03   -0.43784E-01   -0.44383E-01  5760   0.706E+00 0.114E+00
 gam= 0.000 trial= 0.174  step= 0.200 mean= 0.174
 gam= 0.632 g(H,U,f)=  0.127E+00 0.187E+00 0.132E+00 ort(H,U,f) = 0.129E+00 0.602E-01 0.103E+00
CGA:  45    -0.223812876811E+03   -0.74186E-01   -0.70424E-01  5760   0.446E+00 0.292E+00
 gam= 0.632 trial= 0.176  step= 0.159 mean= 0.176
 gam= 0.355 g(H,U,f)=  0.561E-01 0.956E-01 0.660E-02 ort(H,U,f) = 0.809E-01 0.677E-01 0.205E-01
CGA:  46    -0.223859992148E+03   -0.47115E-01   -0.49935E-01  5760   0.158E+00 0.169E+00
 gam= 0.355 trial= 0.175  step= 0.563 mean= 0.175
 gam= 1.111 g(H,U,f)=  0.455E-01 0.122E+00 0.844E-02 ort(H,U,f) =-0.213E-01 0.486E-01 0.891E-02
CGA:  47    -0.223927493688E+03   -0.67502E-01   -0.61491E-01  5760   0.176E+00 0.361E-01
 gam= 1.111 trial= 0.194  step= 0.252 mean= 0.194
 gam= 1.809 g(H,U,f)=  0.836E-01 0.156E+00 0.788E-01 ort(H,U,f) =-0.448E-01 0.480E-01-0.741E-01
CGA:  48    -0.223954199510E+03   -0.26706E-01   -0.27237E-01  5760   0.318E+00-0.709E-01
 gam= 1.809 trial= 0.197  step= 0.347 mean= 0.197
 gam= 0.000 g(H,U,f)=  0.189E+00 0.182E+00 0.103E+00 ort(H,U,f) =-0.206E+00 0.827E-01-0.860E-01
CGA:  49    -0.223973219530E+03   -0.19020E-01   -0.32945E-01  5760   0.474E+00-0.209E+00
 gam= 0.000 trial= 0.205  step= 0.156 mean= 0.205
 gam= 0.440 g(H,U,f)=  0.827E-01 0.121E+00 0.545E-02 ort(H,U,f) = 0.971E-01-0.259E-01 0.148E-01
CGA:  50    -0.224008144589E+03   -0.34925E-01   -0.36897E-01  5760   0.209E+00 0.860E-01
 gam= 0.440 trial= 0.202  step= 0.392 mean= 0.202
 gam= 1.155 g(H,U,f)=  0.503E-01 0.161E+00 0.298E-01 ort(H,U,f) = 0.427E-02-0.125E-01 0.278E-01
CGA:  51    -0.224054086833E+03   -0.45942E-01   -0.48391E-01  5760   0.241E+00 0.196E-01
 gam= 1.155 trial= 0.212  step= 0.236 mean= 0.212
 gam= 0.662 g(H,U,f)=  0.507E-01 0.107E+00 0.140E-02 ort(H,U,f) =-0.432E-01 0.111E+00-0.544E-02
CGA:  52    -0.224086616731E+03   -0.32530E-01   -0.31102E-01  5760   0.159E+00 0.620E-01
 gam= 0.662 trial= 0.213  step= 0.720 mean= 0.213
 gam= 0.000 g(H,U,f)=  0.166E+00 0.419E+00 0.131E-02 ort(H,U,f) =-0.117E+00-0.361E-02-0.176E-04
CGA:  53    -0.224130811717E+03   -0.44195E-01   -0.72217E-01  5760   0.585E+00-0.121E+00
 gam= 0.000 trial= 0.238  step= 0.227 mean= 0.238
 gam= 0.395 g(H,U,f)=  0.792E-01 0.151E+00 0.472E-03 ort(H,U,f) = 0.264E-01 0.233E-02-0.154E-03
CGA:  54    -0.224197037412E+03   -0.66226E-01   -0.66479E-01  5760   0.231E+00 0.286E-01
 gam= 0.395 trial= 0.238  step= 0.435 mean= 0.238
 gam= 1.937 g(H,U,f)=  0.922E-01 0.355E+00 0.157E-04 ort(H,U,f) = 0.113E-03-0.704E-02-0.286E-05
CGA:  55    -0.224242326489E+03   -0.45289E-01   -0.52660E-01  5760   0.448E+00-0.693E-02
 gam= 1.937 trial= 0.248  step= 0.239 mean= 0.248
 gam= 0.938 g(H,U,f)=  0.140E+00 0.280E+00 0.231E-04 ort(H,U,f) =-0.152E+00 0.957E-01-0.142E-04
CGA:  56    -0.224294755584E+03   -0.52429E-01   -0.51850E-01  5760   0.420E+00-0.559E-01
 gam= 0.938 trial= 0.247  step= 0.256 mean= 0.247
 gam= 1.154 g(H,U,f)=  0.196E+00 0.288E+00 0.128E-03 ort(H,U,f) =-0.137E+00 0.174E+00-0.109E-04
CGA:  57    -0.224341910680E+03   -0.47155E-01   -0.47023E-01  5760   0.484E+00 0.363E-01
 gam= 1.154 trial= 0.248  step= 0.181 mean= 0.248
 gam= 0.592 g(H,U,f)=  0.147E+00 0.139E+00 0.870E-03 ort(H,U,f) =-0.928E-01 0.987E-01-0.122E-02
CGA:  58    -0.224390773166E+03   -0.48862E-01   -0.47607E-01  5760   0.287E+00 0.461E-02
 gam= 0.592 trial= 0.244  step= 0.465 mean= 0.244
 gam= 0.784 g(H,U,f)=  0.133E+00 0.918E-01 0.302E-03 ort(H,U,f) =-0.319E-01 0.775E-01 0.139E-03
CGA:  59    -0.224463642234E+03   -0.72869E-01   -0.67265E-01  5760   0.225E+00 0.457E-01
 gam= 0.784 trial= 0.255  step= 0.358 mean= 0.255
 gam= 0.817 g(H,U,f)=  0.548E-01 0.119E+00 0.105E-01 ort(H,U,f) = 0.859E-02 0.173E-03-0.342E-02
CGA:  60    -0.224509432552E+03   -0.45790E-01   -0.46673E-01  5760   0.184E+00 0.535E-02
 gam= 0.817 trial= 0.260  step= 0.155 mean= 0.260
 gam= 0.431 g(H,U,f)=  0.297E-01 0.487E-01 0.870E-03 ort(H,U,f) =-0.159E-02 0.572E-02-0.182E-02
CGA:  61    -0.224525882664E+03   -0.16450E-01   -0.14546E-01  5760   0.793E-01 0.231E-02
 gam= 0.431 trial= 0.255  step= 0.531 mean= 0.255
 gam= 0.854 g(H,U,f)=  0.248E-01 0.405E-01 0.243E-02 ort(H,U,f) =-0.118E-01 0.112E-01 0.193E-03
CGA:  62    -0.224547166371E+03   -0.21284E-01   -0.21324E-01  5760   0.678E-01-0.366E-03
 gam= 0.854 trial= 0.269  step= 0.184 mean= 0.269
 gam= 0.751 g(H,U,f)=  0.192E-01 0.284E-01 0.321E-02 ort(H,U,f) = 0.228E-02 0.671E-02-0.332E-02
CGA:  63    -0.224553805944E+03   -0.66396E-02   -0.62197E-02  5760   0.509E-01 0.566E-02
 gam= 0.751 trial= 0.265  step= 0.329 mean= 0.265
 gam= 0.645 g(H,U,f)=  0.163E-01 0.165E-01 0.428E-06 ort(H,U,f) =-0.968E-02 0.681E-02-0.552E-05
CGA:  64    -0.224562709258E+03   -0.89033E-02   -0.90636E-02  5760   0.328E-01-0.287E-02
 gam= 0.645 trial= 0.268  step= 0.589 mean= 0.268
 gam= 1.334 g(H,U,f)=  0.169E-01 0.243E-01 0.256E-02 ort(H,U,f) =-0.751E-02 0.873E-02-0.393E-03
CGA:  65    -0.224571853982E+03   -0.91447E-02   -0.91113E-02  5760   0.438E-01 0.829E-03
 gam= 1.334 trial= 0.284  step= 0.172 mean= 0.284
 gam= 0.581 g(H,U,f)=  0.124E-01 0.113E-01 0.170E-02 ort(H,U,f) =-0.658E-02 0.106E-01-0.192E-02
CGA:  66    -0.224576013211E+03   -0.41592E-02   -0.38548E-02  5760   0.254E-01 0.206E-02
 gam= 0.581 trial= 0.278  step= 0.524 mean= 0.278
 gam= 0.954 g(H,U,f)=  0.119E-01 0.124E-01 0.489E-04 ort(H,U,f) =-0.534E-02 0.386E-02-0.930E-04
CGA:  67    -0.224582698783E+03   -0.66856E-02   -0.69758E-02  5760   0.243E-01-0.157E-02
 gam= 0.954 trial= 0.291  step= 0.561 mean= 0.291
 gam= 0.715 g(H,U,f)=  0.887E-02 0.787E-02 0.599E-03 ort(H,U,f) =-0.456E-02 0.473E-02-0.128E-03
CGA:  68    -0.224589076074E+03   -0.63773E-02   -0.63887E-02  5760   0.173E-01 0.441E-04
 gam= 0.715 trial= 0.304  step= 0.283 mean= 0.304
 gam= 1.122 g(H,U,f)=  0.758E-02 0.101E-01 0.179E-02 ort(H,U,f) = 0.392E-03 0.105E-02-0.982E-03
CGA:  69    -0.224591560732E+03   -0.24847E-02   -0.24631E-02  5760   0.195E-01 0.462E-03
 gam= 1.122 trial= 0.303  step= 0.252 mean= 0.303
 gam= 0.644 g(H,U,f)=  0.550E-02 0.692E-02 0.113E-03 ort(H,U,f) =-0.563E-03 0.366E-03-0.171E-03
CGA:  70    -0.224594111325E+03   -0.25506E-02   -0.25163E-02  5760   0.125E-01-0.367E-03
 gam= 0.644 trial= 0.301  step= 0.504 mean= 0.301
 gam= 0.574 g(H,U,f)=  0.411E-02 0.304E-02 0.357E-04 ort(H,U,f) =-0.343E-02 0.337E-02 0.147E-05
CGA:  71    -0.224597204909E+03   -0.30936E-02   -0.31000E-02  5760   0.719E-02-0.576E-04
 gam= 0.574 trial= 0.311  step= 0.413 mean= 0.311
 gam= 1.409 g(H,U,f)=  0.317E-02 0.610E-02 0.855E-03 ort(H,U,f) =-0.818E-03 0.110E-02-0.188E-03
CGA:  72    -0.224598673119E+03   -0.14682E-02   -0.14771E-02  5760   0.101E-01 0.956E-04
 gam= 1.409 trial= 0.316  step= 0.249 mean= 0.316
 gam= 0.989 g(H,U,f)=  0.376E-02 0.563E-02 0.622E-03 ort(H,U,f) =-0.188E-02 0.251E-02-0.486E-03
CGA:  73    -0.224599971581E+03   -0.12985E-02   -0.12750E-02  5760   0.100E-01 0.145E-03
 gam= 0.989 trial= 0.313  step= 0.527 mean= 0.313
 gam= 0.835 g(H,U,f)=  0.493E-02 0.342E-02 0.241E-04 ort(H,U,f) =-0.402E-02 0.359E-02-0.315E-04
CGA:  74    -0.224602567286E+03   -0.25957E-02   -0.26753E-02  5760   0.837E-02-0.461E-03
 gam= 0.835 trial= 0.323  step= 0.566 mean= 0.323
 gam= 0.958 g(H,U,f)=  0.491E-02 0.309E-02 0.200E-04 ort(H,U,f) =-0.218E-02 0.226E-02-0.229E-05
CGA:  75    -0.224604836667E+03   -0.22694E-02   -0.22589E-02  5760   0.802E-02 0.821E-04
 gam= 0.958 trial= 0.335  step= 0.658 mean= 0.335
 gam= 1.208 g(H,U,f)=  0.493E-02 0.443E-02 0.322E-03 ort(H,U,f) =-0.165E-02 0.172E-02-0.733E-04
CGA:  76    -0.224607496794E+03   -0.26601E-02   -0.26639E-02  5760   0.968E-02-0.154E-05
 gam= 1.208 trial= 0.351  step= 0.345 mean= 0.351
 gam= 1.360 g(H,U,f)=  0.439E-02 0.682E-02 0.196E-02 ort(H,U,f) =-0.117E-02 0.189E-02-0.611E-03
CGA:  77    -0.224609170029E+03   -0.16732E-02   -0.16724E-02  5760   0.132E-01 0.111E-03
 gam= 1.360 trial= 0.351  step= 0.240 mean= 0.351
 gam= 0.592 g(H,U,f)=  0.367E-02 0.374E-02 0.386E-03 ort(H,U,f) =-0.216E-02 0.262E-02-0.501E-03
CGA:  78    -0.224610781845E+03   -0.16118E-02   -0.15977E-02  5760   0.779E-02-0.378E-04
 gam= 0.592 trial= 0.346  step= 0.515 mean= 0.346
 gam= 0.831 g(H,U,f)=  0.348E-02 0.299E-02 0.153E-05 ort(H,U,f) =-0.210E-02 0.209E-02-0.546E-05
CGA:  79    -0.224612781897E+03   -0.20001E-02   -0.20019E-02  5760   0.647E-02-0.866E-05
 gam= 0.831 trial= 0.354  step= 0.668 mean= 0.354
 gam= 1.105 g(H,U,f)=  0.405E-02 0.310E-02 0.140E-05 ort(H,U,f) =-0.188E-02 0.185E-02 0.234E-05
CGA:  80    -0.224614935756E+03   -0.21539E-02   -0.21595E-02  5760   0.715E-02-0.362E-04
 gam= 1.105 trial= 0.370  step= 0.606 mean= 0.370
 gam= 0.996 g(H,U,f)=  0.404E-02 0.307E-02 0.186E-04 ort(H,U,f) =-0.185E-02 0.185E-02-0.498E-05
CGA:  81    -0.224617081100E+03   -0.21453E-02   -0.21530E-02  5760   0.712E-02-0.103E-05
 gam= 0.996 trial= 0.382  step= 0.503 mean= 0.382
 gam= 1.104 g(H,U,f)=  0.360E-02 0.404E-02 0.229E-03 ort(H,U,f) =-0.140E-02 0.155E-02-0.534E-04
CGA:  82    -0.224618850573E+03   -0.17695E-02   -0.17893E-02  5760   0.786E-02 0.945E-04
 gam= 1.104 trial= 0.388  step= 0.222 mean= 0.388
 gam= 0.915 g(H,U,f)=  0.325E-02 0.376E-02 0.186E-03 ort(H,U,f) =-0.151E-03 0.877E-03-0.182E-03
CGA:  83    -0.224619821091E+03   -0.97052E-03   -0.88346E-03  5760   0.720E-02 0.545E-03
 gam= 0.915 trial= 0.379  step= 0.423 mean= 0.379
 gam= 0.000 g(H,U,f)=  0.248E-02 0.204E-02 0.758E-05 ort(H,U,f) =-0.140E-02 0.130E-02-0.453E-05
SDA:  84    -0.224621444873E+03   -0.16238E-02   -0.16290E-02  5760   0.452E-02-0.107E-03
 gam= 0.000 trial= 0.382  step= 0.364 mean= 0.382
 gam= 0.453 g(H,U,f)=  0.827E-03 0.118E-02 0.406E-04 ort(H,U,f) = 0.334E-03-0.288E-03-0.179E-04
CGA:  85    -0.224622268000E+03   -0.82313E-03   -0.82253E-03  5760   0.205E-02 0.288E-04
 gam= 0.453 trial= 0.381  step= 0.390 mean= 0.381
 gam= 1.629 g(H,U,f)=  0.680E-03 0.239E-02 0.262E-03 ort(H,U,f) = 0.120E-03 0.839E-04-0.792E-04
CGA:  86    -0.224622668839E+03   -0.40084E-03   -0.40160E-03  5760   0.334E-02 0.125E-03
 gam= 1.629 trial= 0.381  step= 0.219 mean= 0.381
 gam= 0.326 g(H,U,f)=  0.466E-03 0.597E-03 0.228E-04 ort(H,U,f) =-0.617E-03 0.715E-03-0.408E-04
CGA:  87    -0.224623086362E+03   -0.41752E-03   -0.38672E-03  5760   0.109E-02 0.580E-04
 gam= 0.326 trial= 0.373  step= 0.704 mean= 0.373
 gam= 1.261 g(H,U,f)=  0.488E-03 0.802E-03 0.795E-04 ort(H,U,f) =-0.233E-03 0.241E-03-0.180E-04
CGA:  88    -0.224623462596E+03   -0.37623E-03   -0.38893E-03  5760   0.137E-02-0.105E-04
 gam= 1.261 trial= 0.390  step= 0.260 mean= 0.390
 gam= 1.079 g(H,U,f)=  0.515E-03 0.865E-03 0.978E-04 ort(H,U,f) =-0.136E-03 0.294E-03-0.660E-04
CGA:  89    -0.224623650556E+03   -0.18796E-03   -0.17655E-03  5760   0.148E-02 0.923E-04
 gam= 1.079 trial= 0.383  step= 0.355 mean= 0.383
 gam= 0.613 g(H,U,f)=  0.400E-03 0.492E-03 0.138E-04 ort(H,U,f) =-0.250E-03 0.222E-03-0.100E-04
CGA:  90    -0.224623932249E+03   -0.28169E-03   -0.28004E-03  5760   0.906E-03-0.375E-04
 gam= 0.613 trial= 0.382  step= 0.605 mean= 0.382
 gam= 1.250 g(H,U,f)=  0.325E-03 0.735E-03 0.728E-04 ort(H,U,f) =-0.116E-03 0.140E-03-0.168E-04
CGA:  91    -0.224624194690E+03   -0.26244E-03   -0.26725E-03  5760   0.113E-02 0.706E-05
 gam= 1.250 trial= 0.393  step= 0.207 mean= 0.393
 gam= 0.710 g(H,U,f)=  0.276E-03 0.482E-03 0.459E-04 ort(H,U,f) =-0.103E-03 0.233E-03-0.412E-04
CGA:  92    -0.224624324982E+03   -0.13029E-03   -0.11807E-03  5760   0.804E-03 0.890E-04
 gam= 0.710 trial= 0.384  step= 0.555 mean= 0.384
 gam= 1.188 g(H,U,f)=  0.364E-03 0.555E-03 0.356E-04 ort(H,U,f) =-0.202E-03 0.183E-03-0.159E-04
CGA:  93    -0.224624557924E+03   -0.23294E-03   -0.24089E-03  5760   0.955E-03-0.347E-04
 gam= 1.188 trial= 0.392  step= 0.528 mean= 0.392
 gam= 1.835 g(H,U,f)=  0.514E-03 0.106E-02 0.175E-03 ort(H,U,f) =-0.270E-03 0.312E-03-0.387E-04
CGA:  94    -0.224624792467E+03   -0.23454E-03   -0.24133E-03  5760   0.175E-02 0.265E-05
 gam= 1.835 trial= 0.399  step= 0.229 mean= 0.399
 gam= 0.570 g(H,U,f)=  0.468E-03 0.488E-03 0.429E-04 ort(H,U,f) =-0.387E-03 0.480E-03-0.556E-04
CGA:  95    -0.224625009087E+03   -0.21662E-03   -0.20141E-03  5760   0.100E-02 0.367E-04
 gam= 0.570 trial= 0.390  step= 0.636 mean= 0.390
 gam= 1.107 g(H,U,f)=  0.454E-03 0.586E-03 0.674E-04 ort(H,U,f) =-0.212E-03 0.206E-03-0.150E-04
CGA:  96    -0.224625326463E+03   -0.31738E-03   -0.32467E-03  5760   0.111E-02-0.208E-04
 gam= 1.107 trial= 0.403  step= 0.307 mean= 0.403
 gam= 1.252 g(H,U,f)=  0.436E-03 0.764E-03 0.185E-03 ort(H,U,f) =-0.809E-04 0.215E-03-0.877E-04
CGA:  97    -0.224625496065E+03   -0.16960E-03   -0.16644E-03  5760   0.139E-02 0.461E-04
 gam= 1.252 trial= 0.398  step= 0.341 mean= 0.398
 gam= 0.589 g(H,U,f)=  0.345E-03 0.427E-03 0.438E-04 ort(H,U,f) =-0.167E-03 0.190E-03-0.366E-04
CGA:  98    -0.224625745825E+03   -0.24976E-03   -0.24632E-03  5760   0.816E-03-0.135E-04
 gam= 0.589 trial= 0.395  step= 0.451 mean= 0.395
 gam= 1.519 g(H,U,f)=  0.318E-03 0.765E-03 0.156E-03 ort(H,U,f) =-0.486E-04 0.988E-04-0.429E-04
CGA:  99    -0.224625926766E+03   -0.18094E-03   -0.18227E-03  5760   0.124E-02 0.729E-05
 gam= 1.519 trial= 0.398  step= 0.259 mean= 0.398
 gam= 0.592 g(H,U,f)=  0.268E-03 0.396E-03 0.689E-04 ort(H,U,f) =-0.179E-03 0.261E-03-0.604E-04
CGA: 100    -0.224626093622E+03   -0.16686E-03   -0.16165E-03  5760   0.733E-03 0.216E-04
 gam= 0.592 trial= 0.391  step= 0.443 mean= 0.391
 gam= 1.079 g(H,U,f)=  0.271E-03 0.426E-03 0.942E-04 ort(H,U,f) =-0.114E-03 0.156E-03-0.401E-04
CGA: 101    -0.224626257627E+03   -0.16400E-03   -0.16525E-03  5760   0.791E-03 0.212E-05
 gam= 1.079 trial= 0.394  step= 0.319 mean= 0.394
 gam= 1.192 g(H,U,f)=  0.273E-03 0.571E-03 0.991E-04 ort(H,U,f) =-0.921E-04 0.158E-03-0.522E-04
CGA: 102    -0.224626385557E+03   -0.12793E-03   -0.12645E-03  5760   0.943E-03 0.133E-04
 gam= 1.192 trial= 0.390  step= 0.401 mean= 0.390
 gam= 0.733 g(H,U,f)=  0.251E-03 0.374E-03 0.656E-04 ort(H,U,f) =-0.197E-03 0.214E-03-0.308E-04
CGA: 103    -0.224626577484E+03   -0.19193E-03   -0.19231E-03  5760   0.691E-03-0.146E-04
 gam= 0.733 trial= 0.390  step= 0.343 mean= 0.390
 gam= 1.145 g(H,U,f)=  0.255E-03 0.416E-03 0.120E-03 ort(H,U,f) =-0.801E-04 0.142E-03-0.585E-04
CGA: 104    -0.224626694856E+03   -0.11737E-03   -0.11665E-03  5760   0.791E-03 0.347E-05
 gam= 1.145 trial= 0.388  step= 0.317 mean= 0.388
 gam= 0.807 g(H,U,f)=  0.240E-03 0.337E-03 0.616E-04 ort(H,U,f) =-0.894E-04 0.127E-03-0.388E-04
CGA: 105    -0.224626823013E+03   -0.12816E-03   -0.12602E-03  5760   0.639E-03-0.145E-05
 gam= 0.807 trial= 0.384  step= 0.461 mean= 0.384
 gam= 1.152 g(H,U,f)=  0.198E-03 0.425E-03 0.112E-03 ort(H,U,f) =-0.769E-04 0.116E-03-0.410E-04
CGA: 106    -0.224626969265E+03   -0.14625E-03   -0.14686E-03  5760   0.736E-03-0.188E-05
 gam= 1.152 trial= 0.388  step= 0.246 mean= 0.388
 gam= 0.647 g(H,U,f)=  0.166E-03 0.257E-03 0.530E-04 ort(H,U,f) =-0.848E-04 0.144E-03-0.454E-04
CGA: 107    -0.224627063170E+03   -0.93905E-04   -0.90395E-04  5760   0.476E-03 0.142E-04
 gam= 0.647 trial= 0.381  step= 0.447 mean= 0.381
 gam= 1.173 g(H,U,f)=  0.191E-03 0.299E-03 0.688E-04 ort(H,U,f) =-0.779E-04 0.986E-04-0.271E-04
CGA: 108    -0.224627171276E+03   -0.10811E-03   -0.10857E-03  5760   0.559E-03-0.644E-05
 gam= 1.173 trial= 0.385  step= 0.350 mean= 0.385
 gam= 1.175 g(H,U,f)=  0.186E-03 0.363E-03 0.108E-03 ort(H,U,f) =-0.876E-04 0.141E-03-0.474E-04
CGA: 109    -0.224627268177E+03   -0.96901E-04   -0.96389E-04  5760   0.657E-03 0.594E-05
 gam= 1.175 trial= 0.383  step= 0.352 mean= 0.383
 gam= 0.762 g(H,U,f)=  0.180E-03 0.267E-03 0.534E-04 ort(H,U,f) =-0.125E-03 0.159E-03-0.368E-04
CGA: 110    -0.224627385195E+03   -0.11702E-03   -0.11666E-03  5760   0.500E-03-0.219E-05
 gam= 0.762 trial= 0.381  step= 0.358 mean= 0.381
 gam= 1.124 g(H,U,f)=  0.198E-03 0.287E-03 0.784E-04 ort(H,U,f) =-0.651E-04 0.101E-03-0.311E-04
CGA: 111    -0.224627474597E+03   -0.89401E-04   -0.89194E-04  5760   0.563E-03 0.514E-05
 gam= 1.124 trial= 0.380  step= 0.331 mean= 0.380
 gam= 0.857 g(H,U,f)=  0.151E-03 0.255E-03 0.769E-04 ort(H,U,f) =-0.532E-04 0.994E-04-0.431E-04
CGA: 112    -0.224627568828E+03   -0.94231E-04   -0.94157E-04  5760   0.482E-03 0.308E-05
 gam= 0.857 trial= 0.378  step= 0.404 mean= 0.378
 gam= 0.981 g(H,U,f)=  0.142E-03 0.255E-03 0.760E-04 ort(H,U,f) =-0.481E-04 0.873E-04-0.407E-04
CGA: 113    -0.224627666365E+03   -0.97537E-04   -0.97921E-04  5760   0.473E-03-0.155E-05
 gam= 0.981 trial= 0.379  step= 0.259 mean= 0.379
 gam= 0.741 g(H,U,f)=  0.124E-03 0.191E-03 0.354E-04 ort(H,U,f) =-0.454E-04 0.689E-04-0.247E-04
CGA: 114    -0.224627727805E+03   -0.61440E-04   -0.61013E-04  5760   0.351E-03-0.116E-05
 gam= 0.741 trial= 0.373  step= 0.482 mean= 0.373
 gam= 0.000 g(H,U,f)=  0.105E-03 0.213E-03 0.648E-04 ort(H,U,f) =-0.441E-04 0.660E-04-0.236E-04
SDA: 115    -0.224627811536E+03   -0.83731E-04   -0.84345E-04  5760   0.382E-03-0.175E-05
 gam= 0.000 trial= 0.378  step= 0.162 mean= 0.378
 gam= 0.583 g(H,U,f)=  0.622E-04 0.130E-03 0.304E-04 ort(H,U,f) = 0.507E-04 0.656E-06-0.441E-04
CGA: 116    -0.224627843019E+03   -0.31483E-04   -0.30931E-04  5760   0.223E-03 0.720E-05
 gam= 0.583 trial= 0.368  step= 0.398 mean= 0.368
 gam= 0.759 g(H,U,f)=  0.569E-04 0.112E-03 0.783E-06 ort(H,U,f) =-0.144E-04 0.147E-04-0.778E-06
CGA: 117    -0.224627888210E+03   -0.45191E-04   -0.45242E-04  5760   0.169E-03-0.473E-06
 gam= 0.759 trial= 0.369  step= 0.898 mean= 0.369
 gam= 0.933 g(H,U,f)=  0.920E-04 0.652E-04 0.830E-06 ort(H,U,f) =-0.670E-04 0.619E-04-0.190E-06
CGA: 118    -0.224627962553E+03   -0.74342E-04   -0.75796E-04  5760   0.158E-03-0.529E-05
 gam= 0.933 trial= 0.396  step= 0.776 mean= 0.396
 gam= 1.416 g(H,U,f)=  0.100E-03 0.107E-03 0.166E-04 ort(H,U,f) =-0.424E-04 0.410E-04-0.285E-05
CGA: 119    -0.224628020644E+03   -0.58091E-04   -0.59347E-04  5760   0.224E-03-0.425E-05
 gam= 1.416 trial= 0.415  step= 0.368 mean= 0.415
 gam= 1.864 g(H,U,f)=  0.102E-03 0.228E-03 0.862E-04 ort(H,U,f) =-0.174E-04 0.471E-04-0.285E-04
CGA: 120    -0.224628060749E+03   -0.40105E-04   -0.40022E-04  5760   0.417E-03 0.123E-05
 gam= 1.864 trial= 0.412  step= 0.299 mean= 0.412
 gam= 0.412 g(H,U,f)=  0.885E-04 0.794E-04 0.383E-05 ort(H,U,f) =-0.103E-03 0.110E-03-0.699E-05
CGA: 121    -0.224628123803E+03   -0.63054E-04   -0.62727E-04  5760   0.172E-03 0.638E-06
 gam= 0.412 trial= 0.407  step= 0.893 mean= 0.407
 gam= 1.378 g(H,U,f)=  0.110E-03 0.116E-03 0.993E-05 ort(H,U,f) =-0.436E-04 0.432E-04-0.148E-05
CGA: 122    -0.224628200296E+03   -0.76493E-04   -0.76744E-04  5760   0.237E-03-0.186E-05
 gam= 1.378 trial= 0.431  step= 0.613 mean= 0.431
 gam= 2.284 g(H,U,f)=  0.106E-03 0.297E-03 0.137E-03 ort(H,U,f) =-0.352E-04 0.693E-04-0.297E-04
CGA: 123    -0.224628272038E+03   -0.71742E-04   -0.71735E-04  5760   0.541E-03 0.443E-05
 gam= 2.284 trial= 0.440  step= 0.203 mean= 0.440
 gam= 0.451 g(H,U,f)=  0.121E-03 0.112E-03 0.107E-04 ort(H,U,f) =-0.136E-03 0.160E-03-0.191E-04
CGA: 124    -0.224628328559E+03   -0.56521E-04   -0.55955E-04  5760   0.244E-03 0.518E-05
 gam= 0.451 trial= 0.428  step= 0.784 mean= 0.428
 gam= 1.225 g(H,U,f)=  0.139E-03 0.147E-03 0.120E-04 ort(H,U,f) =-0.605E-04 0.640E-04-0.221E-05
CGA: 125    -0.224628424718E+03   -0.96159E-04   -0.96400E-04  5760   0.298E-03 0.126E-05
 gam= 1.225 trial= 0.446  step= 0.502 mean= 0.446
 gam= 1.772 g(H,U,f)=  0.123E-03 0.283E-03 0.122E-03 ort(H,U,f) =-0.335E-04 0.614E-04-0.298E-04
CGA: 126    -0.224628499968E+03   -0.75250E-04   -0.75353E-04  5760   0.529E-03-0.181E-05
 gam= 1.772 trial= 0.449  step= 0.217 mean= 0.449
 gam= 0.540 g(H,U,f)=  0.121E-03 0.141E-03 0.237E-04 ort(H,U,f) =-0.832E-04 0.115E-03-0.305E-04
CGA: 127    -0.224628558442E+03   -0.58475E-04   -0.57046E-04  5760   0.286E-03 0.180E-05
 gam= 0.540 trial= 0.437  step= 0.629 mean= 0.437
 gam= 0.817 g(H,U,f)=  0.107E-03 0.120E-03 0.637E-05 ort(H,U,f) =-0.605E-04 0.639E-04-0.355E-05
CGA: 128    -0.224628648803E+03   -0.90360E-04   -0.90125E-04  5760   0.233E-03-0.184E-06
 gam= 0.817 trial= 0.447  step= 0.749 mean= 0.447
 gam= 2.326 g(H,U,f)=  0.133E-03 0.285E-03 0.125E-03 ort(H,U,f) =-0.406E-04 0.555E-04-0.158E-04
CGA: 129    -0.224628735120E+03   -0.86318E-04   -0.87317E-04  5760   0.543E-03-0.897E-06
 gam= 2.326 trial= 0.462  step= 0.206 mean= 0.462
 gam= 0.619 g(H,U,f)=  0.126E-03 0.181E-03 0.299E-04 ort(H,U,f) =-0.985E-04 0.136E-03-0.428E-04
CGA: 130    -0.224628790674E+03   -0.55554E-04   -0.55739E-04  5760   0.336E-03-0.548E-05
 gam= 0.619 trial= 0.449  step= 0.546 mean= 0.449
 gam= 0.740 g(H,U,f)=  0.126E-03 0.122E-03 0.105E-05 ort(H,U,f) =-0.834E-04 0.743E-04-0.462E-06
CGA: 131    -0.224628880801E+03   -0.90127E-04   -0.90786E-04  5760   0.249E-03-0.962E-05
 gam= 0.740 trial= 0.454  step= 0.765 mean= 0.454
 gam= 0.963 g(H,U,f)=  0.106E-03 0.128E-03 0.500E-05 ort(H,U,f) =-0.379E-04 0.384E-04-0.107E-05
CGA: 132    -0.224628973274E+03   -0.92473E-04   -0.92355E-04  5760   0.240E-03-0.623E-06
 gam= 0.963 trial= 0.469  step= 0.452 mean= 0.469
 gam= 1.375 g(H,U,f)=  0.754E-04 0.172E-03 0.816E-04 ort(H,U,f) =-0.665E-05 0.261E-04-0.160E-04
CGA: 133    -0.224629027307E+03   -0.54033E-04   -0.54016E-04  5760   0.330E-03 0.341E-05
 gam= 1.375 trial= 0.469  step= 0.187 mean= 0.469
 gam= 0.426 g(H,U,f)=  0.638E-04 0.658E-04 0.107E-04 ort(H,U,f) =-0.105E-04 0.298E-04-0.217E-04
CGA: 134    -0.224629058249E+03   -0.30942E-04   -0.31290E-04  5760   0.140E-03-0.248E-05
 gam= 0.426 trial= 0.454  step= 0.660 mean= 0.454
 gam= 0.674 g(H,U,f)=  0.416E-04 0.528E-04 0.108E-06 ort(H,U,f) =-0.164E-04 0.156E-04-0.440E-07
CGA: 135    -0.224629103967E+03   -0.45717E-04   -0.45969E-04  5760   0.945E-04-0.920E-06
 gam= 0.674 trial= 0.465  step= 0.624 mean= 0.465
 gam= 0.635 g(H,U,f)=  0.304E-04 0.292E-04 0.361E-06 ort(H,U,f) =-0.173E-04 0.187E-04-0.131E-06
CGA: 136    -0.224629133233E+03   -0.29266E-04   -0.29297E-04  5760   0.600E-04 0.127E-05
 gam= 0.635 trial= 0.473  step= 0.680 mean= 0.473
 gam= 2.611 g(H,U,f)=  0.343E-04 0.114E-03 0.807E-05 ort(H,U,f) =-0.384E-05 0.106E-04-0.138E-05
CGA: 137    -0.224629153470E+03   -0.20238E-04   -0.20689E-04  5760   0.157E-03 0.536E-05
 gam= 2.611 trial= 0.483  step= 0.192 mean= 0.483
 gam= 0.319 g(H,U,f)=  0.234E-04 0.260E-04 0.643E-06 ort(H,U,f) =-0.300E-04 0.440E-04-0.126E-05
CGA: 138    -0.224629173074E+03   -0.19604E-04   -0.16390E-04  5760   0.501E-04 0.128E-04
 gam= 0.319 trial= 0.469  step= 0.824 mean= 0.469
 gam= 1.645 g(H,U,f)=  0.318E-04 0.490E-04 0.158E-05 ort(H,U,f) =-0.114E-04 0.858E-05-0.390E-06
CGA: 139    -0.224629194219E+03   -0.21145E-04   -0.22306E-04  5760   0.824E-04-0.317E-05
 gam= 1.645 trial= 0.486  step= 0.358 mean= 0.486
 gam= 1.313 g(H,U,f)=  0.324E-04 0.712E-04 0.453E-05 ort(H,U,f) =-0.112E-04 0.187E-04-0.161E-05
CGA: 140    -0.224629208738E+03   -0.14519E-04   -0.13815E-04  5760   0.108E-03 0.590E-05
 gam= 1.313 trial= 0.480  step= 0.250 mean= 0.480
 gam= 0.416 g(H,U,f)=  0.205E-04 0.238E-04 0.610E-06 ort(H,U,f) =-0.206E-04 0.246E-04-0.914E-06
CGA: 141    -0.224629224466E+03   -0.15728E-04   -0.14464E-04  5760   0.450E-04 0.304E-05
 gam= 0.416 trial= 0.468  step= 0.746 mean= 0.468
 gam= 2.067 g(H,U,f)=  0.273E-04 0.615E-04 0.420E-05 ort(H,U,f) =-0.881E-05 0.957E-05-0.609E-06
CGA: 142    -0.224629241067E+03   -0.16601E-04   -0.17262E-04  5760   0.930E-04 0.147E-06
 gam= 2.067 trial= 0.482  step= 0.244 mean= 0.482
 gam= 0.831 g(H,U,f)=  0.305E-04 0.447E-04 0.214E-05 ort(H,U,f) =-0.158E-04 0.270E-04-0.215E-05
CGA: 143    -0.224629254043E+03   -0.12976E-04   -0.11377E-04  5760   0.773E-04 0.900E-05
 gam= 0.831 trial= 0.470  step= 0.497 mean= 0.470
 gam= 0.761 g(H,U,f)=  0.300E-04 0.281E-04 0.694E-06 ort(H,U,f) =-0.213E-04 0.189E-04-0.208E-06
CGA: 144    -0.224629274992E+03   -0.20949E-04   -0.21041E-04  5760   0.588E-04-0.264E-05
 gam= 0.761 trial= 0.472  step= 0.498 mean= 0.472
 gam= 1.417 g(H,U,f)=  0.250E-04 0.533E-04 0.504E-05 ort(H,U,f) =-0.441E-05 0.970E-05-0.150E-05
CGA: 145    -0.224629289102E+03   -0.14110E-04   -0.14143E-04  5760   0.833E-04 0.379E-05
 gam= 1.417 trial= 0.473  step= 0.217 mean= 0.473
 gam= 0.000 g(H,U,f)=  0.184E-04 0.246E-04 0.122E-05 ort(H,U,f) =-0.307E-05 0.133E-04-0.145E-05
SDA: 146    -0.224629300302E+03   -0.11200E-04   -0.96161E-05  5760   0.442E-04 0.876E-05
 gam= 0.000 trial= 0.460  step= 0.186 mean= 0.460
 gam= 0.716 g(H,U,f)=  0.106E-04 0.195E-04 0.159E-05 ort(H,U,f) = 0.945E-05-0.143E-05-0.140E-05
CGA: 147    -0.224629305015E+03   -0.47125E-05   -0.41239E-05  5760   0.317E-04 0.662E-05
 gam= 0.716 trial= 0.447  step= 0.411 mean= 0.447
 gam= 0.831 g(H,U,f)=  0.886E-05 0.171E-04 0.376E-06 ort(H,U,f) =-0.174E-05 0.690E-06-0.285E-06
CGA: 148    -0.224629312584E+03   -0.75696E-05   -0.74884E-05  5760   0.263E-04-0.134E-05
 gam= 0.831 trial= 0.445  step= 0.629 mean= 0.445
 gam= 1.257 g(H,U,f)=  0.122E-04 0.195E-04 0.138E-05 ort(H,U,f) =-0.784E-05 0.872E-05-0.267E-06
CGA: 149    -0.224629320429E+03   -0.78444E-05   -0.79326E-05  5760   0.331E-04 0.607E-06
 gam= 1.257 trial= 0.454  step= 0.214 mean= 0.454
 gam= 0.688 g(H,U,f)=  0.107E-04 0.112E-04 0.831E-06 ort(H,U,f) =-0.664E-05 0.111E-04-0.806E-06
CGA: 150    -0.224629324530E+03   -0.41016E-05   -0.36219E-05  5760   0.228E-04 0.361E-05
 gam= 0.688 trial= 0.442  step= 0.510 mean= 0.442
 gam= 0.952 g(H,U,f)=  0.102E-04 0.109E-04 0.564E-06 ort(H,U,f) =-0.604E-05 0.596E-05-0.228E-06
CGA: 151    -0.224629330901E+03   -0.63708E-05   -0.64428E-05  5760   0.217E-04-0.309E-06
 gam= 0.952 trial= 0.445  step= 0.484 mean= 0.445
 gam= 1.768 g(H,U,f)=  0.130E-04 0.232E-04 0.210E-05 ort(H,U,f) =-0.377E-05 0.522E-05-0.665E-06
CGA: 152    -0.224629336010E+03   -0.51093E-05   -0.51703E-05  5760   0.383E-04 0.778E-06
 gam= 1.768 trial= 0.447  step= 0.247 mean= 0.447
 gam= 0.504 g(H,U,f)=  0.107E-04 0.821E-05 0.399E-06 ort(H,U,f) =-0.702E-05 0.861E-05-0.405E-06
CGA: 153    -0.224629341289E+03   -0.52788E-05   -0.49046E-05  5760   0.193E-04 0.119E-05
 gam= 0.504 trial= 0.437  step= 0.492 mean= 0.437
 gam= 0.787 g(H,U,f)=  0.689E-05 0.784E-05 0.473E-06 ort(H,U,f) =-0.251E-05 0.296E-05-0.213E-06
CGA: 154    -0.224629346151E+03   -0.48623E-05   -0.48982E-05  5760   0.152E-04 0.231E-06
 gam= 0.787 trial= 0.440  step= 0.331 mean= 0.440
 gam= 1.260 g(H,U,f)=  0.648E-05 0.117E-04 0.101E-05 ort(H,U,f) =-0.475E-06 0.208E-05-0.452E-06
CGA: 155    -0.224629348775E+03   -0.26238E-05   -0.25435E-05  5760   0.191E-04 0.116E-05
 gam= 1.260 trial= 0.435  step= 0.327 mean= 0.435
 gam= 0.651 g(H,U,f)=  0.549E-05 0.660E-05 0.363E-06 ort(H,U,f) =-0.351E-05 0.353E-05-0.266E-06
CGA: 156    -0.224629352300E+03   -0.35253E-05   -0.33653E-05  5760   0.125E-04-0.248E-06
 gam= 0.651 trial= 0.429  step= 0.462 mean= 0.429
 gam= 1.275 g(H,U,f)=  0.533E-05 0.961E-05 0.944E-06 ort(H,U,f) =-0.206E-05 0.220E-05-0.307E-06
CGA: 157    -0.224629355115E+03   -0.28147E-05   -0.28421E-05  5760   0.159E-04-0.171E-06
 gam= 1.275 trial= 0.431  step= 0.260 mean= 0.431
 gam= 0.710 g(H,U,f)=  0.499E-05 0.588E-05 0.402E-06 ort(H,U,f) =-0.260E-05 0.362E-05-0.361E-06
CGA: 158    -0.224629357387E+03   -0.22720E-05   -0.20354E-05  5760   0.113E-04 0.664E-06
 gam= 0.710 trial= 0.422  step= 0.444 mean= 0.422
 gam= 0.906 g(H,U,f)=  0.447E-05 0.539E-05 0.346E-06 ort(H,U,f) =-0.210E-05 0.244E-05-0.137E-06
CGA: 159    -0.224629359986E+03   -0.25991E-05   -0.26051E-05  5760   0.102E-04 0.208E-06
 gam= 0.906 trial= 0.423  step= 0.384 mean= 0.423
 gam= 1.259 g(H,U,f)=  0.420E-05 0.780E-05 0.851E-06 ort(H,U,f) =-0.106E-05 0.218E-05-0.348E-06
CGA: 160    -0.224629362003E+03   -0.20163E-05   -0.19943E-05  5760   0.129E-04 0.775E-06
 gam= 1.259 trial= 0.421  step= 0.291 mean= 0.421
 gam= 0.640 g(H,U,f)=  0.382E-05 0.413E-05 0.288E-06 ort(H,U,f) =-0.199E-05 0.264E-05-0.239E-06
CGA: 161    -0.224629364121E+03   -0.21186E-05   -0.20113E-05  5760   0.823E-05 0.415E-06
 gam= 0.640 trial= 0.415  step= 0.434 mean= 0.415
 gam= 1.150 g(H,U,f)=  0.355E-05 0.540E-05 0.523E-06 ort(H,U,f) =-0.961E-06 0.108E-05-0.180E-06
CGA: 162    -0.224629365956E+03   -0.18344E-05   -0.18445E-05  5760   0.947E-05-0.629E-07
 gam= 1.150 trial= 0.416  step= 0.288 mean= 0.416
 gam= 0.771 g(H,U,f)=  0.285E-05 0.409E-05 0.364E-06 ort(H,U,f) =-0.974E-06 0.177E-05-0.266E-06
CGA: 163    -0.224629367379E+03   -0.14235E-05   -0.13517E-05  5760   0.730E-05 0.525E-06
 gam= 0.771 trial= 0.409  step= 0.374 mean= 0.409
 gam= 0.723 g(H,U,f)=  0.231E-05 0.275E-05 0.224E-06 ort(H,U,f) =-0.116E-05 0.152E-05-0.125E-06
CGA: 164    -0.224629368835E+03   -0.14554E-05   -0.14428E-05  5760   0.528E-05 0.227E-06
 gam= 0.723 trial= 0.408  step= 0.295 mean= 0.408
 gam= 0.940 g(H,U,f)=  0.214E-05 0.257E-05 0.255E-06 ort(H,U,f) =-0.219E-06 0.828E-06-0.143E-06
CGA: 165    -0.224629369653E+03   -0.81885E-06   -0.80275E-06  5760   0.497E-05 0.466E-06
 gam= 0.940 trial= 0.402  step= 0.427 mean= 0.402
 gam= 0.922 g(H,U,f)=  0.169E-05 0.261E-05 0.279E-06 ort(H,U,f) =-0.602E-06 0.833E-06-0.126E-06
CGA: 166    -0.224629370799E+03   -0.11461E-05   -0.11531E-05  5760   0.458E-05 0.106E-06
 gam= 0.922 trial= 0.403  step= 0.298 mean= 0.403
 gam= 0.873 g(H,U,f)=  0.153E-05 0.226E-05 0.207E-06 ort(H,U,f) =-0.520E-06 0.842E-06-0.141E-06
CGA: 167    -0.224629371534E+03   -0.73482E-06   -0.69764E-06  5760   0.400E-05 0.181E-06
 gam= 0.873 trial= 0.398  step= 0.327 mean= 0.398
 final diagonalization
   1 F= -.23415121E+03 E0= -.23414718E+03  d E =-.805638E-02  mag=     6.0000
