 running on   64 total cores
 distrk:  each k-point on   64 cores,    1 groups
 distr:  one band on    4 cores,   16 groups
 using from now: INCAR     
 vasp.5.4.4.18Apr17-6-g9f103f2a35 (build Nov 22 2021 14:44:17) complex          
  
 POSCAR found type information on POSCAR  Li Co O 
 POSCAR found :  3 types and      42 ions
 scaLAPACK will be used
 LDA part: xc-table for Pade appr. of Perdew
 generate k-points for:    6    6    2
 POSCAR, INCAR and KPOINTS ok, starting setup
 FFT: planning ...
 WAVECAR not read
 entering main loop
       N       E                     dE             d eps       ncg     rms          ort
DAV:   1     0.348721001158E+04    0.34872E+04   -0.13952E+05  5760   0.219E+03
DAV:   2     0.400114867354E+03   -0.30871E+04   -0.28426E+04  5760   0.535E+02
DAV:   3    -0.222317431452E+03   -0.62243E+03   -0.56768E+03  5760   0.254E+02
DAV:   4    -0.271900391539E+03   -0.49583E+02   -0.48587E+02  5760   0.738E+01
DAV:   5    -0.273647366091E+03   -0.17470E+01   -0.17436E+01  5760   0.137E+01
 gam= 0.000 g(H,U,f)=  0.191E+04 0.832E+03 0.244E+03 ort(H,U,f) = 0.000E+00 0.000E+00 0.000E+00
SDA:   6     0.158382314287E+03    0.43203E+03   -0.17436E+01  5760   0.299E+04 0.000E+00
 gam= 0.000 trial= 0.400  step= 0.055 mean= 0.400
 gam= 1.099 g(H,U,f)=  0.128E+04 0.108E+04 0.924E+03 ort(H,U,f) = 0.115E+04 0.406E+03-0.118E+03
CGA:   7     0.700991830626E+02   -0.88283E+02   -0.82024E+02  5760   0.328E+04 0.144E+04
 gam= 1.099 trial= 0.383  step= 0.086 mean= 0.383
 gam= 1.070 g(H,U,f)=  0.461E+03 0.136E+04 0.169E+04 ort(H,U,f) = 0.661E+03 0.421E+03-0.359E+03
CGA:   8    -0.547116946081E+02   -0.12481E+03   -0.20942E+03  5760   0.351E+04 0.723E+03
 gam= 1.070 trial= 0.368  step= 0.042 mean= 0.368
 gam= 0.190 g(H,U,f)=  0.323E+03 0.281E+03 0.621E+02 ort(H,U,f) = 0.920E+03 0.701E+03 0.515E+02
CGA:   9    -0.134078492495E+03   -0.79367E+02   -0.90595E+02  5760   0.667E+03 0.167E+04
 gam= 0.190 trial= 0.352  step= 0.070 mean= 0.352
 gam= 1.165 g(H,U,f)=  0.183E+03 0.366E+03 0.227E+03 ort(H,U,f) = 0.162E+03-0.203E+03-0.159E+03
CGA:  10    -0.156948174958E+03   -0.22870E+02   -0.34230E+02  5760   0.777E+03-0.200E+03
 gam= 1.165 trial= 0.338  step= 0.035 mean= 0.338
 gam= 0.781 g(H,U,f)=  0.198E+03 0.266E+03 0.142E+03 ort(H,U,f) = 0.258E+03-0.515E+02 0.191E+02
CGA:  11    -0.153333688860E+03    0.36145E+01   -0.93887E+01  5760   0.606E+03 0.226E+03
 gam= 0.781 trial= 0.322  step= 0.044 mean= 0.322
 gam= 0.526 g(H,U,f)=  0.205E+03 0.110E+03 0.447E+01 ort(H,U,f) = 0.266E+03-0.261E+03-0.155E+02
CGA:  12    -0.157401374795E+03   -0.40677E+01   -0.17124E+02  5760   0.319E+03-0.984E+01
 gam= 0.526 trial= 0.308  step= 0.100 mean= 0.308
 gam= 2.180 g(H,U,f)=  0.160E+03 0.494E+03 0.403E+02 ort(H,U,f) = 0.179E+03-0.172E+03-0.132E+02
CGA:  13    -0.170250128001E+03   -0.12849E+02   -0.15707E+02  5760   0.695E+03-0.553E+01
 gam= 2.180 trial= 0.298  step= 0.075 mean= 0.298
 gam= 0.540 g(H,U,f)=  0.127E+03 0.223E+03 0.249E+02 ort(H,U,f) = 0.283E+03 0.995E+01 0.255E+02
CGA:  14    -0.175154064813E+03   -0.49039E+01   -0.25545E+02  5760   0.375E+03 0.318E+03
 gam= 0.540 trial= 0.287  step= 0.084 mean= 0.287
 gam= 1.243 g(H,U,f)=  0.106E+03 0.291E+03 0.689E+02 ort(H,U,f) = 0.208E+02-0.142E+03-0.330E+02
CGA:  15    -0.183361458973E+03   -0.82074E+01   -0.23017E+02  5760   0.467E+03-0.154E+03
 gam= 1.243 trial= 0.277  step= 0.051 mean= 0.277
 gam= 0.877 g(H,U,f)=  0.134E+03 0.234E+03 0.408E+02 ort(H,U,f) = 0.260E+02 0.630E+02 0.197E+02
CGA:  16    -0.174506443346E+03    0.88550E+01   -0.70473E+01  5760   0.409E+03 0.109E+03
 gam= 0.877 trial= 0.265  step= 0.059 mean= 0.265
 gam= 0.503 g(H,U,f)=  0.139E+03 0.568E+02 0.105E+02 ort(H,U,f) = 0.940E+01-0.872E+01 0.592E+01
CGA:  17    -0.175452298200E+03   -0.94585E+00   -0.14768E+02  5760   0.206E+03 0.659E+01
 gam= 0.503 trial= 0.255  step= 0.089 mean= 0.255
 gam= 1.185 g(H,U,f)=  0.109E+03 0.118E+03 0.170E+02 ort(H,U,f) = 0.430E+02-0.315E+02-0.416E+01
CGA:  18    -0.182908201772E+03   -0.74559E+01   -0.92953E+01  5760   0.244E+03 0.737E+01
 gam= 1.185 trial= 0.247  step= 0.088 mean= 0.247
 gam= 0.443 g(H,U,f)=  0.704E+02 0.352E+02 0.256E+01 ort(H,U,f) = 0.485E+01-0.134E+02-0.235E+01
CGA:  19    -0.190194767406E+03   -0.72866E+01   -0.11160E+02  5760   0.108E+03-0.109E+02
 gam= 0.443 trial= 0.239  step= 0.114 mean= 0.239
 gam= 0.864 g(H,U,f)=  0.520E+02 0.369E+02 0.453E+01 ort(H,U,f) = 0.159E+02-0.160E+02-0.248E+01
CGA:  20    -0.195183972755E+03   -0.49892E+01   -0.59074E+01  5760   0.934E+02-0.258E+01
 gam= 0.864 trial= 0.233  step= 0.164 mean= 0.233
 gam= 0.565 g(H,U,f)=  0.353E+02 0.163E+02 0.123E+01 ort(H,U,f) =-0.795E+00 0.952E+00 0.701E+00
CGA:  21    -0.202435522001E+03   -0.72515E+01   -0.74740E+01  5760   0.528E+02 0.858E+00
 gam= 0.565 trial= 0.229  step= 0.124 mean= 0.229
 gam= 0.851 g(H,U,f)=  0.269E+02 0.159E+02 0.214E+01 ort(H,U,f) = 0.137E+02-0.106E+02-0.192E+01
CGA:  22    -0.206013985900E+03   -0.35785E+01   -0.33010E+01  5760   0.450E+02 0.115E+01
 gam= 0.851 trial= 0.224  step= 0.171 mean= 0.224
 gam= 0.771 g(H,U,f)=  0.188E+02 0.147E+02 0.117E+01 ort(H,U,f) = 0.768E+01-0.652E+01-0.208E+00
CGA:  23    -0.209883802786E+03   -0.38698E+01   -0.39319E+01  5760   0.347E+02 0.951E+00
 gam= 0.771 trial= 0.221  step= 0.140 mean= 0.221
 gam= 0.750 g(H,U,f)=  0.145E+02 0.107E+02 0.854E+00 ort(H,U,f) = 0.453E+01-0.386E+01-0.218E+00
CGA:  24    -0.212115548738E+03   -0.22317E+01   -0.24838E+01  5760   0.260E+02 0.458E+00
 gam= 0.750 trial= 0.217  step= 0.169 mean= 0.217
 gam= 0.639 g(H,U,f)=  0.106E+02 0.532E+01 0.657E+00 ort(H,U,f) =-0.247E+00 0.515E+00 0.731E+00
CGA:  25    -0.214306261079E+03   -0.21907E+01   -0.22247E+01  5760   0.166E+02 0.100E+01
 gam= 0.639 trial= 0.215  step= 0.158 mean= 0.215
 gam= 0.954 g(H,U,f)=  0.876E+01 0.629E+01 0.805E+00 ort(H,U,f) = 0.185E+01-0.159E+01 0.639E+00
CGA:  26    -0.215671666671E+03   -0.13654E+01   -0.13619E+01  5760   0.159E+02 0.899E+00
 gam= 0.954 trial= 0.212  step= 0.161 mean= 0.212
 gam= 0.789 g(H,U,f)=  0.682E+01 0.503E+01 0.659E+00 ort(H,U,f) = 0.511E+00-0.257E+00 0.685E+00
CGA:  27    -0.216971967467E+03   -0.13003E+01   -0.13441E+01  5760   0.125E+02 0.939E+00
 gam= 0.789 trial= 0.209  step= 0.139 mean= 0.209
 gam= 0.714 g(H,U,f)=  0.566E+01 0.289E+01 0.383E+00 ort(H,U,f) = 0.162E+00-0.234E+00 0.102E+01
CGA:  28    -0.217835887759E+03   -0.86392E+00   -0.91930E+00  5760   0.893E+01 0.947E+00
 gam= 0.714 trial= 0.206  step= 0.175 mean= 0.206
 gam= 0.851 g(H,U,f)=  0.444E+01 0.256E+01 0.592E+00 ort(H,U,f) =-0.321E+00 0.423E+00 0.100E+01
CGA:  29    -0.218662212333E+03   -0.82632E+00   -0.83935E+00  5760   0.760E+01 0.110E+01
 gam= 0.851 trial= 0.204  step= 0.137 mean= 0.204
 gam= 0.891 g(H,U,f)=  0.380E+01 0.256E+01 0.412E+00 ort(H,U,f) =-0.145E+00 0.516E+00-0.101E+00
CGA:  30    -0.219228532358E+03   -0.56632E+00   -0.58565E+00  5760   0.677E+01 0.270E+00
 gam= 0.891 trial= 0.201  step= 0.150 mean= 0.201
 gam= 0.645 g(H,U,f)=  0.325E+01 0.110E+01 0.123E-01 ort(H,U,f) =-0.477E+00 0.581E+00-0.359E-01
CGA:  31    -0.219749585016E+03   -0.52105E+00   -0.52593E+00  5760   0.436E+01 0.681E-01
 gam= 0.645 trial= 0.198  step= 0.195 mean= 0.198
 gam= 0.973 g(H,U,f)=  0.229E+01 0.145E+01 0.501E+00 ort(H,U,f) =-0.170E-01 0.274E+00-0.231E+00
CGA:  32    -0.220178546898E+03   -0.42896E+00   -0.42904E+00  5760   0.425E+01 0.262E-01
 gam= 0.973 trial= 0.198  step= 0.120 mean= 0.198
 gam= 0.677 g(H,U,f)=  0.187E+01 0.886E+00 0.115E+00 ort(H,U,f) =-0.720E-02 0.153E+00-0.125E+00
CGA:  33    -0.220432235405E+03   -0.25369E+00   -0.25570E+00  5760   0.287E+01 0.208E-01
 gam= 0.677 trial= 0.194  step= 0.201 mean= 0.194
 gam= 0.788 g(H,U,f)=  0.153E+01 0.639E+00 0.905E-01 ort(H,U,f) =-0.247E+00 0.266E+00 0.147E-01
CGA:  34    -0.220721967625E+03   -0.28973E+00   -0.28965E+00  5760   0.226E+01 0.342E-01
 gam= 0.788 trial= 0.195  step= 0.161 mean= 0.195
 gam= 1.005 g(H,U,f)=  0.124E+01 0.804E+00 0.232E+00 ort(H,U,f) = 0.725E-01 0.128E+00-0.139E+00
CGA:  35    -0.220904363140E+03   -0.18240E+00   -0.18392E+00  5760   0.227E+01 0.615E-01
 gam= 1.005 trial= 0.193  step= 0.168 mean= 0.193
 gam= 0.646 g(H,U,f)=  0.101E+01 0.450E+00 0.515E-02 ort(H,U,f) =-0.306E+00 0.375E+00 0.107E-01
CGA:  36    -0.221099391753E+03   -0.19503E+00   -0.19618E+00  5760   0.147E+01 0.802E-01
 gam= 0.646 trial= 0.192  step= 0.198 mean= 0.192
 gam= 0.000 g(H,U,f)=  0.899E+00 0.474E+00 0.196E+00 ort(H,U,f) =-0.125E+00 0.258E+00-0.604E-01
SDA:  37    -0.221249932902E+03   -0.15054E+00   -0.15028E+00  5760   0.157E+01 0.732E-01
 gam= 0.000 trial= 0.192  step= 0.211 mean= 0.192
 gam= 1.186 g(H,U,f)=  0.539E+00 0.774E+00 0.548E+00 ort(H,U,f) = 0.516E+00-0.138E+00-0.294E+00
CGA:  38    -0.221416365708E+03   -0.16643E+00   -0.16513E+00  5760   0.186E+01 0.836E-01
 gam= 1.186 trial= 0.193  step= 0.248 mean= 0.193
 gam= 0.404 g(H,U,f)=  0.282E+00 0.421E+00 0.474E-01 ort(H,U,f) = 0.659E-01-0.199E-01-0.539E-01
CGA:  39    -0.221659227112E+03   -0.24286E+00   -0.24318E+00  5760   0.751E+00-0.788E-02
 gam= 0.404 trial= 0.196  step= 0.333 mean= 0.196
 gam= 0.404 g(H,U,f)=  0.688E-01 0.153E+00 0.810E-01 ort(H,U,f) =-0.112E+00 0.152E+00-0.250E-01
CGA:  40    -0.221784820150E+03   -0.12559E+00   -0.12454E+00  5760   0.303E+00 0.142E-01
 gam= 0.404 trial= 0.203  step= 0.171 mean= 0.203
 gam= 0.828 g(H,U,f)=  0.675E-01 0.128E+00 0.554E-01 ort(H,U,f) =-0.236E-01 0.778E-01-0.559E-01
CGA:  41    -0.221811319163E+03   -0.26499E-01   -0.26408E-01  5760   0.251E+00-0.167E-02
 gam= 0.828 trial= 0.201  step= 0.742 mean= 0.201
 gam= 1.395 g(H,U,f)=  0.133E+00 0.191E+00 0.262E-01 ort(H,U,f) =-0.402E-01 0.533E-01-0.407E-02
CGA:  42    -0.221906433780E+03   -0.95115E-01   -0.92646E-01  5760   0.350E+00 0.909E-02
 gam= 1.395 trial= 0.228  step= 0.338 mean= 0.228
 gam= 0.812 g(H,U,f)=  0.710E-01 0.116E+00 0.975E-01 ort(H,U,f) =-0.569E-01 0.966E-01-0.246E-01
CGA:  43    -0.221968932676E+03   -0.62499E-01   -0.61420E-01  5760   0.285E+00 0.151E-01
 gam= 0.812 trial= 0.234  step= 0.172 mean= 0.234
 gam= 0.738 g(H,U,f)=  0.682E-01 0.952E-01 0.466E-01 ort(H,U,f) =-0.220E-01 0.832E-01-0.663E-01
CGA:  44    -0.221995807149E+03   -0.26874E-01   -0.25467E-01  5760   0.210E+00-0.514E-02
 gam= 0.738 trial= 0.230  step= 0.675 mean= 0.230
 gam= 1.211 g(H,U,f)=  0.122E+00 0.128E+00 0.448E-02 ort(H,U,f) =-0.524E-01 0.524E-01-0.400E-02
CGA:  45    -0.222065774984E+03   -0.69968E-01   -0.69583E-01  5760   0.254E+00-0.395E-02
 gam= 1.211 trial= 0.253  step= 0.613 mean= 0.253
 gam= 1.690 g(H,U,f)=  0.125E+00 0.196E+00 0.109E+00 ort(H,U,f) =-0.589E-01 0.347E-01-0.516E-02
CGA:  46    -0.222135777477E+03   -0.70002E-01   -0.76444E-01  5760   0.430E+00-0.293E-01
 gam= 1.690 trial= 0.271  step= 0.134 mean= 0.271
 gam= 0.733 g(H,U,f)=  0.115E+00 0.150E+00 0.508E-01 ort(H,U,f) =-0.389E-01 0.974E-01-0.692E-01
CGA:  47    -0.222160185860E+03   -0.24408E-01   -0.25504E-01  5760   0.315E+00-0.107E-01
 gam= 0.733 trial= 0.264  step= 0.253 mean= 0.264
 gam= 0.611 g(H,U,f)=  0.712E-01 0.726E-01 0.489E-01 ort(H,U,f) =-0.323E-01 0.385E-01-0.260E-01
CGA:  48    -0.222198970455E+03   -0.38785E-01   -0.38851E-01  5760   0.193E+00-0.197E-01
 gam= 0.611 trial= 0.263  step= 0.180 mean= 0.263
 gam= 1.350 g(H,U,f)=  0.701E-01 0.106E+00 0.840E-01 ort(H,U,f) = 0.116E-01 0.376E-01-0.509E-01
CGA:  49    -0.222214933175E+03   -0.15963E-01   -0.16220E-01  5760   0.260E+00-0.171E-02
 gam= 1.350 trial= 0.259  step= 0.254 mean= 0.259
 gam= 0.369 g(H,U,f)=  0.447E-01 0.483E-01 0.297E-02 ort(H,U,f) =-0.333E-01 0.336E-01-0.468E-02
CGA:  50    -0.222247619507E+03   -0.32686E-01   -0.32677E-01  5760   0.959E-01-0.439E-02
 gam= 0.369 trial= 0.259  step= 0.416 mean= 0.259
 gam= 0.702 g(H,U,f)=  0.292E-01 0.330E-01 0.520E-02 ort(H,U,f) =-0.150E-01 0.154E-01-0.948E-03
CGA:  51    -0.222267225671E+03   -0.19606E-01   -0.19639E-01  5760   0.674E-01-0.472E-03
 gam= 0.702 trial= 0.267  step= 0.441 mean= 0.267
 gam= 2.178 g(H,U,f)=  0.271E-01 0.551E-01 0.646E-01 ort(H,U,f) =-0.289E-02 0.170E-01-0.149E-01
CGA:  52    -0.222282312497E+03   -0.15087E-01   -0.14800E-01  5760   0.147E+00-0.862E-03
 gam= 2.178 trial= 0.275  step= 0.142 mean= 0.275
 gam= 0.326 g(H,U,f)=  0.215E-01 0.223E-01 0.396E-02 ort(H,U,f) =-0.237E-01 0.298E-01-0.635E-02
CGA:  53    -0.222292075061E+03   -0.97626E-02   -0.10259E-01  5760   0.478E-01-0.263E-03
 gam= 0.326 trial= 0.269  step= 0.486 mean= 0.269
 gam= 0.948 g(H,U,f)=  0.195E-01 0.235E-01 0.227E-02 ort(H,U,f) =-0.833E-02 0.110E-01-0.998E-03
CGA:  54    -0.222303932636E+03   -0.11858E-01   -0.11586E-01  5760   0.453E-01 0.172E-02
 gam= 0.948 trial= 0.280  step= 0.475 mean= 0.280
 gam= 2.044 g(H,U,f)=  0.204E-01 0.359E-01 0.364E-01 ort(H,U,f) =-0.683E-02 0.115E-01-0.690E-02
CGA:  55    -0.222315055495E+03   -0.11123E-01   -0.11151E-01  5760   0.926E-01-0.224E-02
 gam= 2.044 trial= 0.289  step= 0.163 mean= 0.289
 gam= 0.590 g(H,U,f)=  0.237E-01 0.269E-01 0.402E-02 ort(H,U,f) =-0.166E-01 0.235E-01-0.726E-02
CGA:  56    -0.222321969254E+03   -0.69138E-02   -0.71731E-02  5760   0.546E-01-0.427E-03
 gam= 0.590 trial= 0.283  step= 0.407 mean= 0.283
 gam= 0.800 g(H,U,f)=  0.188E-01 0.234E-01 0.158E-02 ort(H,U,f) =-0.106E-01 0.103E-01-0.807E-04
CGA:  57    -0.222332982580E+03   -0.11013E-01   -0.11056E-01  5760   0.437E-01-0.417E-03
 gam= 0.800 trial= 0.289  step= 0.498 mean= 0.289
 gam= 0.759 g(H,U,f)=  0.161E-01 0.169E-01 0.240E-03 ort(H,U,f) =-0.812E-02 0.966E-02-0.224E-03
CGA:  58    -0.222343961853E+03   -0.10979E-01   -0.10789E-01  5760   0.332E-01 0.131E-02
 gam= 0.759 trial= 0.300  step= 0.623 mean= 0.300
 gam= 1.386 g(H,U,f)=  0.157E-01 0.239E-01 0.641E-02 ort(H,U,f) =-0.556E-02 0.471E-02-0.196E-05
CGA:  59    -0.222354472088E+03   -0.10510E-01   -0.10643E-01  5760   0.460E-01-0.851E-03
 gam= 1.386 trial= 0.316  step= 0.223 mean= 0.316
 gam= 1.170 g(H,U,f)=  0.154E-01 0.254E-01 0.130E-01 ort(H,U,f) =-0.166E-02 0.912E-02-0.816E-02
CGA:  60    -0.222359296935E+03   -0.48248E-02   -0.49873E-02  5760   0.538E-01-0.695E-03
 gam= 1.170 trial= 0.311  step= 0.224 mean= 0.311
 gam= 0.612 g(H,U,f)=  0.126E-01 0.158E-01 0.451E-02 ort(H,U,f) =-0.772E-02 0.995E-02-0.283E-02
CGA:  61    -0.222365406530E+03   -0.61096E-02   -0.59436E-02  5760   0.329E-01-0.601E-03
 gam= 0.612 trial= 0.307  step= 0.354 mean= 0.307
 gam= 0.971 g(H,U,f)=  0.105E-01 0.173E-01 0.425E-02 ort(H,U,f) =-0.299E-02 0.581E-02-0.202E-02
CGA:  62    -0.222371204585E+03   -0.57981E-02   -0.57607E-02  5760   0.320E-01 0.800E-03
 gam= 0.971 trial= 0.309  step= 0.221 mean= 0.309
 gam= 1.144 g(H,U,f)=  0.879E-02 0.183E-01 0.946E-02 ort(H,U,f) =-0.226E-02 0.566E-02-0.400E-02
CGA:  63    -0.222374858491E+03   -0.36539E-02   -0.36222E-02  5760   0.366E-01-0.595E-03
 gam= 1.144 trial= 0.305  step= 0.240 mean= 0.305
 gam= 0.562 g(H,U,f)=  0.878E-02 0.105E-01 0.133E-02 ort(H,U,f) =-0.657E-02 0.828E-02-0.193E-02
CGA:  64    -0.222379125928E+03   -0.42674E-02   -0.43012E-02  5760   0.206E-01-0.215E-03
 gam= 0.562 trial= 0.302  step= 0.530 mean= 0.302
 gam= 1.512 g(H,U,f)=  0.874E-02 0.168E-01 0.561E-02 ort(H,U,f) =-0.376E-02 0.398E-02-0.122E-02
CGA:  65    -0.222384502989E+03   -0.53771E-02   -0.54161E-02  5760   0.311E-01-0.101E-02
 gam= 1.512 trial= 0.313  step= 0.169 mean= 0.313
 gam= 0.810 g(H,U,f)=  0.724E-02 0.126E-01 0.535E-02 ort(H,U,f) =-0.256E-02 0.651E-02-0.352E-02
CGA:  66    -0.222387076717E+03   -0.25737E-02   -0.25049E-02  5760   0.252E-01 0.430E-03
 gam= 0.810 trial= 0.306  step= 0.288 mean= 0.306
 gam= 0.624 g(H,U,f)=  0.666E-02 0.814E-02 0.915E-03 ort(H,U,f) =-0.301E-02 0.460E-02-0.139E-02
CGA:  67    -0.222390730826E+03   -0.36541E-02   -0.36735E-02  5760   0.157E-01 0.201E-03
 gam= 0.624 trial= 0.305  step= 0.478 mean= 0.305
 gam= 0.000 g(H,U,f)=  0.676E-02 0.101E-01 0.244E-02 ort(H,U,f) =-0.230E-02 0.235E-02-0.519E-03
SDA:  68    -0.222394456706E+03   -0.37259E-02   -0.37826E-02  5760   0.193E-01-0.459E-03
 gam= 0.000 trial= 0.314  step= 0.180 mean= 0.314
 gam= 1.147 g(H,U,f)=  0.336E-02 0.108E-01 0.798E-02 ort(H,U,f) = 0.288E-02 0.633E-03-0.356E-02
CGA:  69    -0.222396153881E+03   -0.16972E-02   -0.17363E-02  5760   0.221E-01-0.492E-04
 gam= 1.147 trial= 0.307  step= 0.221 mean= 0.307
 gam= 0.486 g(H,U,f)=  0.346E-02 0.705E-02 0.241E-03 ort(H,U,f) =-0.179E-02 0.265E-02-0.136E-03
CGA:  70    -0.222398484735E+03   -0.23309E-02   -0.24342E-02  5760   0.107E-01 0.723E-03
 gam= 0.486 trial= 0.303  step= 0.501 mean= 0.303
 gam= 2.173 g(H,U,f)=  0.419E-02 0.121E-01 0.702E-02 ort(H,U,f) =-0.184E-02 0.310E-02-0.126E-02
CGA:  71    -0.222401329492E+03   -0.28448E-02   -0.27795E-02  5760   0.233E-01 0.102E-04
 gam= 2.173 trial= 0.312  step= 0.176 mean= 0.312
 gam= 1.016 g(H,U,f)=  0.606E-02 0.124E-01 0.526E-02 ort(H,U,f) =-0.534E-02 0.747E-02-0.855E-03
CGA:  72    -0.222403344487E+03   -0.20150E-02   -0.20610E-02  5760   0.237E-01 0.127E-02
 gam= 1.016 trial= 0.306  step= 0.264 mean= 0.306
 gam= 0.392 g(H,U,f)=  0.517E-02 0.387E-02 0.263E-03 ort(H,U,f) =-0.500E-02 0.692E-02-0.102E-03
CGA:  73    -0.222406542533E+03   -0.31980E-02   -0.32996E-02  5760   0.930E-02 0.181E-02
 gam= 0.392 trial= 0.304  step= 0.425 mean= 0.304
 gam= 2.755 g(H,U,f)=  0.480E-02 0.123E-01 0.850E-02 ort(H,U,f) = 0.214E-03 0.129E-02-0.211E-02
CGA:  74    -0.222408669991E+03   -0.21275E-02   -0.21281E-02  5760   0.256E-01-0.610E-03
 gam= 2.755 trial= 0.310  step= 0.158 mean= 0.310
 gam= 0.468 g(H,U,f)=  0.565E-02 0.617E-02 0.171E-03 ort(H,U,f) =-0.463E-02 0.436E-02 0.893E-04
CGA:  75    -0.222410590347E+03   -0.19204E-02   -0.18975E-02  5760   0.120E-01-0.182E-03
 gam= 0.468 trial= 0.302  step= 0.427 mean= 0.302
 gam= 1.738 g(H,U,f)=  0.457E-02 0.100E-01 0.623E-02 ort(H,U,f) =-0.219E-02 0.259E-02 0.667E-03
CGA:  76    -0.222413173496E+03   -0.25831E-02   -0.25384E-02  5760   0.208E-01 0.107E-02
 gam= 1.738 trial= 0.308  step= 0.124 mean= 0.308
 gam= 0.561 g(H,U,f)=  0.485E-02 0.579E-02 0.105E-02 ort(H,U,f) =-0.287E-02 0.542E-02-0.195E-02
CGA:  77    -0.222414560761E+03   -0.13873E-02   -0.14095E-02  5760   0.117E-01 0.601E-03
 gam= 0.561 trial= 0.299  step= 0.457 mean= 0.299
 gam= 2.351 g(H,U,f)=  0.589E-02 0.125E-01 0.908E-02 ort(H,U,f) =-0.153E-02 0.402E-02-0.344E-02
CGA:  78    -0.222417330143E+03   -0.27694E-02   -0.27474E-02  5760   0.275E-01-0.951E-03
 gam= 2.351 trial= 0.307  step= 0.162 mean= 0.307
 gam= 0.703 g(H,U,f)=  0.852E-02 0.898E-02 0.184E-02 ort(H,U,f) =-0.949E-02 0.890E-02-0.216E-02
CGA:  79    -0.222419335627E+03   -0.20055E-02   -0.20436E-02  5760   0.193E-01-0.275E-02
 gam= 0.703 trial= 0.300  step= 0.513 mean= 0.300
 gam= 1.464 g(H,U,f)=  0.135E-01 0.120E-01 0.283E-02 ort(H,U,f) =-0.787E-02 0.462E-02 0.226E-03
CGA:  80    -0.222423231961E+03   -0.38963E-02   -0.44603E-02  5760   0.283E-01-0.302E-02
 gam= 1.464 trial= 0.310  step= 0.276 mean= 0.310
 gam= 1.177 g(H,U,f)=  0.140E-01 0.139E-01 0.547E-02 ort(H,U,f) =-0.159E-02 0.112E-01-0.367E-02
CGA:  81    -0.222426414345E+03   -0.31824E-02   -0.32928E-02  5760   0.333E-01 0.595E-02
 gam= 1.177 trial= 0.309  step= 0.236 mean= 0.309
 gam= 0.562 g(H,U,f)=  0.866E-02 0.814E-02 0.193E-02 ort(H,U,f) =-0.373E-02 0.342E-02 0.348E-02
CGA:  82    -0.222430721591E+03   -0.43072E-02   -0.47638E-02  5760   0.187E-01 0.317E-02
 gam= 0.562 trial= 0.305  step= 0.323 mean= 0.305
 gam= 2.023 g(H,U,f)=  0.824E-02 0.164E-01 0.133E-01 ort(H,U,f) = 0.195E-02 0.875E-02-0.133E-01
CGA:  83    -0.222434004136E+03   -0.32825E-02   -0.33126E-02  5760   0.379E-01-0.258E-02
 gam= 2.023 trial= 0.306  step= 0.203 mean= 0.306
 gam= 0.734 g(H,U,f)=  0.126E-01 0.138E-01 0.143E-02 ort(H,U,f) =-0.111E-01 0.159E-01-0.460E-02
CGA:  84    -0.222437247631E+03   -0.32435E-02   -0.33137E-02  5760   0.278E-01 0.188E-03
 gam= 0.734 trial= 0.301  step= 0.310 mean= 0.301
 gam= 2.438 g(H,U,f)=  0.171E-01 0.300E-01 0.206E-01 ort(H,U,f) =-0.127E-01 0.283E-02 0.142E-01
CGA:  85    -0.222441610645E+03   -0.43630E-02   -0.43310E-02  5760   0.678E-01 0.436E-02
 gam= 2.438 trial= 0.301  step= 0.041 mean= 0.301
 gam= 0.000 g(H,U,f)=  0.150E-01 0.215E-01 0.835E-02 ort(H,U,f) =-0.138E-01 0.451E-01 0.408E-01
CGA:  86    -0.222444517774E+03   -0.29071E-02   -0.15898E-02  5760   0.449E-01 0.721E-01
 gam= 0.000 trial= 0.288  step= 0.129 mean= 0.288
 gam= 0.910 g(H,U,f)=  0.940E-02 0.214E-01 0.100E-01 ort(H,U,f) = 0.834E-02 0.930E-03-0.844E-02
CGA:  87    -0.222447466821E+03   -0.29490E-02   -0.28993E-02  5760   0.408E-01 0.830E-03
 gam= 0.910 trial= 0.280  step= 0.290 mean= 0.280
 gam= 0.592 g(H,U,f)=  0.727E-02 0.158E-01 0.107E-02 ort(H,U,f) =-0.443E-02 0.480E-02 0.889E-04
CGA:  88    -0.222453507327E+03   -0.60405E-02   -0.60362E-02  5760   0.242E-01 0.459E-03
 gam= 0.592 trial= 0.281  step= 0.801 mean= 0.281
 gam= 2.593 g(H,U,f)=  0.219E-01 0.225E-01 0.182E-01 ort(H,U,f) =-0.129E-01 0.955E-02 0.903E-03
CGA:  89    -0.222462828364E+03   -0.93210E-02   -0.97882E-02  5760   0.627E-01-0.247E-02
 gam= 2.593 trial= 0.307  step= 0.361 mean= 0.307
 gam= 2.294 g(H,U,f)=  0.679E-01 0.625E-01 0.134E-01 ort(H,U,f) =-0.213E-01 0.516E-01-0.277E-01
CGA:  90    -0.222473214264E+03   -0.10386E-01   -0.10145E-01  5760   0.144E+00 0.264E-02
 gam= 2.294 trial= 0.309  step= 0.034 mean= 0.309
 gam= 0.000 g(H,U,f)=  0.706E-01 0.675E-01 0.316E-01 ort(H,U,f) = 0.168E-01 0.175E+00-0.525E-01
CGA:  91    -0.222477864033E+03   -0.46498E-02   -0.25356E-02  5760   0.170E+00 0.139E+00
 gam= 0.000 trial= 0.296  step= 0.199 mean= 0.296
 gam= 0.799 g(H,U,f)=  0.319E-01 0.433E-01 0.603E-01 ort(H,U,f) = 0.269E-01 0.153E-01-0.388E-01
CGA:  92    -0.222494071152E+03   -0.16207E-01   -0.16847E-01  5760   0.135E+00 0.334E-02
 gam= 0.799 trial= 0.291  step= 0.099 mean= 0.291
 gam= 0.758 g(H,U,f)=  0.152E-01 0.203E-01 0.672E-01 ort(H,U,f) = 0.135E-01 0.358E-02-0.185E-01
CGA:  93    -0.222501410257E+03   -0.73391E-02   -0.68504E-02  5760   0.103E+00-0.142E-02
 gam= 0.758 trial= 0.281  step= 0.506 mean= 0.281
 gam= 2.531 g(H,U,f)=  0.601E-01 0.699E-01 0.130E+00 ort(H,U,f) =-0.563E-01 0.151E-01 0.426E-01
CGA:  94    -0.222527471823E+03   -0.26062E-01   -0.25730E-01  5760   0.260E+00 0.138E-02
 gam= 2.531 trial= 0.292  step= 0.177 mean= 0.292
 gam= 0.953 g(H,U,f)=  0.140E+00 0.800E-01 0.277E-01 ort(H,U,f) =-0.170E+00 0.147E+00 0.661E-01
CGA:  95    -0.222551128100E+03   -0.23656E-01   -0.23312E-01  5760   0.248E+00 0.440E-01
 gam= 0.953 trial= 0.287  step= 0.117 mean= 0.287
 gam= 1.090 g(H,U,f)=  0.156E+00 0.703E-01 0.436E-01 ort(H,U,f) =-0.699E-01 0.117E+00 0.996E-02
CGA:  96    -0.222571582321E+03   -0.20454E-01   -0.16958E-01  5760   0.270E+00 0.570E-01
 gam= 1.090 trial= 0.278  step= 0.106 mean= 0.278
 gam= 1.055 g(H,U,f)=  0.164E+00 0.110E+00 0.112E-01 ort(H,U,f) = 0.104E-01 0.132E-01-0.950E-02
CGA:  97    -0.222586992466E+03   -0.15410E-01   -0.17654E-01  5760   0.285E+00 0.141E-01
 gam= 1.055 trial= 0.270  step= 0.109 mean= 0.270
 gam= 1.196 g(H,U,f)=  0.161E+00 0.179E+00 0.287E-04 ort(H,U,f) = 0.608E-01-0.629E-01-0.882E-04
CGA:  98    -0.222602905719E+03   -0.15913E-01   -0.16322E-01  5760   0.341E+00-0.222E-02
 gam= 1.196 trial= 0.262  step= 0.118 mean= 0.262
 gam= 1.155 g(H,U,f)=  0.149E+00 0.243E+00 0.171E-02 ort(H,U,f) = 0.203E-01-0.428E-01 0.493E-03
CGA:  99    -0.222622240784E+03   -0.19335E-01   -0.20022E-01  5760   0.393E+00-0.220E-01
 gam= 1.155 trial= 0.254  step= 0.102 mean= 0.254
 gam= 0.564 g(H,U,f)=  0.115E+00 0.106E+00 0.558E-04 ort(H,U,f) =-0.896E-01 0.807E-01 0.340E-03
CGA: 100    -0.222643070020E+03   -0.20829E-01   -0.18708E-01  5760   0.222E+00-0.854E-02
 gam= 0.564 trial= 0.247  step= 0.097 mean= 0.247
 gam= 0.623 g(H,U,f)=  0.971E-01 0.385E-01 0.255E-02 ort(H,U,f) =-0.338E-01 0.613E-01-0.268E-02
CGA: 101    -0.222653518861E+03   -0.10449E-01   -0.10520E-01  5760   0.138E+00 0.248E-01
 gam= 0.623 trial= 0.239  step= 0.164 mean= 0.239
 gam= 0.887 g(H,U,f)=  0.974E-01 0.204E-01 0.472E-02 ort(H,U,f) =-0.119E-01 0.641E-02 0.317E-02
CGA: 102    -0.222666341782E+03   -0.12823E-01   -0.12613E-01  5760   0.123E+00-0.231E-02
 gam= 0.887 trial= 0.236  step= 0.138 mean= 0.236
 gam= 1.011 g(H,U,f)=  0.854E-01 0.279E-01 0.105E-01 ort(H,U,f) = 0.186E-01-0.664E-02-0.106E-01
CGA: 103    -0.222674652637E+03   -0.83109E-02   -0.83395E-02  5760   0.124E+00 0.134E-02
 gam= 1.011 trial= 0.231  step= 0.141 mean= 0.231
 gam= 0.684 g(H,U,f)=  0.537E-01 0.224E-01 0.857E-02 ort(H,U,f) =-0.226E-02 0.276E-02-0.385E-03
CGA: 104    -0.222683469027E+03   -0.88164E-02   -0.88036E-02  5760   0.847E-01 0.116E-03
 gam= 0.684 trial= 0.226  step= 0.120 mean= 0.226
 gam= 0.734 g(H,U,f)=  0.393E-01 0.220E-01 0.844E-03 ort(H,U,f) =-0.734E-02 0.107E-01-0.250E-02
CGA: 105    -0.222688669434E+03   -0.52004E-02   -0.50784E-02  5760   0.622E-01 0.825E-03
 gam= 0.734 trial= 0.221  step= 0.155 mean= 0.221
 gam= 0.883 g(H,U,f)=  0.324E-01 0.196E-01 0.300E-02 ort(H,U,f) =-0.126E-01 0.154E-01-0.182E-02
CGA: 106    -0.222693521271E+03   -0.48518E-02   -0.48677E-02  5760   0.549E-01 0.947E-03
 gam= 0.883 trial= 0.218  step= 0.129 mean= 0.218
 gam= 0.815 g(H,U,f)=  0.277E-01 0.166E-01 0.440E-03 ort(H,U,f) =-0.784E-02 0.847E-02-0.514E-03
CGA: 107    -0.222697150692E+03   -0.36294E-02   -0.36065E-02  5760   0.447E-01 0.111E-03
 gam= 0.815 trial= 0.213  step= 0.152 mean= 0.213
 gam= 0.875 g(H,U,f)=  0.214E-01 0.168E-01 0.947E-03 ort(H,U,f) =-0.419E-02 0.410E-02 0.389E-04
CGA: 108    -0.222700556551E+03   -0.34059E-02   -0.34088E-02  5760   0.392E-01-0.603E-04
 gam= 0.875 trial= 0.210  step= 0.127 mean= 0.210
 gam= 0.792 g(H,U,f)=  0.169E-01 0.127E-01 0.140E-02 ort(H,U,f) =-0.227E-02 0.389E-02-0.118E-02
CGA: 109    -0.222703063853E+03   -0.25073E-02   -0.24834E-02  5760   0.310E-01 0.444E-03
 gam= 0.792 trial= 0.206  step= 0.181 mean= 0.206
 gam= 1.032 g(H,U,f)=  0.142E-01 0.152E-01 0.263E-02 ort(H,U,f) =-0.562E-02 0.442E-02 0.637E-03
CGA: 110    -0.222705908681E+03   -0.28448E-02   -0.28392E-02  5760   0.320E-01-0.559E-03
 gam= 1.032 trial= 0.205  step= 0.135 mean= 0.205
 gam= 0.745 g(H,U,f)=  0.132E-01 0.101E-01 0.527E-03 ort(H,U,f) =-0.880E-02 0.105E-01-0.145E-02
CGA: 111    -0.222708103603E+03   -0.21949E-02   -0.21171E-02  5760   0.238E-01 0.218E-03
 gam= 0.745 trial= 0.201  step= 0.161 mean= 0.201
 gam= 0.886 g(H,U,f)=  0.128E-01 0.638E-02 0.194E-02 ort(H,U,f) =-0.561E-02 0.752E-02-0.998E-03
CGA: 112    -0.222710031522E+03   -0.19279E-02   -0.19355E-02  5760   0.211E-01 0.917E-03
 gam= 0.886 trial= 0.199  step= 0.154 mean= 0.199
 gam= 0.986 g(H,U,f)=  0.135E-01 0.728E-02 0.107E-03 ort(H,U,f) =-0.151E-02 0.148E-02-0.259E-03
CGA: 113    -0.222711754619E+03   -0.17231E-02   -0.16914E-02  5760   0.208E-01-0.285E-03
 gam= 0.986 trial= 0.197  step= 0.178 mean= 0.197
 gam= 1.112 g(H,U,f)=  0.121E-01 0.100E-01 0.107E-02 ort(H,U,f) = 0.302E-04 0.813E-03-0.494E-03
CGA: 114    -0.222713585083E+03   -0.18305E-02   -0.18319E-02  5760   0.232E-01 0.349E-03
 gam= 1.112 trial= 0.196  step= 0.129 mean= 0.196
 gam= 0.693 g(H,U,f)=  0.893E-02 0.696E-02 0.172E-03 ort(H,U,f) =-0.233E-02 0.259E-02-0.214E-03
CGA: 115    -0.222715111746E+03   -0.15267E-02   -0.15153E-02  5760   0.161E-01 0.486E-04
 gam= 0.693 trial= 0.193  step= 0.150 mean= 0.193
 gam= 0.809 g(H,U,f)=  0.704E-02 0.522E-02 0.735E-03 ort(H,U,f) =-0.322E-02 0.324E-02 0.424E-04
CGA: 116    -0.222716316789E+03   -0.12050E-02   -0.12070E-02  5760   0.130E-01 0.655E-04
 gam= 0.809 trial= 0.191  step= 0.134 mean= 0.191
 gam= 0.788 g(H,U,f)=  0.659E-02 0.342E-02 0.231E-03 ort(H,U,f) =-0.210E-02 0.254E-02-0.439E-03
CGA: 117    -0.222717200163E+03   -0.88337E-03   -0.87426E-03  5760   0.102E-01 0.405E-05
 gam= 0.788 trial= 0.188  step= 0.184 mean= 0.188
 gam= 1.139 g(H,U,f)=  0.616E-02 0.436E-02 0.114E-02 ort(H,U,f) =-0.718E-03 0.104E-02-0.272E-03
CGA: 118    -0.222718142561E+03   -0.94240E-03   -0.94244E-03  5760   0.117E-01 0.484E-04
 gam= 1.139 trial= 0.188  step= 0.141 mean= 0.188
 gam= 0.788 g(H,U,f)=  0.533E-02 0.376E-02 0.966E-04 ort(H,U,f) =-0.757E-03 0.969E-03-0.246E-03
CGA: 119    -0.222718974986E+03   -0.83243E-03   -0.82752E-03  5760   0.919E-02-0.332E-04
 gam= 0.788 trial= 0.185  step= 0.176 mean= 0.185
 gam= 1.028 g(H,U,f)=  0.428E-02 0.416E-02 0.101E-02 ort(H,U,f) =-0.790E-03 0.114E-02-0.322E-03
CGA: 120    -0.222719782174E+03   -0.80719E-03   -0.80726E-03  5760   0.945E-02 0.264E-04
 gam= 1.028 trial= 0.185  step= 0.149 mean= 0.185
 gam= 0.865 g(H,U,f)=  0.408E-02 0.404E-02 0.517E-04 ort(H,U,f) =-0.192E-02 0.203E-02-0.152E-03
CGA: 121    -0.222720489214E+03   -0.70704E-03   -0.70444E-03  5760   0.817E-02-0.378E-04
 gam= 0.865 trial= 0.183  step= 0.186 mean= 0.183
 gam= 0.000 g(H,U,f)=  0.421E-02 0.408E-02 0.714E-03 ort(H,U,f) =-0.290E-02 0.326E-02-0.323E-03
SDA: 122    -0.222721244863E+03   -0.75565E-03   -0.75562E-03  5760   0.900E-02 0.384E-04
 gam= 0.000 trial= 0.183  step= 0.233 mean= 0.183
 gam= 1.031 g(H,U,f)=  0.212E-02 0.357E-02 0.360E-02 ort(H,U,f) = 0.197E-02-0.308E-03-0.159E-02
CGA: 123    -0.222722289514E+03   -0.10447E-02   -0.10473E-02  5760   0.928E-02 0.681E-04
 gam= 1.031 trial= 0.186  step= 0.189 mean= 0.186
 gam= 0.364 g(H,U,f)=  0.125E-02 0.196E-02 0.172E-03 ort(H,U,f) = 0.653E-03-0.332E-03-0.430E-03
CGA: 124    -0.222723174750E+03   -0.88524E-03   -0.88573E-03  5760   0.338E-02-0.108E-03
 gam= 0.364 trial= 0.186  step= 0.567 mean= 0.186
 gam= 0.513 g(H,U,f)=  0.735E-03 0.978E-03 0.226E-04 ort(H,U,f) =-0.854E-03 0.841E-03-0.538E-05
CGA: 125    -0.222724119746E+03   -0.94500E-03   -0.94871E-03  5760   0.174E-02-0.190E-04
 gam= 0.513 trial= 0.205  step= 0.736 mean= 0.205
 gam= 3.255 g(H,U,f)=  0.992E-03 0.265E-02 0.201E-02 ort(H,U,f) =-0.364E-03 0.533E-03-0.185E-03
CGA: 126    -0.222724743569E+03   -0.62382E-03   -0.63548E-03  5760   0.565E-02-0.156E-04
 gam= 3.255 trial= 0.231  step= 0.166 mean= 0.231
 gam= 0.460 g(H,U,f)=  0.105E-02 0.116E-02 0.385E-03 ort(H,U,f) =-0.124E-02 0.185E-02-0.611E-03
CGA: 127    -0.222725214570E+03   -0.47100E-03   -0.46522E-03  5760   0.260E-02-0.186E-05
 gam= 0.460 trial= 0.228  step= 0.824 mean= 0.228
 gam= 1.133 g(H,U,f)=  0.126E-02 0.155E-02 0.137E-03 ort(H,U,f) =-0.596E-03 0.582E-03-0.632E-04
CGA: 128    -0.222726255494E+03   -0.10409E-02   -0.10709E-02  5760   0.294E-02-0.772E-04
 gam= 1.133 trial= 0.258  step= 0.432 mean= 0.258
 gam= 1.840 g(H,U,f)=  0.112E-02 0.264E-02 0.165E-02 ort(H,U,f) =-0.238E-03 0.466E-03-0.223E-03
CGA: 129    -0.222726868824E+03   -0.61333E-03   -0.61725E-03  5760   0.542E-02 0.460E-05
 gam= 1.840 trial= 0.267  step= 0.195 mean= 0.267
 gam= 0.684 g(H,U,f)=  0.127E-02 0.179E-02 0.649E-03 ort(H,U,f) =-0.406E-03 0.119E-02-0.788E-03
CGA: 130    -0.222727407367E+03   -0.53854E-03   -0.52861E-03  5760   0.370E-02 0.109E-05
 gam= 0.684 trial= 0.263  step= 0.697 mean= 0.263
 gam= 0.941 g(H,U,f)=  0.128E-02 0.173E-02 0.476E-03 ort(H,U,f) =-0.109E-02 0.115E-02-0.920E-04
CGA: 131    -0.222728688822E+03   -0.12815E-02   -0.12903E-02  5760   0.349E-02-0.273E-04
 gam= 0.941 trial= 0.285  step= 0.365 mean= 0.285
 gam= 2.323 g(H,U,f)=  0.150E-02 0.373E-02 0.287E-02 ort(H,U,f) =-0.276E-03 0.125E-02-0.979E-03
CGA: 132    -0.222729314923E+03   -0.62610E-03   -0.63054E-03  5760   0.810E-02-0.663E-05
 gam= 2.323 trial= 0.289  step= 0.278 mean= 0.289
 gam= 0.553 g(H,U,f)=  0.206E-02 0.218E-02 0.232E-03 ort(H,U,f) =-0.207E-02 0.223E-02-0.177E-03
CGA: 133    -0.222730439392E+03   -0.11245E-02   -0.11242E-02  5760   0.448E-02-0.216E-04
 gam= 0.553 trial= 0.288  step= 0.701 mean= 0.288
 gam= 1.227 g(H,U,f)=  0.203E-02 0.218E-02 0.128E-02 ort(H,U,f) =-0.959E-03 0.125E-02-0.329E-03
CGA: 134    -0.222731996383E+03   -0.15570E-02   -0.15641E-02  5760   0.549E-02-0.334E-04
 gam= 1.227 trial= 0.309  step= 0.266 mean= 0.309
 gam= 1.581 g(H,U,f)=  0.241E-02 0.365E-02 0.262E-02 ort(H,U,f) =-0.390E-04 0.129E-02-0.124E-02
CGA: 135    -0.222732721026E+03   -0.72464E-03   -0.72503E-03  5760   0.868E-02 0.921E-05
 gam= 1.581 trial= 0.307  step= 0.281 mean= 0.307
 gam= 0.287 g(H,U,f)=  0.141E-02 0.983E-03 0.105E-03 ort(H,U,f) =-0.111E-02 0.123E-02-0.138E-03
CGA: 136    -0.222733942927E+03   -0.12219E-02   -0.12214E-02  5760   0.249E-02-0.158E-04
 gam= 0.287 trial= 0.305  step= 0.650 mean= 0.305
 gam= 1.590 g(H,U,f)=  0.736E-03 0.173E-02 0.150E-02 ort(H,U,f) = 0.196E-04 0.230E-03-0.242E-03
CGA: 137    -0.222734752078E+03   -0.80915E-03   -0.80870E-03  5760   0.396E-02 0.737E-05
 gam= 1.590 trial= 0.323  step= 0.152 mean= 0.323
 gam= 0.525 g(H,U,f)=  0.658E-03 0.110E-02 0.318E-03 ort(H,U,f) =-0.203E-03 0.720E-03-0.505E-03
CGA: 138    -0.222735055588E+03   -0.30351E-03   -0.30133E-03  5760   0.208E-02 0.129E-04
 gam= 0.525 trial= 0.314  step= 0.411 mean= 0.314
 gam= 0.589 g(H,U,f)=  0.449E-03 0.695E-03 0.814E-04 ort(H,U,f) =-0.176E-03 0.204E-03-0.250E-04
CGA: 139    -0.222735484940E+03   -0.42935E-03   -0.42920E-03  5760   0.122E-02 0.236E-05
 gam= 0.589 trial= 0.319  step= 0.556 mean= 0.319
 gam= 1.922 g(H,U,f)=  0.481E-03 0.104E-02 0.833E-03 ort(H,U,f) =-0.123E-03 0.337E-03-0.215E-03
CGA: 140    -0.222735825278E+03   -0.34034E-03   -0.34087E-03  5760   0.235E-02-0.521E-06
 gam= 1.922 trial= 0.331  step= 0.175 mean= 0.331
 gam= 0.662 g(H,U,f)=  0.505E-03 0.798E-03 0.256E-03 ort(H,U,f) =-0.409E-03 0.639E-03-0.231E-03
CGA: 141    -0.222736030395E+03   -0.20512E-03   -0.20537E-03  5760   0.156E-02-0.242E-06
 gam= 0.662 trial= 0.323  step= 0.596 mean= 0.323
 gam= 0.707 g(H,U,f)=  0.583E-03 0.457E-03 0.622E-04 ort(H,U,f) =-0.445E-03 0.496E-03-0.493E-04
CGA: 142    -0.222736495591E+03   -0.46520E-03   -0.46492E-03  5760   0.110E-02 0.179E-05
 gam= 0.707 trial= 0.337  step= 0.531 mean= 0.337
 gam= 2.822 g(H,U,f)=  0.570E-03 0.124E-02 0.130E-02 ort(H,U,f) =-0.881E-04 0.211E-03-0.121E-03
CGA: 143    -0.222736788831E+03   -0.29324E-03   -0.29295E-03  5760   0.311E-02 0.234E-05
 gam= 2.822 trial= 0.346  step= 0.188 mean= 0.346
 gam= 0.370 g(H,U,f)=  0.461E-03 0.572E-03 0.117E-03 ort(H,U,f) =-0.365E-03 0.651E-03-0.283E-03
CGA: 144    -0.222737081681E+03   -0.29285E-03   -0.29279E-03  5760   0.115E-02 0.327E-05
 gam= 0.370 trial= 0.338  step= 0.544 mean= 0.338
 gam= 0.533 g(H,U,f)=  0.286E-03 0.253E-03 0.737E-04 ort(H,U,f) =-0.102E-03 0.122E-03-0.853E-05
CGA: 145    -0.222737396101E+03   -0.31442E-03   -0.31307E-03  5760   0.613E-03 0.117E-04
 gam= 0.533 trial= 0.349  step= 0.275 mean= 0.349
 gam= 1.731 g(H,U,f)=  0.193E-03 0.437E-03 0.431E-03 ort(H,U,f) = 0.827E-04 0.839E-04-0.168E-03
CGA: 146    -0.222737481151E+03   -0.85051E-04   -0.84986E-04  5760   0.106E-02-0.122E-05
 gam= 1.731 trial= 0.345  step= 0.305 mean= 0.345
 gam= 0.436 g(H,U,f)=  0.187E-03 0.262E-03 0.130E-04 ort(H,U,f) =-0.133E-03 0.153E-03-0.248E-04
CGA: 147    -0.222737642420E+03   -0.16127E-03   -0.16120E-03  5760   0.462E-03-0.452E-05
 gam= 0.436 trial= 0.343  step= 0.534 mean= 0.343
 gam= 0.786 g(H,U,f)=  0.135E-03 0.174E-03 0.545E-04 ort(H,U,f) =-0.965E-04 0.982E-04-0.381E-05
CGA: 148    -0.222737765021E+03   -0.12260E-03   -0.12284E-03  5760   0.364E-03-0.212E-05
 gam= 0.786 trial= 0.353  step= 0.280 mean= 0.353
 gam= 1.888 g(H,U,f)=  0.139E-03 0.301E-03 0.247E-03 ort(H,U,f) =-0.338E-05 0.114E-03-0.109E-03
CGA: 149    -0.222737815723E+03   -0.50703E-04   -0.50738E-04  5760   0.686E-03 0.174E-05
 gam= 1.888 trial= 0.349  step= 0.383 mean= 0.349
 gam= 0.652 g(H,U,f)=  0.194E-03 0.237E-03 0.169E-04 ort(H,U,f) =-0.179E-03 0.192E-03-0.114E-04
CGA: 150    -0.222737947803E+03   -0.13208E-03   -0.13206E-03  5760   0.448E-03 0.183E-05
 gam= 0.652 trial= 0.351  step= 0.648 mean= 0.351
 gam= 1.181 g(H,U,f)=  0.203E-03 0.241E-03 0.841E-04 ort(H,U,f) =-0.126E-03 0.144E-03-0.216E-04
CGA: 151    -0.222738092718E+03   -0.14492E-03   -0.14530E-03  5760   0.529E-03-0.365E-05
 gam= 1.181 trial= 0.365  step= 0.270 mean= 0.365
 gam= 1.694 g(H,U,f)=  0.217E-03 0.377E-03 0.301E-03 ort(H,U,f) =-0.387E-04 0.152E-03-0.110E-03
CGA: 152    -0.222738163455E+03   -0.70737E-04   -0.70682E-04  5760   0.896E-03 0.299E-05
 gam= 1.694 trial= 0.361  step= 0.351 mean= 0.361
 gam= 0.000 g(H,U,f)=  0.244E-03 0.242E-03 0.302E-04 ort(H,U,f) =-0.212E-03 0.251E-03-0.369E-04
SDA: 153    -0.222738321353E+03   -0.15790E-03   -0.15788E-03  5760   0.516E-03 0.214E-05
 gam= 0.000 trial= 0.360  step= 0.297 mean= 0.360
 gam= 1.043 g(H,U,f)=  0.103E-03 0.236E-03 0.200E-03 ort(H,U,f) = 0.805E-04-0.117E-05-0.769E-04
CGA: 154    -0.222738397994E+03   -0.76641E-04   -0.76566E-04  5760   0.539E-03 0.242E-05
 gam= 1.043 trial= 0.357  step= 0.157 mean= 0.357
 gam= 0.471 g(H,U,f)=  0.727E-04 0.159E-03 0.224E-04 ort(H,U,f) = 0.500E-04-0.900E-05-0.400E-04
CGA: 155    -0.222738440652E+03   -0.42657E-04   -0.42508E-04  5760   0.254E-03 0.106E-05
 gam= 0.471 trial= 0.347  step= 0.628 mean= 0.347
 gam= 0.706 g(H,U,f)=  0.735E-04 0.105E-03 0.234E-06 ort(H,U,f) =-0.499E-04 0.514E-04-0.204E-08
CGA: 156    -0.222738520653E+03   -0.80002E-04   -0.79765E-04  5760   0.179E-03 0.149E-05
 gam= 0.706 trial= 0.361  step= 0.731 mean= 0.361
 gam= 0.945 g(H,U,f)=  0.669E-04 0.946E-04 0.767E-05 ort(H,U,f) =-0.394E-04 0.407E-04-0.189E-05
CGA: 157    -0.222738586382E+03   -0.65729E-04   -0.65849E-04  5760   0.169E-03-0.524E-06
 gam= 0.945 trial= 0.380  step= 0.460 mean= 0.380
 gam= 2.051 g(H,U,f)=  0.612E-04 0.152E-03 0.134E-03 ort(H,U,f) =-0.220E-04 0.490E-04-0.240E-04
CGA: 158    -0.222738625266E+03   -0.38884E-04   -0.38818E-04  5760   0.347E-03 0.299E-05
 gam= 2.051 trial= 0.384  step= 0.171 mean= 0.384
 gam= 0.490 g(H,U,f)=  0.710E-04 0.830E-04 0.161E-04 ort(H,U,f) =-0.578E-04 0.892E-04-0.296E-04
CGA: 159    -0.222738655364E+03   -0.30099E-04   -0.30127E-04  5760   0.170E-03 0.178E-05
 gam= 0.490 trial= 0.373  step= 0.815 mean= 0.373
 gam= 0.920 g(H,U,f)=  0.729E-04 0.821E-04 0.148E-05 ort(H,U,f) =-0.473E-04 0.483E-04-0.443E-06
CGA: 160    -0.222738725166E+03   -0.69802E-04   -0.69685E-04  5760   0.157E-03 0.500E-06
 gam= 0.920 trial= 0.395  step= 0.744 mean= 0.395
 gam= 1.690 g(H,U,f)=  0.785E-04 0.109E-03 0.771E-04 ort(H,U,f) =-0.278E-04 0.340E-04-0.770E-05
CGA: 161    -0.222738783304E+03   -0.58138E-04   -0.58402E-04  5760   0.265E-03-0.152E-05
 gam= 1.690 trial= 0.412  step= 0.201 mean= 0.412
 gam= 1.185 g(H,U,f)=  0.896E-04 0.154E-03 0.700E-04 ort(H,U,f) =-0.303E-05 0.664E-04-0.612E-04
CGA: 162    -0.222738809871E+03   -0.26567E-04   -0.26318E-04  5760   0.313E-03 0.215E-05
 gam= 1.185 trial= 0.402  step= 0.528 mean= 0.402
 gam= 0.437 g(H,U,f)=  0.764E-04 0.594E-04 0.110E-05 ort(H,U,f) =-0.813E-04 0.814E-04 0.346E-06
CGA: 163    -0.222738893299E+03   -0.83428E-04   -0.83375E-04  5760   0.137E-03 0.483E-06
 gam= 0.437 trial= 0.408  step= 0.746 mean= 0.408
 gam= 1.096 g(H,U,f)=  0.541E-04 0.818E-04 0.143E-04 ort(H,U,f) =-0.149E-04 0.179E-04-0.425E-05
CGA: 164    -0.222738944184E+03   -0.50885E-04   -0.51135E-04  5760   0.150E-03-0.132E-05
 gam= 1.096 trial= 0.425  step= 0.333 mean= 0.425
 gam= 2.087 g(H,U,f)=  0.530E-04 0.136E-03 0.125E-03 ort(H,U,f) =-0.424E-06 0.300E-04-0.285E-04
CGA: 165    -0.222738968956E+03   -0.24773E-04   -0.24751E-04  5760   0.313E-03 0.108E-05
 gam= 2.087 trial= 0.420  step= 0.244 mean= 0.420
 gam= 0.283 g(H,U,f)=  0.433E-04 0.413E-04 0.410E-05 ort(H,U,f) =-0.584E-04 0.715E-04-0.115E-04
CGA: 166    -0.222739007668E+03   -0.38712E-04   -0.38488E-04  5760   0.887E-04 0.152E-05
 gam= 0.283 trial= 0.412  step= 0.744 mean= 0.412
 gam= 1.498 g(H,U,f)=  0.443E-04 0.693E-04 0.193E-04 ort(H,U,f) =-0.128E-04 0.157E-04-0.142E-05
CGA: 167    -0.222739041010E+03   -0.33342E-04   -0.33162E-04  5760   0.133E-03 0.148E-05
 gam= 1.498 trial= 0.428  step= 0.291 mean= 0.428
 gam= 1.788 g(H,U,f)=  0.398E-04 0.108E-03 0.897E-04 ort(H,U,f) =-0.117E-04 0.502E-04-0.366E-04
CGA: 168    -0.222739060710E+03   -0.19700E-04   -0.19651E-04  5760   0.238E-03 0.187E-05
 gam= 1.788 trial= 0.421  step= 0.298 mean= 0.421
 gam= 0.460 g(H,U,f)=  0.530E-04 0.536E-04 0.270E-05 ort(H,U,f) =-0.765E-04 0.796E-04-0.332E-05
CGA: 169    -0.222739096706E+03   -0.35996E-04   -0.35849E-04  5760   0.109E-03-0.264E-06
 gam= 0.460 trial= 0.415  step= 0.861 mean= 0.415
 gam= 2.014 g(H,U,f)=  0.635E-04 0.110E-03 0.461E-04 ort(H,U,f) =-0.250E-04 0.294E-04-0.272E-05
CGA: 170    -0.222739144153E+03   -0.47447E-04   -0.46989E-04  5760   0.220E-03 0.174E-05
 gam= 2.014 trial= 0.437  step= 0.198 mean= 0.437
 gam= 1.000 g(H,U,f)=  0.563E-04 0.912E-04 0.724E-04 ort(H,U,f) =-0.222E-04 0.775E-04-0.496E-04
CGA: 171    -0.222739166497E+03   -0.22345E-04   -0.22109E-04  5760   0.220E-03 0.564E-05
 gam= 1.000 trial= 0.425  step= 0.425 mean= 0.425
 gam= 0.615 g(H,U,f)=  0.620E-04 0.635E-04 0.976E-05 ort(H,U,f) =-0.369E-04 0.469E-04-0.908E-05
CGA: 172    -0.222739214436E+03   -0.47938E-04   -0.47938E-04  5760   0.135E-03 0.974E-06
 gam= 0.615 trial= 0.425  step= 0.517 mean= 0.425
 gam= 1.962 g(H,U,f)=  0.518E-04 0.120E-03 0.933E-04 ort(H,U,f) =-0.730E-05 0.210E-04-0.137E-04
CGA: 173    -0.222739249416E+03   -0.34981E-04   -0.35136E-04  5760   0.265E-03-0.100E-06
 gam= 1.962 trial= 0.430  step= 0.158 mean= 0.430
 gam= 0.373 g(H,U,f)=  0.429E-04 0.414E-04 0.146E-04 ort(H,U,f) =-0.159E-04 0.418E-04-0.245E-04
CGA: 174    -0.222739270651E+03   -0.21235E-04   -0.20891E-04  5760   0.989E-04 0.142E-05
 gam= 0.373 trial= 0.416  step= 0.590 mean= 0.416
 gam= 0.762 g(H,U,f)=  0.294E-04 0.352E-04 0.108E-04 ort(H,U,f) =-0.907E-05 0.134E-04-0.420E-05
CGA: 175    -0.222739299926E+03   -0.29275E-04   -0.29341E-04  5760   0.754E-04 0.107E-06
 gam= 0.762 trial= 0.425  step= 0.325 mean= 0.425
 gam= 1.745 g(H,U,f)=  0.229E-04 0.635E-04 0.452E-04 ort(H,U,f) = 0.194E-05 0.145E-04-0.154E-04
CGA: 176    -0.222739312232E+03   -0.12307E-04   -0.12265E-04  5760   0.132E-03 0.976E-06
 gam= 1.745 trial= 0.420  step= 0.223 mean= 0.420
 gam= 0.401 g(H,U,f)=  0.218E-04 0.270E-04 0.403E-05 ort(H,U,f) =-0.189E-04 0.241E-04-0.472E-05
CGA: 177    -0.222739327319E+03   -0.15087E-04   -0.14868E-04  5760   0.528E-04 0.490E-06
 gam= 0.401 trial= 0.410  step= 0.673 mean= 0.410
 gam= 1.396 g(H,U,f)=  0.205E-04 0.342E-04 0.190E-04 ort(H,U,f) =-0.100E-04 0.146E-04-0.413E-05
CGA: 178    -0.222739345129E+03   -0.17810E-04   -0.17821E-04  5760   0.737E-04 0.403E-06
 gam= 1.396 trial= 0.423  step= 0.207 mean= 0.423
 gam= 1.165 g(H,U,f)=  0.237E-04 0.410E-04 0.212E-04 ort(H,U,f) =-0.647E-05 0.227E-04-0.145E-04
CGA: 179    -0.222739353014E+03   -0.78847E-05   -0.77051E-05  5760   0.859E-04 0.173E-05
 gam= 1.165 trial= 0.413  step= 0.477 mean= 0.413
 gam= 0.660 g(H,U,f)=  0.283E-04 0.254E-04 0.300E-05 ort(H,U,f) =-0.298E-04 0.320E-04-0.141E-05
CGA: 180    -0.222739374015E+03   -0.21001E-04   -0.20985E-04  5760   0.567E-04 0.788E-06
 gam= 0.660 trial= 0.416  step= 0.821 mean= 0.416
 gam= 3.141 g(H,U,f)=  0.380E-04 0.741E-04 0.659E-04 ort(H,U,f) =-0.137E-04 0.230E-04-0.811E-05
CGA: 181    -0.222739397351E+03   -0.23335E-04   -0.23500E-04  5760   0.178E-03 0.118E-05
 gam= 3.141 trial= 0.436  step= 0.181 mean= 0.436
 gam= 0.758 g(H,U,f)=  0.533E-04 0.648E-04 0.170E-04 ort(H,U,f) =-0.484E-04 0.706E-04-0.197E-04
CGA: 182    -0.222739414173E+03   -0.16822E-04   -0.16441E-04  5760   0.135E-03 0.255E-05
 gam= 0.758 trial= 0.423  step= 0.677 mean= 0.423
 gam= 0.949 g(H,U,f)=  0.747E-04 0.526E-04 0.780E-06 ort(H,U,f) =-0.543E-04 0.526E-04-0.243E-06
CGA: 183    -0.222739460225E+03   -0.46053E-04   -0.46398E-04  5760   0.128E-03-0.192E-05
 gam= 0.949 trial= 0.436  step= 0.856 mean= 0.436
 gam= 0.000 g(H,U,f)=  0.941E-04 0.117E-03 0.494E-04 ort(H,U,f) =-0.295E-04 0.375E-04-0.439E-05
SDA: 184    -0.222739513079E+03   -0.52853E-04   -0.54015E-04  5760   0.260E-03 0.367E-05
 gam= 0.000 trial= 0.457  step= 0.105 mean= 0.457
 gam= 0.432 g(H,U,f)=  0.578E-04 0.499E-04 0.454E-05 ort(H,U,f) = 0.606E-04 0.117E-04-0.150E-04
CGA: 185    -0.222739532249E+03   -0.19170E-04   -0.13677E-04  5760   0.112E-03 0.573E-04
 gam= 0.432 trial= 0.439  step= 0.334 mean= 0.439
 gam= 0.982 g(H,U,f)=  0.303E-04 0.551E-04 0.249E-04 ort(H,U,f) = 0.113E-04-0.325E-05-0.608E-05
CGA: 186    -0.222739554987E+03   -0.22738E-04   -0.22920E-04  5760   0.110E-03 0.200E-05
 gam= 0.982 trial= 0.434  step= 0.142 mean= 0.434
 gam= 0.924 g(H,U,f)=  0.315E-04 0.586E-04 0.117E-04 ort(H,U,f) = 0.109E-04 0.448E-05-0.130E-04
CGA: 187    -0.222739563175E+03   -0.81881E-05   -0.79564E-05  5760   0.102E-03 0.236E-05
 gam= 0.924 trial= 0.420  step= 0.347 mean= 0.420
 gam= 1.038 g(H,U,f)=  0.310E-04 0.474E-04 0.273E-04 ort(H,U,f) =-0.203E-04 0.198E-04-0.410E-06
CGA: 188    -0.222739581237E+03   -0.18063E-04   -0.18036E-04  5760   0.106E-03-0.861E-06
 gam= 1.038 trial= 0.416  step= 0.109 mean= 0.416
 gam= 0.514 g(H,U,f)=  0.267E-04 0.236E-04 0.402E-05 ort(H,U,f) =-0.122E-04 0.258E-04-0.100E-04
CGA: 189    -0.222739587234E+03   -0.59963E-05   -0.57094E-05  5760   0.544E-04 0.352E-05
 gam= 0.514 trial= 0.401  step= 0.342 mean= 0.401
 gam= 1.339 g(H,U,f)=  0.199E-04 0.321E-04 0.208E-04 ort(H,U,f) =-0.760E-05 0.106E-04-0.305E-05
CGA: 190    -0.222739596848E+03   -0.96140E-05   -0.96163E-05  5760   0.728E-04-0.794E-07
 gam= 1.339 trial= 0.398  step= 0.111 mean= 0.398
 gam= 0.475 g(H,U,f)=  0.177E-04 0.149E-04 0.200E-05 ort(H,U,f) =-0.748E-05 0.149E-04-0.525E-05
CGA: 191    -0.222739601108E+03   -0.42601E-05   -0.40222E-05  5760   0.346E-04 0.214E-05
 gam= 0.475 trial= 0.383  step= 0.406 mean= 0.383
 gam= 2.226 g(H,U,f)=  0.134E-04 0.328E-04 0.307E-04 ort(H,U,f) =-0.387E-05 0.540E-05-0.190E-05
CGA: 192    -0.222739608331E+03   -0.72233E-05   -0.72292E-05  5760   0.770E-04-0.366E-06
 gam= 2.226 trial= 0.384  step= 0.112 mean= 0.384
 gam= 0.324 g(H,U,f)=  0.130E-04 0.120E-04 0.303E-07 ort(H,U,f) =-0.182E-04 0.203E-04-0.593E-06
CGA: 193    -0.222739612975E+03   -0.46434E-05   -0.42631E-05  5760   0.250E-04 0.154E-05
 gam= 0.324 trial= 0.371  step= 0.309 mean= 0.371
 gam= 2.499 g(H,U,f)=  0.117E-04 0.254E-04 0.253E-04 ort(H,U,f) =-0.145E-06 0.869E-05-0.715E-05
CGA: 194    -0.222739616898E+03   -0.39238E-05   -0.39324E-05  5760   0.624E-04 0.139E-05
 gam= 2.499 trial= 0.368  step= 0.169 mean= 0.368
 gam= 0.417 g(H,U,f)=  0.124E-04 0.132E-04 0.428E-06 ort(H,U,f) =-0.167E-04 0.161E-04 0.971E-06
CGA: 195    -0.222739622483E+03   -0.55847E-05   -0.55553E-05  5760   0.260E-04 0.356E-06
 gam= 0.417 trial= 0.358  step= 0.295 mean= 0.358
 gam= 2.551 g(H,U,f)=  0.133E-04 0.298E-04 0.233E-04 ort(H,U,f) =-0.200E-05 0.858E-05-0.608E-05
CGA: 196    -0.222739626356E+03   -0.38730E-05   -0.38582E-05  5760   0.664E-04 0.497E-06
 gam= 2.551 trial= 0.355  step= 0.218 mean= 0.355
 gam= 0.511 g(H,U,f)=  0.168E-04 0.161E-04 0.101E-05 ort(H,U,f) =-0.243E-04 0.217E-04 0.150E-05
CGA: 197    -0.222739633839E+03   -0.74833E-05   -0.73611E-05  5760   0.339E-04-0.104E-05
 gam= 0.511 trial= 0.348  step= 0.254 mean= 0.348
 gam= 2.082 g(H,U,f)=  0.183E-04 0.288E-04 0.235E-04 ort(H,U,f) =-0.323E-05 0.127E-04-0.849E-05
CGA: 198    -0.222739638092E+03   -0.42531E-05   -0.42476E-05  5760   0.706E-04 0.994E-06
 gam= 2.082 trial= 0.343  step= 0.239 mean= 0.343
 gam= 0.504 g(H,U,f)=  0.198E-04 0.151E-04 0.618E-06 ort(H,U,f) =-0.236E-04 0.229E-04 0.773E-06
CGA: 199    -0.222739646829E+03   -0.87369E-05   -0.86888E-05  5760   0.356E-04-0.596E-08
 gam= 0.504 trial= 0.338  step= 0.296 mean= 0.338
 gam= 2.219 g(H,U,f)=  0.203E-04 0.297E-04 0.289E-04 ort(H,U,f) =-0.236E-05 0.105E-04-0.722E-05
CGA: 200    -0.222739652106E+03   -0.52767E-05   -0.52753E-05  5760   0.790E-04 0.968E-06
 gam= 2.219 trial= 0.336  step= 0.216 mean= 0.336
 gam= 0.432 g(H,U,f)=  0.205E-04 0.136E-04 0.727E-07 ort(H,U,f) =-0.207E-04 0.197E-04-0.143E-06
CGA: 201    -0.222739661067E+03   -0.89609E-05   -0.87587E-05  5760   0.341E-04-0.116E-05
 gam= 0.432 trial= 0.330  step= 0.458 mean= 0.330
 gam= 2.356 g(H,U,f)=  0.170E-04 0.310E-04 0.325E-04 ort(H,U,f) =-0.377E-05 0.892E-05-0.588E-05
CGA: 202    -0.222739668667E+03   -0.76003E-05   -0.77014E-05  5760   0.804E-04-0.723E-06
 gam= 2.356 trial= 0.336  step= 0.137 mean= 0.336
 gam= 0.361 g(H,U,f)=  0.167E-04 0.122E-04 0.200E-06 ort(H,U,f) =-0.174E-04 0.185E-04-0.129E-05
CGA: 203    -0.222739674388E+03   -0.57208E-05   -0.54124E-05  5760   0.290E-04-0.231E-06
 gam= 0.361 trial= 0.326  step= 0.466 mean= 0.326
 gam= 1.860 g(H,U,f)=  0.138E-04 0.202E-04 0.199E-04 ort(H,U,f) =-0.208E-05 0.631E-05-0.334E-05
CGA: 204    -0.222739681156E+03   -0.67683E-05   -0.67386E-05  5760   0.540E-04 0.884E-06
 gam= 1.860 trial= 0.333  step= 0.134 mean= 0.333
 gam= 0.514 g(H,U,f)=  0.129E-04 0.139E-04 0.104E-05 ort(H,U,f) =-0.507E-05 0.897E-05-0.293E-05
CGA: 205    -0.222739685036E+03   -0.38791E-05   -0.37241E-05  5760   0.278E-04 0.964E-06
 gam= 0.514 trial= 0.323  step= 0.520 mean= 0.323
 gam= 1.287 g(H,U,f)=  0.131E-04 0.148E-04 0.783E-05 ort(H,U,f) =-0.748E-05 0.935E-05-0.151E-05
CGA: 206    -0.222739692392E+03   -0.73563E-05   -0.73412E-05  5760   0.357E-04 0.359E-06
 gam= 1.287 trial= 0.333  step= 0.143 mean= 0.333
 gam= 0.776 g(H,U,f)=  0.121E-04 0.114E-04 0.433E-05 ort(H,U,f) =-0.481E-05 0.943E-05-0.428E-05
CGA: 207    -0.222739695055E+03   -0.26627E-05   -0.25843E-05  5760   0.277E-04 0.340E-06
 gam= 0.776 trial= 0.324  step= 0.476 mean= 0.324
 gam= 1.151 g(H,U,f)=  0.143E-04 0.151E-04 0.249E-05 ort(H,U,f) =-0.775E-05 0.529E-05 0.651E-06
CGA: 208    -0.222739701582E+03   -0.65276E-05   -0.66652E-05  5760   0.319E-04-0.181E-05
 gam= 1.151 trial= 0.331  step= 0.227 mean= 0.331
 gam= 1.490 g(H,U,f)=  0.131E-04 0.208E-04 0.137E-04 ort(H,U,f) =-0.186E-05 0.107E-04-0.777E-05
CGA: 209    -0.222739705029E+03   -0.34464E-05   -0.33932E-05  5760   0.476E-04 0.111E-05
 gam= 1.490 trial= 0.326  step= 0.241 mean= 0.326
 gam= 0.358 g(H,U,f)=  0.110E-04 0.591E-05 0.133E-06 ort(H,U,f) =-0.134E-04 0.138E-04 0.294E-06
CGA: 210    -0.222739710919E+03   -0.58904E-05   -0.59300E-05  5760   0.170E-04 0.782E-06
 gam= 0.358 trial= 0.322  step= 0.448 mean= 0.322
 gam= 2.476 g(H,U,f)=  0.102E-04 0.175E-04 0.145E-04 ort(H,U,f) =-0.213E-06 0.282E-05-0.207E-05
CGA: 211    -0.222739714828E+03   -0.39088E-05   -0.38829E-05  5760   0.422E-04 0.533E-06
 gam= 2.476 trial= 0.328  step= 0.176 mean= 0.328
 gam= 0.501 g(H,U,f)=  0.927E-05 0.106E-04 0.124E-05 ort(H,U,f) =-0.535E-05 0.845E-05-0.265E-05
CGA: 212    -0.222739718805E+03   -0.39778E-05   -0.38243E-05  5760   0.211E-04 0.447E-06
 gam= 0.501 trial= 0.320  step= 0.502 mean= 0.320
 gam= 0.665 g(H,U,f)=  0.830E-05 0.526E-05 0.506E-06 ort(H,U,f) =-0.678E-05 0.633E-05-0.408E-07
CGA: 213    -0.222739724126E+03   -0.53205E-05   -0.53591E-05  5760   0.141E-04-0.486E-06
 gam= 0.665 trial= 0.330  step= 0.362 mean= 0.330
 gam= 1.959 g(H,U,f)=  0.819E-05 0.111E-04 0.831E-05 ort(H,U,f) =-0.591E-06 0.245E-05-0.180E-05
CGA: 214    -0.222739726614E+03   -0.24881E-05   -0.24878E-05  5760   0.276E-04 0.601E-07
 gam= 1.959 trial= 0.331  step= 0.200 mean= 0.331
 gam= 0.000 g(H,U,f)=  0.750E-05 0.602E-05 0.130E-05 ort(H,U,f) =-0.326E-05 0.554E-05-0.191E-05
SDA: 215    -0.222739729461E+03   -0.28473E-05   -0.27650E-05  5760   0.148E-04 0.373E-06
 gam= 0.000 trial= 0.325  step= 0.267 mean= 0.325
 gam= 1.113 g(H,U,f)=  0.348E-05 0.710E-05 0.591E-05 ort(H,U,f) = 0.291E-05 0.145E-06-0.276E-05
CGA: 216    -0.222739731451E+03   -0.19897E-05   -0.19774E-05  5760   0.165E-04 0.296E-06
 gam= 1.113 trial= 0.322  step= 0.165 mean= 0.322
 gam= 0.398 g(H,U,f)=  0.245E-05 0.377E-05 0.343E-06 ort(H,U,f) = 0.130E-05-0.668E-06-0.673E-06
CGA: 217    -0.222739732876E+03   -0.14247E-05   -0.13851E-05  5760   0.657E-05-0.376E-07
 gam= 0.398 trial= 0.314  step= 0.707 mean= 0.314
 gam= 0.899 g(H,U,f)=  0.274E-05 0.313E-05 0.321E-07 ort(H,U,f) =-0.164E-05 0.138E-05-0.201E-07
CGA: 218    -0.222739735140E+03   -0.22646E-05   -0.23181E-05  5760   0.591E-05-0.274E-06
 gam= 0.899 trial= 0.334  step= 0.636 mean= 0.334
 gam= 0.807 g(H,U,f)=  0.251E-05 0.223E-05 0.279E-07 ort(H,U,f) =-0.176E-05 0.180E-05-0.766E-08
CGA: 219    -0.222739736946E+03   -0.18058E-05   -0.18002E-05  5760   0.477E-05 0.325E-07
 gam= 0.807 trial= 0.349  step= 0.826 mean= 0.349
 gam= 2.518 g(H,U,f)=  0.329E-05 0.496E-05 0.375E-05 ort(H,U,f) =-0.153E-05 0.166E-05-0.246E-06
CGA: 220    -0.222739738884E+03   -0.19378E-05   -0.19796E-05  5760   0.120E-04-0.111E-06
 gam= 2.518 trial= 0.373  step= 0.159 mean= 0.373
 gam= 0.709 g(H,U,f)=  0.373E-05 0.351E-05 0.126E-05 ort(H,U,f) =-0.284E-05 0.496E-05-0.179E-05
CGA: 221    -0.222739739858E+03   -0.97446E-06   -0.93363E-06  5760   0.850E-05 0.341E-06
 gam= 0.709 trial= 0.362  step= 0.564 mean= 0.362
 gam= 0.936 g(H,U,f)=  0.411E-05 0.375E-05 0.102E-06 ort(H,U,f) =-0.255E-05 0.279E-05-0.355E-07
CGA: 222    -0.222739742347E+03   -0.24882E-05   -0.24673E-05  5760   0.796E-05 0.201E-06
 gam= 0.936 trial= 0.372  step= 0.659 mean= 0.372
 gam= 2.272 g(H,U,f)=  0.435E-05 0.790E-05 0.585E-05 ort(H,U,f) =-0.202E-05 0.260E-05-0.645E-06
CGA: 223    -0.222739744994E+03   -0.26476E-05   -0.26871E-05  5760   0.181E-04-0.664E-07
 gam= 2.272 trial= 0.386  step= 0.141 mean= 0.386
 gam= 0.531 g(H,U,f)=  0.481E-05 0.387E-05 0.926E-06 ort(H,U,f) =-0.410E-05 0.613E-05-0.164E-05
CGA: 224    -0.222739746304E+03   -0.13100E-05   -0.12639E-05  5760   0.961E-05 0.395E-06
 gam= 0.531 trial= 0.374  step= 0.674 mean= 0.374
 gam= 1.200 g(H,U,f)=  0.488E-05 0.535E-05 0.131E-05 ort(H,U,f) =-0.215E-05 0.267E-05-0.284E-07
CGA: 225    -0.222739749694E+03   -0.33896E-05   -0.33099E-05  5760   0.115E-04 0.496E-06
 gam= 1.200 trial= 0.389  step= 0.214 mean= 0.389
 gam= 1.420 g(H,U,f)=  0.462E-05 0.629E-05 0.546E-05 ort(H,U,f) = 0.415E-07 0.326E-05-0.265E-05
CGA: 226    -0.222739751005E+03   -0.13115E-05   -0.12957E-05  5760   0.164E-04 0.645E-06
 gam= 1.420 trial= 0.380  step= 0.325 mean= 0.380
 gam= 0.492 g(H,U,f)=  0.456E-05 0.349E-05 0.346E-08 ort(H,U,f) =-0.359E-05 0.371E-05-0.109E-07
CGA: 227    -0.222739753815E+03   -0.28094E-05   -0.28083E-05  5760   0.805E-05 0.111E-06
 gam= 0.492 trial= 0.377  step= 0.564 mean= 0.377
 gam= 1.872 g(H,U,f)=  0.334E-05 0.611E-05 0.562E-05 ort(H,U,f) =-0.707E-06 0.188E-05-0.819E-06
CGA: 228    -0.222739756125E+03   -0.23101E-05   -0.22854E-05  5760   0.151E-04 0.351E-06
 gam= 1.872 trial= 0.387  step= 0.132 mean= 0.387
 gam= 0.403 g(H,U,f)=  0.304E-05 0.242E-05 0.615E-06 ort(H,U,f) =-0.141E-05 0.340E-05-0.138E-05
CGA: 229    -0.222739757242E+03   -0.11177E-05   -0.10405E-05  5760   0.607E-05 0.609E-06
 gam= 0.403 trial= 0.374  step= 0.648 mean= 0.374
 gam= 0.783 g(H,U,f)=  0.232E-05 0.223E-05 0.209E-06 ort(H,U,f) =-0.118E-05 0.101E-05 0.481E-07
CGA: 230    -0.222739759274E+03   -0.20317E-05   -0.20479E-05  5760   0.476E-05-0.121E-06
 gam= 0.783 trial= 0.388  step= 0.431 mean= 0.388
 gam= 2.217 g(H,U,f)=  0.208E-05 0.463E-05 0.384E-05 ort(H,U,f) =-0.204E-06 0.126E-05-0.992E-06
CGA: 231    -0.222739760277E+03   -0.10029E-05   -0.10060E-05  5760   0.106E-04 0.666E-07
 gam= 2.217 trial= 0.390  step= 0.158 mean= 0.390
 gam= 0.277 g(H,U,f)=  0.162E-05 0.117E-05 0.136E-06 ort(H,U,f) =-0.216E-05 0.253E-05-0.320E-06
CGA: 232    -0.222739761158E+03   -0.88152E-06   -0.84379E-06  5760   0.293E-05 0.537E-07
 gam= 0.277 trial= 0.378  step= 0.793 mean= 0.378
 gam= 1.106 g(H,U,f)=  0.159E-05 0.161E-05 0.372E-07 ort(H,U,f) =-0.709E-06 0.498E-06 0.195E-07
CGA: 233    -0.222739762285E+03   -0.11264E-05   -0.11663E-05  5760   0.324E-05-0.192E-06
 gam= 1.106 trial= 0.399  step= 0.472 mean= 0.399
 gam= 1.556 g(H,U,f)=  0.122E-05 0.195E-05 0.186E-05 ort(H,U,f) =-0.436E-06 0.932E-06-0.429E-06
CGA: 234    -0.222739762998E+03   -0.71323E-06   -0.71320E-06  5760   0.504E-05 0.677E-07
 gam= 1.556 trial= 0.403  step= 0.149 mean= 0.403
 final diagonalization
   1 F= -.23271515E+03 E0= -.23270947E+03  d E =-.113435E-01  mag=     6.0000
