       N       E                     dE             d eps       ncg     rms          ort
DAV:   1     0.348721001158E+04    0.34872E+04   -0.13952E+05  5760   0.219E+03
DAV:   2     0.400114867354E+03   -0.30871E+04   -0.28426E+04  5760   0.535E+02
DAV:   3    -0.222317431452E+03   -0.62243E+03   -0.56768E+03  5760   0.254E+02
DAV:   4    -0.271900391539E+03   -0.49583E+02   -0.48587E+02  5760   0.738E+01
DAV:   5    -0.273647366091E+03   -0.17470E+01   -0.17436E+01  5760   0.137E+01
SDA:   6     0.158382314287E+03    0.43203E+03   -0.17436E+01  5760   0.299E+04 0.000E+00
CGA:   7     0.700991830626E+02   -0.88283E+02   -0.82024E+02  5760   0.328E+04 0.144E+04
CGA:   8    -0.547116946081E+02   -0.12481E+03   -0.20942E+03  5760   0.351E+04 0.723E+03
CGA:   9    -0.134078492495E+03   -0.79367E+02   -0.90595E+02  5760   0.667E+03 0.167E+04
CGA:  10    -0.156948174958E+03   -0.22870E+02   -0.34230E+02  5760   0.777E+03-0.200E+03
CGA:  11    -0.153333688860E+03    0.36145E+01   -0.93887E+01  5760   0.606E+03 0.226E+03
CGA:  12    -0.157401374795E+03   -0.40677E+01   -0.17124E+02  5760   0.319E+03-0.984E+01
CGA:  13    -0.170250128001E+03   -0.12849E+02   -0.15707E+02  5760   0.695E+03-0.553E+01
CGA:  14    -0.175154064813E+03   -0.49039E+01   -0.25545E+02  5760   0.375E+03 0.318E+03
CGA:  15    -0.183361458973E+03   -0.82074E+01   -0.23017E+02  5760   0.467E+03-0.154E+03
CGA:  16    -0.174506443346E+03    0.88550E+01   -0.70473E+01  5760   0.409E+03 0.109E+03
CGA:  17    -0.175452298200E+03   -0.94585E+00   -0.14768E+02  5760   0.206E+03 0.659E+01
CGA:  18    -0.182908201772E+03   -0.74559E+01   -0.92953E+01  5760   0.244E+03 0.737E+01
CGA:  19    -0.190194767406E+03   -0.72866E+01   -0.11160E+02  5760   0.108E+03-0.109E+02
CGA:  20    -0.195183972755E+03   -0.49892E+01   -0.59074E+01  5760   0.934E+02-0.258E+01
CGA:  21    -0.202435522001E+03   -0.72515E+01   -0.74740E+01  5760   0.528E+02 0.858E+00
CGA:  22    -0.206013985900E+03   -0.35785E+01   -0.33010E+01  5760   0.450E+02 0.115E+01
CGA:  23    -0.209883802786E+03   -0.38698E+01   -0.39319E+01  5760   0.347E+02 0.951E+00
CGA:  24    -0.212115548738E+03   -0.22317E+01   -0.24838E+01  5760   0.260E+02 0.458E+00
CGA:  25    -0.214306261079E+03   -0.21907E+01   -0.22247E+01  5760   0.166E+02 0.100E+01
CGA:  26    -0.215671666671E+03   -0.13654E+01   -0.13619E+01  5760   0.159E+02 0.899E+00
CGA:  27    -0.216971967467E+03   -0.13003E+01   -0.13441E+01  5760   0.125E+02 0.939E+00
CGA:  28    -0.217835887759E+03   -0.86392E+00   -0.91930E+00  5760   0.893E+01 0.947E+00
CGA:  29    -0.218662212333E+03   -0.82632E+00   -0.83935E+00  5760   0.760E+01 0.110E+01
CGA:  30    -0.219228532358E+03   -0.56632E+00   -0.58565E+00  5760   0.677E+01 0.270E+00
CGA:  31    -0.219749585016E+03   -0.52105E+00   -0.52593E+00  5760   0.436E+01 0.681E-01
CGA:  32    -0.220178546898E+03   -0.42896E+00   -0.42904E+00  5760   0.425E+01 0.262E-01
CGA:  33    -0.220432235405E+03   -0.25369E+00   -0.25570E+00  5760   0.287E+01 0.208E-01
CGA:  34    -0.220721967625E+03   -0.28973E+00   -0.28965E+00  5760   0.226E+01 0.342E-01
CGA:  35    -0.220904363140E+03   -0.18240E+00   -0.18392E+00  5760   0.227E+01 0.615E-01
CGA:  36    -0.221099391753E+03   -0.19503E+00   -0.19618E+00  5760   0.147E+01 0.802E-01
SDA:  37    -0.221249932902E+03   -0.15054E+00   -0.15028E+00  5760   0.157E+01 0.732E-01
CGA:  38    -0.221416365708E+03   -0.16643E+00   -0.16513E+00  5760   0.186E+01 0.836E-01
CGA:  39    -0.221659227112E+03   -0.24286E+00   -0.24318E+00  5760   0.751E+00-0.788E-02
CGA:  40    -0.221784820150E+03   -0.12559E+00   -0.12454E+00  5760   0.303E+00 0.142E-01
CGA:  41    -0.221811319163E+03   -0.26499E-01   -0.26408E-01  5760   0.251E+00-0.167E-02
CGA:  42    -0.221906433780E+03   -0.95115E-01   -0.92646E-01  5760   0.350E+00 0.909E-02
CGA:  43    -0.221968932676E+03   -0.62499E-01   -0.61420E-01  5760   0.285E+00 0.151E-01
CGA:  44    -0.221995807149E+03   -0.26874E-01   -0.25467E-01  5760   0.210E+00-0.514E-02
CGA:  45    -0.222065774984E+03   -0.69968E-01   -0.69583E-01  5760   0.254E+00-0.395E-02
CGA:  46    -0.222135777477E+03   -0.70002E-01   -0.76444E-01  5760   0.430E+00-0.293E-01
CGA:  47    -0.222160185860E+03   -0.24408E-01   -0.25504E-01  5760   0.315E+00-0.107E-01
CGA:  48    -0.222198970455E+03   -0.38785E-01   -0.38851E-01  5760   0.193E+00-0.197E-01
CGA:  49    -0.222214933175E+03   -0.15963E-01   -0.16220E-01  5760   0.260E+00-0.171E-02
CGA:  50    -0.222247619507E+03   -0.32686E-01   -0.32677E-01  5760   0.959E-01-0.439E-02
CGA:  51    -0.222267225671E+03   -0.19606E-01   -0.19639E-01  5760   0.674E-01-0.472E-03
CGA:  52    -0.222282312497E+03   -0.15087E-01   -0.14800E-01  5760   0.147E+00-0.862E-03
CGA:  53    -0.222292075061E+03   -0.97626E-02   -0.10259E-01  5760   0.478E-01-0.263E-03
CGA:  54    -0.222303932636E+03   -0.11858E-01   -0.11586E-01  5760   0.453E-01 0.172E-02
CGA:  55    -0.222315055495E+03   -0.11123E-01   -0.11151E-01  5760   0.926E-01-0.224E-02
CGA:  56    -0.222321969254E+03   -0.69138E-02   -0.71731E-02  5760   0.546E-01-0.427E-03
CGA:  57    -0.222332982580E+03   -0.11013E-01   -0.11056E-01  5760   0.437E-01-0.417E-03
CGA:  58    -0.222343961853E+03   -0.10979E-01   -0.10789E-01  5760   0.332E-01 0.131E-02
CGA:  59    -0.222354472088E+03   -0.10510E-01   -0.10643E-01  5760   0.460E-01-0.851E-03
CGA:  60    -0.222359296935E+03   -0.48248E-02   -0.49873E-02  5760   0.538E-01-0.695E-03
CGA:  61    -0.222365406530E+03   -0.61096E-02   -0.59436E-02  5760   0.329E-01-0.601E-03
CGA:  62    -0.222371204585E+03   -0.57981E-02   -0.57607E-02  5760   0.320E-01 0.800E-03
CGA:  63    -0.222374858491E+03   -0.36539E-02   -0.36222E-02  5760   0.366E-01-0.595E-03
CGA:  64    -0.222379125928E+03   -0.42674E-02   -0.43012E-02  5760   0.206E-01-0.215E-03
CGA:  65    -0.222384502989E+03   -0.53771E-02   -0.54161E-02  5760   0.311E-01-0.101E-02
CGA:  66    -0.222387076717E+03   -0.25737E-02   -0.25049E-02  5760   0.252E-01 0.430E-03
CGA:  67    -0.222390730826E+03   -0.36541E-02   -0.36735E-02  5760   0.157E-01 0.201E-03
SDA:  68    -0.222394456706E+03   -0.37259E-02   -0.37826E-02  5760   0.193E-01-0.459E-03
CGA:  69    -0.222396153881E+03   -0.16972E-02   -0.17363E-02  5760   0.221E-01-0.492E-04
CGA:  70    -0.222398484735E+03   -0.23309E-02   -0.24342E-02  5760   0.107E-01 0.723E-03
CGA:  71    -0.222401329492E+03   -0.28448E-02   -0.27795E-02  5760   0.233E-01 0.102E-04
CGA:  72    -0.222403344487E+03   -0.20150E-02   -0.20610E-02  5760   0.237E-01 0.127E-02
CGA:  73    -0.222406542533E+03   -0.31980E-02   -0.32996E-02  5760   0.930E-02 0.181E-02
CGA:  74    -0.222408669991E+03   -0.21275E-02   -0.21281E-02  5760   0.256E-01-0.610E-03
CGA:  75    -0.222410590347E+03   -0.19204E-02   -0.18975E-02  5760   0.120E-01-0.182E-03
CGA:  76    -0.222413173496E+03   -0.25831E-02   -0.25384E-02  5760   0.208E-01 0.107E-02
CGA:  77    -0.222414560761E+03   -0.13873E-02   -0.14095E-02  5760   0.117E-01 0.601E-03
CGA:  78    -0.222417330143E+03   -0.27694E-02   -0.27474E-02  5760   0.275E-01-0.951E-03
CGA:  79    -0.222419335627E+03   -0.20055E-02   -0.20436E-02  5760   0.193E-01-0.275E-02
CGA:  80    -0.222423231961E+03   -0.38963E-02   -0.44603E-02  5760   0.283E-01-0.302E-02
CGA:  81    -0.222426414345E+03   -0.31824E-02   -0.32928E-02  5760   0.333E-01 0.595E-02
CGA:  82    -0.222430721591E+03   -0.43072E-02   -0.47638E-02  5760   0.187E-01 0.317E-02
CGA:  83    -0.222434004136E+03   -0.32825E-02   -0.33126E-02  5760   0.379E-01-0.258E-02
CGA:  84    -0.222437247631E+03   -0.32435E-02   -0.33137E-02  5760   0.278E-01 0.188E-03
CGA:  85    -0.222441610645E+03   -0.43630E-02   -0.43310E-02  5760   0.678E-01 0.436E-02
CGA:  86    -0.222444517774E+03   -0.29071E-02   -0.15898E-02  5760   0.449E-01 0.721E-01
CGA:  87    -0.222447466821E+03   -0.29490E-02   -0.28993E-02  5760   0.408E-01 0.830E-03
CGA:  88    -0.222453507327E+03   -0.60405E-02   -0.60362E-02  5760   0.242E-01 0.459E-03
CGA:  89    -0.222462828364E+03   -0.93210E-02   -0.97882E-02  5760   0.627E-01-0.247E-02
CGA:  90    -0.222473214264E+03   -0.10386E-01   -0.10145E-01  5760   0.144E+00 0.264E-02
CGA:  91    -0.222477864033E+03   -0.46498E-02   -0.25356E-02  5760   0.170E+00 0.139E+00
CGA:  92    -0.222494071152E+03   -0.16207E-01   -0.16847E-01  5760   0.135E+00 0.334E-02
CGA:  93    -0.222501410257E+03   -0.73391E-02   -0.68504E-02  5760   0.103E+00-0.142E-02
CGA:  94    -0.222527471823E+03   -0.26062E-01   -0.25730E-01  5760   0.260E+00 0.138E-02
CGA:  95    -0.222551128100E+03   -0.23656E-01   -0.23312E-01  5760   0.248E+00 0.440E-01
CGA:  96    -0.222571582321E+03   -0.20454E-01   -0.16958E-01  5760   0.270E+00 0.570E-01
CGA:  97    -0.222586992466E+03   -0.15410E-01   -0.17654E-01  5760   0.285E+00 0.141E-01
CGA:  98    -0.222602905719E+03   -0.15913E-01   -0.16322E-01  5760   0.341E+00-0.222E-02
CGA:  99    -0.222622240784E+03   -0.19335E-01   -0.20022E-01  5760   0.393E+00-0.220E-01
CGA: 100    -0.222643070020E+03   -0.20829E-01   -0.18708E-01  5760   0.222E+00-0.854E-02
CGA: 101    -0.222653518861E+03   -0.10449E-01   -0.10520E-01  5760   0.138E+00 0.248E-01
CGA: 102    -0.222666341782E+03   -0.12823E-01   -0.12613E-01  5760   0.123E+00-0.231E-02
CGA: 103    -0.222674652637E+03   -0.83109E-02   -0.83395E-02  5760   0.124E+00 0.134E-02
CGA: 104    -0.222683469027E+03   -0.88164E-02   -0.88036E-02  5760   0.847E-01 0.116E-03
CGA: 105    -0.222688669434E+03   -0.52004E-02   -0.50784E-02  5760   0.622E-01 0.825E-03
CGA: 106    -0.222693521271E+03   -0.48518E-02   -0.48677E-02  5760   0.549E-01 0.947E-03
CGA: 107    -0.222697150692E+03   -0.36294E-02   -0.36065E-02  5760   0.447E-01 0.111E-03
CGA: 108    -0.222700556551E+03   -0.34059E-02   -0.34088E-02  5760   0.392E-01-0.603E-04
CGA: 109    -0.222703063853E+03   -0.25073E-02   -0.24834E-02  5760   0.310E-01 0.444E-03
CGA: 110    -0.222705908681E+03   -0.28448E-02   -0.28392E-02  5760   0.320E-01-0.559E-03
CGA: 111    -0.222708103603E+03   -0.21949E-02   -0.21171E-02  5760   0.238E-01 0.218E-03
CGA: 112    -0.222710031522E+03   -0.19279E-02   -0.19355E-02  5760   0.211E-01 0.917E-03
CGA: 113    -0.222711754619E+03   -0.17231E-02   -0.16914E-02  5760   0.208E-01-0.285E-03
CGA: 114    -0.222713585083E+03   -0.18305E-02   -0.18319E-02  5760   0.232E-01 0.349E-03
CGA: 115    -0.222715111746E+03   -0.15267E-02   -0.15153E-02  5760   0.161E-01 0.486E-04
CGA: 116    -0.222716316789E+03   -0.12050E-02   -0.12070E-02  5760   0.130E-01 0.655E-04
CGA: 117    -0.222717200163E+03   -0.88337E-03   -0.87426E-03  5760   0.102E-01 0.405E-05
CGA: 118    -0.222718142561E+03   -0.94240E-03   -0.94244E-03  5760   0.117E-01 0.484E-04
CGA: 119    -0.222718974986E+03   -0.83243E-03   -0.82752E-03  5760   0.919E-02-0.332E-04
CGA: 120    -0.222719782174E+03   -0.80719E-03   -0.80726E-03  5760   0.945E-02 0.264E-04
CGA: 121    -0.222720489214E+03   -0.70704E-03   -0.70444E-03  5760   0.817E-02-0.378E-04
SDA: 122    -0.222721244863E+03   -0.75565E-03   -0.75562E-03  5760   0.900E-02 0.384E-04
CGA: 123    -0.222722289514E+03   -0.10447E-02   -0.10473E-02  5760   0.928E-02 0.681E-04
CGA: 124    -0.222723174750E+03   -0.88524E-03   -0.88573E-03  5760   0.338E-02-0.108E-03
CGA: 125    -0.222724119746E+03   -0.94500E-03   -0.94871E-03  5760   0.174E-02-0.190E-04
CGA: 126    -0.222724743569E+03   -0.62382E-03   -0.63548E-03  5760   0.565E-02-0.156E-04
CGA: 127    -0.222725214570E+03   -0.47100E-03   -0.46522E-03  5760   0.260E-02-0.186E-05
CGA: 128    -0.222726255494E+03   -0.10409E-02   -0.10709E-02  5760   0.294E-02-0.772E-04
CGA: 129    -0.222726868824E+03   -0.61333E-03   -0.61725E-03  5760   0.542E-02 0.460E-05
CGA: 130    -0.222727407367E+03   -0.53854E-03   -0.52861E-03  5760   0.370E-02 0.109E-05
CGA: 131    -0.222728688822E+03   -0.12815E-02   -0.12903E-02  5760   0.349E-02-0.273E-04
CGA: 132    -0.222729314923E+03   -0.62610E-03   -0.63054E-03  5760   0.810E-02-0.663E-05
CGA: 133    -0.222730439392E+03   -0.11245E-02   -0.11242E-02  5760   0.448E-02-0.216E-04
CGA: 134    -0.222731996383E+03   -0.15570E-02   -0.15641E-02  5760   0.549E-02-0.334E-04
CGA: 135    -0.222732721026E+03   -0.72464E-03   -0.72503E-03  5760   0.868E-02 0.921E-05
CGA: 136    -0.222733942927E+03   -0.12219E-02   -0.12214E-02  5760   0.249E-02-0.158E-04
CGA: 137    -0.222734752078E+03   -0.80915E-03   -0.80870E-03  5760   0.396E-02 0.737E-05
CGA: 138    -0.222735055588E+03   -0.30351E-03   -0.30133E-03  5760   0.208E-02 0.129E-04
CGA: 139    -0.222735484940E+03   -0.42935E-03   -0.42920E-03  5760   0.122E-02 0.236E-05
CGA: 140    -0.222735825278E+03   -0.34034E-03   -0.34087E-03  5760   0.235E-02-0.521E-06
CGA: 141    -0.222736030395E+03   -0.20512E-03   -0.20537E-03  5760   0.156E-02-0.242E-06
CGA: 142    -0.222736495591E+03   -0.46520E-03   -0.46492E-03  5760   0.110E-02 0.179E-05
CGA: 143    -0.222736788831E+03   -0.29324E-03   -0.29295E-03  5760   0.311E-02 0.234E-05
CGA: 144    -0.222737081681E+03   -0.29285E-03   -0.29279E-03  5760   0.115E-02 0.327E-05
CGA: 145    -0.222737396101E+03   -0.31442E-03   -0.31307E-03  5760   0.613E-03 0.117E-04
CGA: 146    -0.222737481151E+03   -0.85051E-04   -0.84986E-04  5760   0.106E-02-0.122E-05
CGA: 147    -0.222737642420E+03   -0.16127E-03   -0.16120E-03  5760   0.462E-03-0.452E-05
CGA: 148    -0.222737765021E+03   -0.12260E-03   -0.12284E-03  5760   0.364E-03-0.212E-05
CGA: 149    -0.222737815723E+03   -0.50703E-04   -0.50738E-04  5760   0.686E-03 0.174E-05
CGA: 150    -0.222737947803E+03   -0.13208E-03   -0.13206E-03  5760   0.448E-03 0.183E-05
CGA: 151    -0.222738092718E+03   -0.14492E-03   -0.14530E-03  5760   0.529E-03-0.365E-05
CGA: 152    -0.222738163455E+03   -0.70737E-04   -0.70682E-04  5760   0.896E-03 0.299E-05
SDA: 153    -0.222738321353E+03   -0.15790E-03   -0.15788E-03  5760   0.516E-03 0.214E-05
CGA: 154    -0.222738397994E+03   -0.76641E-04   -0.76566E-04  5760   0.539E-03 0.242E-05
CGA: 155    -0.222738440652E+03   -0.42657E-04   -0.42508E-04  5760   0.254E-03 0.106E-05
CGA: 156    -0.222738520653E+03   -0.80002E-04   -0.79765E-04  5760   0.179E-03 0.149E-05
CGA: 157    -0.222738586382E+03   -0.65729E-04   -0.65849E-04  5760   0.169E-03-0.524E-06
CGA: 158    -0.222738625266E+03   -0.38884E-04   -0.38818E-04  5760   0.347E-03 0.299E-05
CGA: 159    -0.222738655364E+03   -0.30099E-04   -0.30127E-04  5760   0.170E-03 0.178E-05
CGA: 160    -0.222738725166E+03   -0.69802E-04   -0.69685E-04  5760   0.157E-03 0.500E-06
CGA: 161    -0.222738783304E+03   -0.58138E-04   -0.58402E-04  5760   0.265E-03-0.152E-05
CGA: 162    -0.222738809871E+03   -0.26567E-04   -0.26318E-04  5760   0.313E-03 0.215E-05
CGA: 163    -0.222738893299E+03   -0.83428E-04   -0.83375E-04  5760   0.137E-03 0.483E-06
CGA: 164    -0.222738944184E+03   -0.50885E-04   -0.51135E-04  5760   0.150E-03-0.132E-05
CGA: 165    -0.222738968956E+03   -0.24773E-04   -0.24751E-04  5760   0.313E-03 0.108E-05
CGA: 166    -0.222739007668E+03   -0.38712E-04   -0.38488E-04  5760   0.887E-04 0.152E-05
CGA: 167    -0.222739041010E+03   -0.33342E-04   -0.33162E-04  5760   0.133E-03 0.148E-05
CGA: 168    -0.222739060710E+03   -0.19700E-04   -0.19651E-04  5760   0.238E-03 0.187E-05
CGA: 169    -0.222739096706E+03   -0.35996E-04   -0.35849E-04  5760   0.109E-03-0.264E-06
CGA: 170    -0.222739144153E+03   -0.47447E-04   -0.46989E-04  5760   0.220E-03 0.174E-05
CGA: 171    -0.222739166497E+03   -0.22345E-04   -0.22109E-04  5760   0.220E-03 0.564E-05
CGA: 172    -0.222739214436E+03   -0.47938E-04   -0.47938E-04  5760   0.135E-03 0.974E-06
CGA: 173    -0.222739249416E+03   -0.34981E-04   -0.35136E-04  5760   0.265E-03-0.100E-06
CGA: 174    -0.222739270651E+03   -0.21235E-04   -0.20891E-04  5760   0.989E-04 0.142E-05
CGA: 175    -0.222739299926E+03   -0.29275E-04   -0.29341E-04  5760   0.754E-04 0.107E-06
CGA: 176    -0.222739312232E+03   -0.12307E-04   -0.12265E-04  5760   0.132E-03 0.976E-06
CGA: 177    -0.222739327319E+03   -0.15087E-04   -0.14868E-04  5760   0.528E-04 0.490E-06
CGA: 178    -0.222739345129E+03   -0.17810E-04   -0.17821E-04  5760   0.737E-04 0.403E-06
CGA: 179    -0.222739353014E+03   -0.78847E-05   -0.77051E-05  5760   0.859E-04 0.173E-05
CGA: 180    -0.222739374015E+03   -0.21001E-04   -0.20985E-04  5760   0.567E-04 0.788E-06
CGA: 181    -0.222739397351E+03   -0.23335E-04   -0.23500E-04  5760   0.178E-03 0.118E-05
CGA: 182    -0.222739414173E+03   -0.16822E-04   -0.16441E-04  5760   0.135E-03 0.255E-05
CGA: 183    -0.222739460225E+03   -0.46053E-04   -0.46398E-04  5760   0.128E-03-0.192E-05
SDA: 184    -0.222739513079E+03   -0.52853E-04   -0.54015E-04  5760   0.260E-03 0.367E-05
CGA: 185    -0.222739532249E+03   -0.19170E-04   -0.13677E-04  5760   0.112E-03 0.573E-04
CGA: 186    -0.222739554987E+03   -0.22738E-04   -0.22920E-04  5760   0.110E-03 0.200E-05
CGA: 187    -0.222739563175E+03   -0.81881E-05   -0.79564E-05  5760   0.102E-03 0.236E-05
CGA: 188    -0.222739581237E+03   -0.18063E-04   -0.18036E-04  5760   0.106E-03-0.861E-06
CGA: 189    -0.222739587234E+03   -0.59963E-05   -0.57094E-05  5760   0.544E-04 0.352E-05
CGA: 190    -0.222739596848E+03   -0.96140E-05   -0.96163E-05  5760   0.728E-04-0.794E-07
CGA: 191    -0.222739601108E+03   -0.42601E-05   -0.40222E-05  5760   0.346E-04 0.214E-05
CGA: 192    -0.222739608331E+03   -0.72233E-05   -0.72292E-05  5760   0.770E-04-0.366E-06
CGA: 193    -0.222739612975E+03   -0.46434E-05   -0.42631E-05  5760   0.250E-04 0.154E-05
CGA: 194    -0.222739616898E+03   -0.39238E-05   -0.39324E-05  5760   0.624E-04 0.139E-05
CGA: 195    -0.222739622483E+03   -0.55847E-05   -0.55553E-05  5760   0.260E-04 0.356E-06
CGA: 196    -0.222739626356E+03   -0.38730E-05   -0.38582E-05  5760   0.664E-04 0.497E-06
CGA: 197    -0.222739633839E+03   -0.74833E-05   -0.73611E-05  5760   0.339E-04-0.104E-05
CGA: 198    -0.222739638092E+03   -0.42531E-05   -0.42476E-05  5760   0.706E-04 0.994E-06
CGA: 199    -0.222739646829E+03   -0.87369E-05   -0.86888E-05  5760   0.356E-04-0.596E-08
CGA: 200    -0.222739652106E+03   -0.52767E-05   -0.52753E-05  5760   0.790E-04 0.968E-06
CGA: 201    -0.222739661067E+03   -0.89609E-05   -0.87587E-05  5760   0.341E-04-0.116E-05
CGA: 202    -0.222739668667E+03   -0.76003E-05   -0.77014E-05  5760   0.804E-04-0.723E-06
CGA: 203    -0.222739674388E+03   -0.57208E-05   -0.54124E-05  5760   0.290E-04-0.231E-06
CGA: 204    -0.222739681156E+03   -0.67683E-05   -0.67386E-05  5760   0.540E-04 0.884E-06
CGA: 205    -0.222739685036E+03   -0.38791E-05   -0.37241E-05  5760   0.278E-04 0.964E-06
CGA: 206    -0.222739692392E+03   -0.73563E-05   -0.73412E-05  5760   0.357E-04 0.359E-06
CGA: 207    -0.222739695055E+03   -0.26627E-05   -0.25843E-05  5760   0.277E-04 0.340E-06
CGA: 208    -0.222739701582E+03   -0.65276E-05   -0.66652E-05  5760   0.319E-04-0.181E-05
CGA: 209    -0.222739705029E+03   -0.34464E-05   -0.33932E-05  5760   0.476E-04 0.111E-05
CGA: 210    -0.222739710919E+03   -0.58904E-05   -0.59300E-05  5760   0.170E-04 0.782E-06
CGA: 211    -0.222739714828E+03   -0.39088E-05   -0.38829E-05  5760   0.422E-04 0.533E-06
CGA: 212    -0.222739718805E+03   -0.39778E-05   -0.38243E-05  5760   0.211E-04 0.447E-06
CGA: 213    -0.222739724126E+03   -0.53205E-05   -0.53591E-05  5760   0.141E-04-0.486E-06
CGA: 214    -0.222739726614E+03   -0.24881E-05   -0.24878E-05  5760   0.276E-04 0.601E-07
SDA: 215    -0.222739729461E+03   -0.28473E-05   -0.27650E-05  5760   0.148E-04 0.373E-06
CGA: 216    -0.222739731451E+03   -0.19897E-05   -0.19774E-05  5760   0.165E-04 0.296E-06
CGA: 217    -0.222739732876E+03   -0.14247E-05   -0.13851E-05  5760   0.657E-05-0.376E-07
CGA: 218    -0.222739735140E+03   -0.22646E-05   -0.23181E-05  5760   0.591E-05-0.274E-06
CGA: 219    -0.222739736946E+03   -0.18058E-05   -0.18002E-05  5760   0.477E-05 0.325E-07
CGA: 220    -0.222739738884E+03   -0.19378E-05   -0.19796E-05  5760   0.120E-04-0.111E-06
CGA: 221    -0.222739739858E+03   -0.97446E-06   -0.93363E-06  5760   0.850E-05 0.341E-06
CGA: 222    -0.222739742347E+03   -0.24882E-05   -0.24673E-05  5760   0.796E-05 0.201E-06
CGA: 223    -0.222739744994E+03   -0.26476E-05   -0.26871E-05  5760   0.181E-04-0.664E-07
CGA: 224    -0.222739746304E+03   -0.13100E-05   -0.12639E-05  5760   0.961E-05 0.395E-06
CGA: 225    -0.222739749694E+03   -0.33896E-05   -0.33099E-05  5760   0.115E-04 0.496E-06
CGA: 226    -0.222739751005E+03   -0.13115E-05   -0.12957E-05  5760   0.164E-04 0.645E-06
CGA: 227    -0.222739753815E+03   -0.28094E-05   -0.28083E-05  5760   0.805E-05 0.111E-06
CGA: 228    -0.222739756125E+03   -0.23101E-05   -0.22854E-05  5760   0.151E-04 0.351E-06
CGA: 229    -0.222739757242E+03   -0.11177E-05   -0.10405E-05  5760   0.607E-05 0.609E-06
CGA: 230    -0.222739759274E+03   -0.20317E-05   -0.20479E-05  5760   0.476E-05-0.121E-06
CGA: 231    -0.222739760277E+03   -0.10029E-05   -0.10060E-05  5760   0.106E-04 0.666E-07
CGA: 232    -0.222739761158E+03   -0.88152E-06   -0.84379E-06  5760   0.293E-05 0.537E-07
CGA: 233    -0.222739762285E+03   -0.11264E-05   -0.11663E-05  5760   0.324E-05-0.192E-06
CGA: 234    -0.222739762998E+03   -0.71323E-06   -0.71320E-06  5760   0.504E-05 0.677E-07
   1 F= -.23271515E+03 E0= -.23270947E+03  d E =-.113435E-01  mag=     6.0000
