 running on   64 total cores
 distrk:  each k-point on   64 cores,    1 groups
 distr:  one band on    4 cores,   16 groups
 using from now: INCAR     
 vasp.5.4.4.18Apr17-6-g9f103f2a35 (build Nov 22 2021 14:44:17) complex          
  
 POSCAR found type information on POSCAR  Li Co O 
 POSCAR found :  3 types and      42 ions
 scaLAPACK will be used
 LDA part: xc-table for Pade appr. of Perdew
 generate k-points for:    6    6    2
 POSCAR, INCAR and KPOINTS ok, starting setup
 FFT: planning ...
 WAVECAR not read
 entering main loop
       N       E                     dE             d eps       ncg     rms          ort
DAV:   1     0.347720764452E+04    0.34772E+04   -0.13904E+05  5760   0.215E+03
DAV:   2     0.418948086147E+03   -0.30583E+04   -0.28207E+04  5760   0.525E+02
DAV:   3    -0.217988903826E+03   -0.63694E+03   -0.58621E+03  5760   0.253E+02
DAV:   4    -0.269850880805E+03   -0.51862E+02   -0.50638E+02  5760   0.743E+01
DAV:   5    -0.271749748359E+03   -0.18989E+01   -0.18949E+01  5760   0.143E+01
 gam= 0.000 g(H,U,f)=  0.179E+04 0.120E+04 0.408E+04 ort(H,U,f) = 0.000E+00 0.000E+00 0.000E+00
SDA:   6     0.116784680524E+03    0.38853E+03   -0.18949E+01  5760   0.707E+04 0.000E+00
 gam= 0.000 trial= 0.400  step= 0.083 mean= 0.400
 gam= 0.404 g(H,U,f)=  0.870E+03 0.629E+03 0.136E+04 ort(H,U,f) = 0.886E+03 0.325E+03-0.106E+04
CGA:   7     0.988430087380E+01   -0.10690E+03   -0.29390E+03  5760   0.286E+04 0.153E+03
 gam= 0.404 trial= 0.384  step= 0.032 mean= 0.384
 gam= 0.000 g(H,U,f)=  0.536E+03 0.998E+03 0.886E+03 ort(H,U,f) = 0.993E+03 0.133E+04 0.104E+04
CGA:   8    -0.749275970911E+02   -0.84812E+02   -0.47396E+02  5760   0.242E+04 0.336E+04
 gam= 0.000 trial= 0.367  step= 0.030 mean= 0.367
 gam= 0.439 g(H,U,f)=  0.325E+03 0.445E+03 0.291E+03 ort(H,U,f) = 0.356E+03-0.648E+02-0.835E+03
CGA:   9    -0.126319084397E+03   -0.51391E+02   -0.36332E+02  5760   0.106E+04-0.544E+03
 gam= 0.439 trial= 0.350  step= 0.105 mean= 0.350
 gam= 2.874 g(H,U,f)=  0.110E+03 0.110E+04 0.184E+04 ort(H,U,f) = 0.868E+02-0.859E+01-0.237E+03
CGA:  10    -0.163246705147E+03   -0.36928E+02   -0.43172E+02  5760   0.305E+04-0.159E+03
 gam= 2.874 trial= 0.338  step= 0.034 mean= 0.338
 gam= 0.195 g(H,U,f)=  0.853E+02 0.295E+03 0.214E+03 ort(H,U,f) =-0.925E+02 0.163E+03 0.227E+03
CGA:  11    -0.191318577647E+03   -0.28072E+02   -0.44698E+02  5760   0.594E+03 0.298E+03
 gam= 0.195 trial= 0.322  step= 0.062 mean= 0.322
 gam= 0.000 g(H,U,f)=  0.104E+03 0.330E+03 0.150E+03 ort(H,U,f) =-0.457E+02-0.315E+03-0.133E+03
CGA:  12    -0.190944429062E+03    0.37415E+00   -0.20230E+02  5760   0.584E+03-0.493E+03
 gam= 0.000 trial= 0.309  step= 0.083 mean= 0.309
 gam= 0.000 g(H,U,f)=  0.796E+02 0.448E+03 0.425E+03 ort(H,U,f) = 0.383E+02-0.292E+03-0.306E+03
CGA:  13    -0.192854614812E+03   -0.19102E+01   -0.24105E+02  5760   0.952E+03-0.559E+03
 gam= 0.000 trial= 0.298  step= 0.077 mean= 0.298
 gam= 0.000 g(H,U,f)=  0.753E+02 0.584E+03 0.289E+03 ort(H,U,f) =-0.613E+01-0.469E+03-0.231E+03
CGA:  14    -0.189843678025E+03    0.30109E+01   -0.36617E+02  5760   0.949E+03-0.706E+03
 gam= 0.000 trial= 0.287  step= 0.035 mean= 0.287
 gam= 0.027 g(H,U,f)=  0.229E+02 0.270E+01 0.283E+00 ort(H,U,f) = 0.242E+02-0.477E+01-0.720E+01
CGA:  15    -0.210961396787E+03   -0.21118E+02   -0.16436E+02  5760   0.258E+02 0.123E+02
 gam= 0.027 trial= 0.274  step= 0.360 mean= 0.274
 gam= 2.146 g(H,U,f)=  0.711E+01 0.274E+02 0.209E+02 ort(H,U,f) = 0.520E+01-0.222E+01-0.215E+01
CGA:  16    -0.215718909861E+03   -0.47575E+01   -0.47117E+01  5760   0.555E+02 0.833E+00
 gam= 2.146 trial= 0.279  step= 0.064 mean= 0.279
 gam= 0.441 g(H,U,f)=  0.588E+01 0.142E+02 0.440E+01 ort(H,U,f) = 0.180E+01-0.558E+01-0.705E+01
CGA:  17    -0.217181596779E+03   -0.14627E+01   -0.18222E+01  5760   0.245E+02-0.108E+02
 gam= 0.441 trial= 0.268  step= 0.208 mean= 0.268
 gam= 0.318 g(H,U,f)=  0.214E+01 0.415E+01 0.150E+01 ort(H,U,f) =-0.262E+01 0.330E+01-0.594E+00
CGA:  18    -0.219226922642E+03   -0.20453E+01   -0.20512E+01  5760   0.779E+01 0.846E-01
 gam= 0.318 trial= 0.265  step= 0.083 mean= 0.265
 gam= 0.689 g(H,U,f)=  0.151E+01 0.259E+01 0.127E+01 ort(H,U,f) = 0.395E+00 0.319E+00-0.110E+01
CGA:  19    -0.219535572728E+03   -0.30865E+00   -0.32509E+00  5760   0.537E+01-0.384E+00
 gam= 0.689 trial= 0.256  step= 0.127 mean= 0.256
 gam= 0.447 g(H,U,f)=  0.109E+01 0.114E+01 0.165E+00 ort(H,U,f) = 0.399E+00-0.215E+00-0.156E+00
CGA:  20    -0.219865629791E+03   -0.33006E+00   -0.32368E+00  5760   0.240E+01 0.280E-01
 gam= 0.447 trial= 0.249  step= 0.289 mean= 0.249
 gam= 2.583 g(H,U,f)=  0.786E+00 0.329E+01 0.212E+01 ort(H,U,f) = 0.372E+00-0.600E-01-0.178E+00
CGA:  21    -0.220218104153E+03   -0.35247E+00   -0.34826E+00  5760   0.619E+01 0.134E+00
 gam= 2.583 trial= 0.251  step= 0.095 mean= 0.251
 gam= 0.317 g(H,U,f)=  0.584E+00 0.116E+01 0.217E+00 ort(H,U,f) =-0.933E+00 0.879E+00-0.249E+00
CGA:  22    -0.220510016078E+03   -0.29191E+00   -0.31152E+00  5760   0.196E+01-0.302E+00
 gam= 0.317 trial= 0.244  step= 0.163 mean= 0.244
 gam= 0.901 g(H,U,f)=  0.438E+00 0.952E+00 0.380E+00 ort(H,U,f) =-0.381E+00 0.435E+00-0.575E-01
CGA:  23    -0.220658712174E+03   -0.14870E+00   -0.15185E+00  5760   0.177E+01-0.387E-02
 gam= 0.901 trial= 0.239  step= 0.144 mean= 0.239
 gam= 0.881 g(H,U,f)=  0.636E+00 0.717E+00 0.207E+00 ort(H,U,f) =-0.336E+00 0.488E+00-0.118E+00
CGA:  24    -0.220784628622E+03   -0.12592E+00   -0.12694E+00  5760   0.156E+01 0.339E-01
 gam= 0.881 trial= 0.235  step= 0.413 mean= 0.235
 gam= 1.338 g(H,U,f)=  0.997E+00 0.895E+00 0.197E+00 ort(H,U,f) =-0.328E+00 0.589E+00 0.210E-01
CGA:  25    -0.221145717311E+03   -0.36109E+00   -0.32839E+00  5760   0.209E+01 0.282E+00
 gam= 1.338 trial= 0.244  step= 0.213 mean= 0.244
 gam= 1.220 g(H,U,f)=  0.682E+00 0.912E+00 0.954E+00 ort(H,U,f) =-0.192E+00 0.706E+00-0.521E+00
CGA:  26    -0.221408734811E+03   -0.26302E+00   -0.26274E+00  5760   0.255E+01-0.660E-02
 gam= 1.220 trial= 0.242  step= 0.168 mean= 0.242
 gam= 0.709 g(H,U,f)=  0.701E+00 0.108E+01 0.288E-01 ort(H,U,f) =-0.611E+00 0.542E+00 0.735E-01
CGA:  27    -0.221624753758E+03   -0.21602E+00   -0.21276E+00  5760   0.181E+01 0.509E-02
 gam= 0.709 trial= 0.238  step= 0.221 mean= 0.238
 gam= 1.515 g(H,U,f)=  0.742E+00 0.136E+01 0.635E+00 ort(H,U,f) =-0.250E+00 0.471E+00-0.161E+00
CGA:  28    -0.221823698694E+03   -0.19894E+00   -0.20007E+00  5760   0.274E+01 0.590E-01
 gam= 1.515 trial= 0.237  step= 0.161 mean= 0.237
 gam= 0.487 g(H,U,f)=  0.647E+00 0.671E+00 0.154E-01 ort(H,U,f) =-0.490E+00 0.535E+00 0.127E-01
CGA:  29    -0.222035521949E+03   -0.21182E+00   -0.22781E+00  5760   0.133E+01 0.586E-01
 gam= 0.487 trial= 0.234  step= 0.249 mean= 0.234
 gam= 0.845 g(H,U,f)=  0.465E+00 0.434E+00 0.228E+00 ort(H,U,f) =-0.531E-01 0.239E+00-0.113E+00
CGA:  30    -0.222206159057E+03   -0.17064E+00   -0.16964E+00  5760   0.113E+01 0.734E-01
 gam= 0.845 trial= 0.234  step= 0.206 mean= 0.234
 gam= 0.750 g(H,U,f)=  0.337E+00 0.408E+00 0.996E-01 ort(H,U,f) =-0.172E-01 0.105E+00-0.905E-01
CGA:  31    -0.222328832585E+03   -0.12267E+00   -0.12247E+00  5760   0.845E+00-0.236E-02
 gam= 0.750 trial= 0.233  step= 0.390 mean= 0.233
 gam= 0.735 g(H,U,f)=  0.313E+00 0.305E+00 0.304E-02 ort(H,U,f) =-0.230E+00 0.224E+00 0.472E-02
CGA:  32    -0.222493172433E+03   -0.16434E+00   -0.16434E+00  5760   0.621E+00-0.178E-02
 gam= 0.735 trial= 0.241  step= 0.338 mean= 0.241
 gam= 0.990 g(H,U,f)=  0.261E+00 0.207E+00 0.146E+00 ort(H,U,f) =-0.112E+00 0.131E+00-0.191E-01
CGA:  33    -0.222597923853E+03   -0.10475E+00   -0.10478E+00  5760   0.615E+00-0.532E-04
 gam= 0.990 trial= 0.246  step= 0.177 mean= 0.246
 gam= 0.947 g(H,U,f)=  0.210E+00 0.234E+00 0.139E+00 ort(H,U,f) =-0.679E-02 0.128E+00-0.154E+00
CGA:  34    -0.222655221760E+03   -0.57298E-01   -0.54509E-01  5760   0.582E+00-0.327E-01
 gam= 0.947 trial= 0.242  step= 0.272 mean= 0.242
 gam= 0.619 g(H,U,f)=  0.148E+00 0.130E+00 0.822E-01 ort(H,U,f) =-0.979E-01 0.885E-01-0.327E-01
CGA:  35    -0.222729750603E+03   -0.74529E-01   -0.74956E-01  5760   0.360E+00-0.420E-01
 gam= 0.619 trial= 0.244  step= 0.151 mean= 0.244
 gam= 1.039 g(H,U,f)=  0.137E+00 0.151E+00 0.864E-01 ort(H,U,f) = 0.120E-01 0.536E-01-0.608E-01
CGA:  36    -0.222754671468E+03   -0.24921E-01   -0.25322E-01  5760   0.374E+00 0.484E-02
 gam= 1.039 trial= 0.239  step= 0.237 mean= 0.239
 gam= 0.586 g(H,U,f)=  0.946E-01 0.120E+00 0.513E-02 ort(H,U,f) =-0.110E-01 0.118E-01 0.491E-02
CGA:  37    -0.222799672431E+03   -0.45001E-01   -0.45003E-01  5760   0.219E+00 0.578E-02
 gam= 0.586 trial= 0.239  step= 0.302 mean= 0.239
 gam= 1.220 g(H,U,f)=  0.700E-01 0.100E+00 0.974E-01 ort(H,U,f) =-0.847E-02 0.362E-01-0.113E-01
CGA:  38    -0.222833838129E+03   -0.34166E-01   -0.33606E-01  5760   0.268E+00 0.164E-01
 gam= 1.220 trial= 0.242  step= 0.111 mean= 0.242
 gam= 0.542 g(H,U,f)=  0.555E-01 0.600E-01 0.294E-01 ort(H,U,f) =-0.555E-02 0.538E-01-0.405E-01
CGA:  39    -0.222849535733E+03   -0.15698E-01   -0.15975E-01  5760   0.145E+00 0.773E-02
 gam= 0.542 trial= 0.236  step= 0.346 mean= 0.236
 gam= 0.742 g(H,U,f)=  0.460E-01 0.608E-01 0.724E-03 ort(H,U,f) =-0.271E-01 0.292E-01 0.481E-03
CGA:  40    -0.222875528596E+03   -0.25993E-01   -0.25776E-01  5760   0.108E+00 0.261E-02
 gam= 0.742 trial= 0.241  step= 0.372 mean= 0.241
 gam= 0.926 g(H,U,f)=  0.403E-01 0.381E-01 0.212E-01 ort(H,U,f) =-0.234E-01 0.277E-01-0.404E-02
CGA:  41    -0.222895905260E+03   -0.20377E-01   -0.20354E-01  5760   0.995E-01 0.220E-03
 gam= 0.926 trial= 0.248  step= 0.143 mean= 0.248
 gam= 1.292 g(H,U,f)=  0.382E-01 0.477E-01 0.428E-01 ort(H,U,f) = 0.589E-03 0.229E-01-0.232E-01
CGA:  42    -0.222903098865E+03   -0.71936E-02   -0.71110E-02  5760   0.129E+00 0.288E-03
 gam= 1.292 trial= 0.242  step= 0.231 mean= 0.242
 gam= 0.492 g(H,U,f)=  0.312E-01 0.318E-01 0.375E-03 ort(H,U,f) =-0.102E-01 0.102E-01-0.238E-03
CGA:  43    -0.222917996732E+03   -0.14898E-01   -0.14896E-01  5760   0.633E-01-0.224E-03
 gam= 0.492 trial= 0.242  step= 0.346 mean= 0.242
 gam= 0.794 g(H,U,f)=  0.172E-01 0.234E-01 0.965E-02 ort(H,U,f) =-0.178E-02 0.180E-02 0.129E-03
CGA:  44    -0.222928936476E+03   -0.10940E-01   -0.10930E-01  5760   0.503E-01 0.155E-03
 gam= 0.794 trial= 0.247  step= 0.113 mean= 0.247
 gam= 0.000 g(H,U,f)=  0.145E-01 0.211E-01 0.133E-01 ort(H,U,f) = 0.701E-02 0.510E-02-0.121E-01
SDA:  45    -0.222931796329E+03   -0.28599E-02   -0.28556E-02  5760   0.489E-01 0.310E-04
 gam= 0.000 trial= 0.240  step= 0.094 mean= 0.240
 gam= 0.808 g(H,U,f)=  0.110E-01 0.181E-01 0.104E-01 ort(H,U,f) = 0.106E-01 0.820E-03-0.110E-01
CGA:  46    -0.222934125839E+03   -0.23295E-02   -0.23013E-02  5760   0.395E-01 0.406E-03
 gam= 0.808 trial= 0.233  step= 0.351 mean= 0.233
 gam= 0.582 g(H,U,f)=  0.734E-02 0.156E-01 0.117E-03 ort(H,U,f) = 0.473E-03-0.326E-03 0.122E-04
CGA:  47    -0.222941119878E+03   -0.69940E-02   -0.69831E-02  5760   0.230E-01 0.159E-03
 gam= 0.582 trial= 0.239  step= 0.594 mean= 0.239
 gam= 0.866 g(H,U,f)=  0.593E-02 0.948E-02 0.452E-02 ort(H,U,f) =-0.505E-02 0.515E-02-0.176E-04
CGA:  48    -0.222947996812E+03   -0.68769E-02   -0.68633E-02  5760   0.199E-01 0.846E-04
 gam= 0.866 trial= 0.257  step= 0.119 mean= 0.257
 gam= 1.166 g(H,U,f)=  0.515E-02 0.106E-01 0.751E-02 ort(H,U,f) =-0.515E-03 0.555E-02-0.498E-02
CGA:  49    -0.222949199606E+03   -0.12028E-02   -0.11950E-02  5760   0.232E-01 0.511E-04
 gam= 1.166 trial= 0.250  step= 0.325 mean= 0.250
 gam= 0.424 g(H,U,f)=  0.468E-02 0.516E-02 0.281E-04 ort(H,U,f) =-0.382E-02 0.407E-02-0.103E-03
CGA:  50    -0.222952998374E+03   -0.37988E-02   -0.37901E-02  5760   0.986E-02 0.147E-03
 gam= 0.424 trial= 0.254  step= 0.673 mean= 0.254
 gam= 2.106 g(H,U,f)=  0.375E-02 0.877E-02 0.825E-02 ort(H,U,f) =-0.137E-02 0.185E-02-0.430E-03
CGA:  51    -0.222956345383E+03   -0.33470E-02   -0.33382E-02  5760   0.208E-01 0.469E-04
 gam= 2.106 trial= 0.275  step= 0.094 mean= 0.275
 gam= 0.639 g(H,U,f)=  0.390E-02 0.622E-02 0.315E-02 ort(H,U,f) =-0.193E-02 0.450E-02-0.240E-02
CGA:  52    -0.222957338356E+03   -0.99297E-03   -0.98126E-03  5760   0.133E-01 0.168E-03
 gam= 0.639 trial= 0.266  step= 0.319 mean= 0.266
 gam= 0.855 g(H,U,f)=  0.456E-02 0.652E-02 0.256E-03 ort(H,U,f) =-0.975E-03 0.195E-02-0.634E-03
CGA:  53    -0.222959485846E+03   -0.21475E-02   -0.21336E-02  5760   0.113E-01 0.339E-03
 gam= 0.855 trial= 0.268  step= 0.474 mean= 0.268
 gam= 2.525 g(H,U,f)=  0.453E-02 0.110E-01 0.131E-01 ort(H,U,f) =-0.207E-02 0.292E-02-0.114E-02
CGA:  54    -0.222962209679E+03   -0.27238E-02   -0.27550E-02  5760   0.286E-01-0.292E-03
 gam= 2.525 trial= 0.278  step= 0.088 mean= 0.278
 gam= 0.511 g(H,U,f)=  0.517E-02 0.770E-02 0.178E-02 ort(H,U,f) =-0.676E-02 0.731E-02-0.946E-04
CGA:  55    -0.222963471888E+03   -0.12622E-02   -0.12325E-02  5760   0.146E-01 0.452E-03
 gam= 0.511 trial= 0.269  step= 0.453 mean= 0.269
 gam= 1.658 g(H,U,f)=  0.608E-02 0.105E-01 0.772E-02 ort(H,U,f) =-0.326E-02 0.428E-02 0.139E-03
CGA:  56    -0.222966966733E+03   -0.34948E-02   -0.33671E-02  5760   0.243E-01 0.116E-02
 gam= 1.658 trial= 0.278  step= 0.102 mean= 0.278
 gam= 0.822 g(H,U,f)=  0.590E-02 0.797E-02 0.610E-02 ort(H,U,f) =-0.169E-02 0.700E-02-0.649E-02
CGA:  57    -0.222968231137E+03   -0.12644E-02   -0.13426E-02  5760   0.200E-01-0.118E-02
 gam= 0.822 trial= 0.269  step= 0.434 mean= 0.269
 gam= 0.681 g(H,U,f)=  0.655E-02 0.686E-02 0.184E-03 ort(H,U,f) =-0.475E-02 0.369E-02-0.497E-03
CGA:  58    -0.222972262825E+03   -0.40317E-02   -0.41210E-02  5760   0.136E-01-0.156E-02
 gam= 0.681 trial= 0.278  step= 0.543 mean= 0.278
 gam= 1.747 g(H,U,f)=  0.629E-02 0.824E-02 0.922E-02 ort(H,U,f) =-0.248E-02 0.278E-02-0.172E-02
CGA:  59    -0.222975563707E+03   -0.33009E-02   -0.34046E-02  5760   0.237E-01-0.141E-02
 gam= 1.747 trial= 0.291  step= 0.211 mean= 0.291
 gam= 1.075 g(H,U,f)=  0.803E-02 0.965E-02 0.785E-02 ort(H,U,f) =-0.345E-02 0.513E-02-0.587E-04
CGA:  60    -0.222977403076E+03   -0.18394E-02   -0.22399E-02  5760   0.255E-01 0.161E-02
 gam= 1.075 trial= 0.287  step= 0.097 mean= 0.287
 gam= 0.539 g(H,U,f)=  0.572E-02 0.495E-02 0.309E-02 ort(H,U,f) = 0.324E-02 0.109E-01-0.590E-02
CGA:  61    -0.222979250865E+03   -0.18478E-02   -0.13280E-02  5760   0.138E-01 0.820E-02
 gam= 0.539 trial= 0.277  step= 0.340 mean= 0.277
 gam= 2.163 g(H,U,f)=  0.445E-02 0.981E-02 0.155E-01 ort(H,U,f) =-0.204E-03 0.327E-02-0.476E-02
CGA:  62    -0.222982271141E+03   -0.30203E-02   -0.30945E-02  5760   0.298E-01-0.169E-02
 gam= 2.163 trial= 0.281  step= 0.108 mean= 0.281
 gam= 0.648 g(H,U,f)=  0.805E-02 0.111E-01 0.114E-03 ort(H,U,f) =-0.889E-02 0.557E-02 0.612E-03
CGA:  63    -0.222983390968E+03   -0.11198E-02   -0.14168E-02  5760   0.193E-01-0.271E-02
 gam= 0.648 trial= 0.272  step= 0.295 mean= 0.272
 gam= 1.708 g(H,U,f)=  0.984E-02 0.117E-01 0.114E-01 ort(H,U,f) =-0.796E-02 0.644E-02 0.346E-02
CGA:  64    -0.222986015090E+03   -0.26241E-02   -0.25849E-02  5760   0.329E-01 0.194E-02
 gam= 1.708 trial= 0.273  step= 0.067 mean= 0.273
 gam= 0.559 g(H,U,f)=  0.814E-02 0.896E-02 0.132E-02 ort(H,U,f) =-0.605E-02 0.211E-01-0.607E-02
CGA:  65    -0.222987599595E+03   -0.15845E-02   -0.12226E-02  5760   0.184E-01 0.895E-02
 gam= 0.559 trial= 0.263  step= 0.184 mean= 0.263
 gam= 3.106 g(H,U,f)=  0.754E-02 0.152E-01 0.344E-01 ort(H,U,f) = 0.832E-03 0.146E-01-0.157E-01
CGA:  66    -0.222989896623E+03   -0.22970E-02   -0.21567E-02  5760   0.572E-01-0.229E-03
 gam= 3.106 trial= 0.259  step= 0.062 mean= 0.259
 gam= 1.113 g(H,U,f)=  0.108E-01 0.185E-01 0.343E-01 ort(H,U,f) =-0.647E-02 0.379E-01-0.263E-01
CGA:  67    -0.222991801914E+03   -0.19053E-02   -0.17609E-02  5760   0.637E-01 0.512E-02
 gam= 1.113 trial= 0.249  step= 0.085 mean= 0.249
 gam= 0.693 g(H,U,f)=  0.190E-01 0.245E-01 0.603E-03 ort(H,U,f) =-0.295E-01 0.109E-01 0.186E-02
CGA:  68    -0.222993594705E+03   -0.17928E-02   -0.29617E-02  5760   0.441E-01-0.167E-01
 gam= 0.693 trial= 0.241  step= 0.284 mean= 0.241
 gam= 1.513 g(H,U,f)=  0.313E-01 0.254E-01 0.101E-01 ort(H,U,f) =-0.187E-01 0.294E-01-0.196E-01
CGA:  69    -0.222997931117E+03   -0.43364E-02   -0.46145E-02  5760   0.668E-01-0.892E-02
 gam= 1.513 trial= 0.243  step= 0.145 mean= 0.243
 gam= 1.094 g(H,U,f)=  0.350E-01 0.217E-01 0.164E-01 ort(H,U,f) =-0.171E-01 0.504E-01-0.330E-01
CGA:  70    -0.223001879171E+03   -0.39481E-02   -0.38598E-02  5760   0.731E-01 0.307E-03
 gam= 1.094 trial= 0.238  step= 0.095 mean= 0.238
 gam= 0.902 g(H,U,f)=  0.346E-01 0.283E-01 0.300E-02 ort(H,U,f) =-0.139E-01 0.125E-01 0.858E-02
CGA:  71    -0.223005747826E+03   -0.38687E-02   -0.34833E-02  5760   0.659E-01 0.709E-02
 gam= 0.902 trial= 0.231  step= 0.148 mean= 0.231
 gam= 1.498 g(H,U,f)=  0.319E-01 0.414E-01 0.255E-01 ort(H,U,f) =-0.107E-01-0.213E-01 0.331E-01
CGA:  72    -0.223011401462E+03   -0.56536E-02   -0.53542E-02  5760   0.987E-01 0.118E-02
 gam= 1.498 trial= 0.227  step= 0.086 mean= 0.227
 gam= 0.783 g(H,U,f)=  0.283E-01 0.445E-01 0.451E-02 ort(H,U,f) =-0.118E-01-0.101E-01 0.275E-01
CGA:  73    -0.223015957936E+03   -0.45565E-02   -0.43387E-02  5760   0.773E-01 0.556E-02
 gam= 0.783 trial= 0.220  step= 0.123 mean= 0.220
 gam= 0.897 g(H,U,f)=  0.254E-01 0.419E-01 0.209E-02 ort(H,U,f) =-0.810E-02 0.294E-01-0.233E-01
CGA:  74    -0.223021125055E+03   -0.51671E-02   -0.50381E-02  5760   0.693E-01-0.199E-02
 gam= 0.897 trial= 0.215  step= 0.005 mean= 0.215
 gam= 0.000 g(H,U,f)=  0.244E-01 0.409E-01 0.157E-02 ort(H,U,f) = 0.163E-01 0.647E-01-0.172E-01
CGA:  75    -0.223021547771E+03   -0.42272E-03   -0.18363E-03  5760   0.669E-01 0.638E-01
 gam= 0.000 trial= 0.204  step= 0.382 mean= 0.204
 gam= 1.357 g(H,U,f)=  0.102E-01 0.225E-01 0.580E-01 ort(H,U,f) = 0.270E-02 0.540E-02-0.513E-02
CGA:  76    -0.223034581431E+03   -0.13034E-01   -0.12767E-01  5760   0.907E-01 0.297E-02
 gam= 1.357 trial= 0.213  step= 0.100 mean= 0.213
 gam= 0.565 g(H,U,f)=  0.137E-01 0.251E-01 0.124E-01 ort(H,U,f) = 0.431E-02 0.143E-01-0.201E-01
CGA:  77    -0.223038952418E+03   -0.43710E-02   -0.47415E-02  5760   0.512E-01-0.143E-02
 gam= 0.565 trial= 0.208  step= 0.706 mean= 0.208
 gam= 1.506 g(H,U,f)=  0.173E-01 0.264E-01 0.336E-01 ort(H,U,f) =-0.925E-02 0.144E-01 0.101E-01
CGA:  78    -0.223058608812E+03   -0.19656E-01   -0.17808E-01  5760   0.772E-01 0.153E-01
 gam= 1.506 trial= 0.233  step= 0.226 mean= 0.233
 gam= 0.000 g(H,U,f)=  0.186E-01 0.370E-01 0.104E+00 ort(H,U,f) =-0.605E-02 0.483E-01 0.778E-01
CGA:  79    -0.223069706222E+03   -0.11097E-01   -0.11341E-01  5760   0.160E+00 0.120E+00
 gam= 0.000 trial= 0.232  step= 0.068 mean= 0.232
 gam= 0.300 g(H,U,f)=  0.102E-01 0.116E-01 0.263E-01 ort(H,U,f) = 0.109E-01 0.139E-01-0.161E-03
CGA:  80    -0.223073983449E+03   -0.42772E-02   -0.54515E-02  5760   0.481E-01 0.247E-01
 gam= 0.300 trial= 0.224  step= 0.309 mean= 0.224
 gam= 0.000 g(H,U,f)=  0.322E-02 0.131E-01 0.417E-01 ort(H,U,f) = 0.309E-02 0.826E-02 0.323E-01
CGA:  81    -0.223084351219E+03   -0.10368E-01   -0.85845E-02  5760   0.581E-01 0.437E-01
 gam= 0.000 trial= 0.228  step= 0.150 mean= 0.228
 gam= 2.316 g(H,U,f)=  0.664E-02 0.332E-01 0.946E-01 ort(H,U,f) = 0.149E-02 0.116E-01 0.127E-01
CGA:  82    -0.223087950836E+03   -0.35996E-02   -0.43446E-02  5760   0.135E+00 0.257E-01
 gam= 2.316 trial= 0.224  step= 0.378 mean= 0.224
 gam= 2.938 g(H,U,f)=  0.348E-01 0.908E-01 0.270E+00 ort(H,U,f) =-0.994E-02-0.267E-01 0.102E+00
CGA:  83    -0.223129210485E+03   -0.41260E-01   -0.36660E-01  5760   0.395E+00 0.656E-01
 gam= 2.938 trial= 0.232  step= 0.025 mean= 0.232
 gam= 0.000 g(H,U,f)=  0.519E-01 0.129E+00 0.239E+00 ort(H,U,f) = 0.354E-02-0.675E-02 0.388E+00
CGA:  84    -0.223134522343E+03   -0.53119E-02   -0.72206E-02  5760   0.420E+00 0.385E+00
 gam= 0.000 trial= 0.222  step= 0.107 mean= 0.222
 gam= 0.222 g(H,U,f)=  0.953E-02 0.709E-01 0.126E-01 ort(H,U,f) = 0.434E-02-0.718E-02 0.683E-02
CGA:  85    -0.223153220905E+03   -0.18699E-01   -0.22374E-01  5760   0.930E-01 0.398E-02
 gam= 0.222 trial= 0.216  step= 0.239 mean= 0.216
 gam= 0.895 g(H,U,f)=  0.160E-01 0.641E-01 0.311E-02 ort(H,U,f) =-0.158E-02-0.157E-02 0.743E-03
CGA:  86    -0.223163610500E+03   -0.10390E-01   -0.11209E-01  5760   0.832E-01-0.241E-02
 gam= 0.895 trial= 0.217  step= 0.463 mean= 0.217
 gam= 1.537 g(H,U,f)=  0.311E-01 0.752E-01 0.216E-01 ort(H,U,f) =-0.145E-01 0.161E-01 0.261E-04
CGA:  87    -0.223180722212E+03   -0.17112E-01   -0.18771E-01  5760   0.128E+00 0.162E-02
 gam= 1.537 trial= 0.229  step= 0.703 mean= 0.229
 gam= 0.000 g(H,U,f)=  0.242E+00 0.200E+01 0.604E-02 ort(H,U,f) = 0.786E-02-0.158E+00-0.751E-03
CGA:  88    -0.223120675552E+03    0.60047E-01   -0.45858E-01  5760   0.225E+01-0.151E+00
 gam= 0.000 trial= 0.253  step= 0.076 mean= 0.253
 gam= 0.061 g(H,U,f)=  0.395E-01 0.969E-01 0.471E-04 ort(H,U,f) =-0.479E-01-0.243E+00-0.173E-03
CGA:  89    -0.223224935460E+03   -0.10426E+00   -0.85259E-01  5760   0.136E+00-0.291E+00
 gam= 0.061 trial= 0.244  step= 0.084 mean= 0.244
 gam= 0.171 g(H,U,f)=  0.916E-02 0.142E-01 0.781E-06 ort(H,U,f) = 0.164E-01 0.204E-01 0.157E-05
CGA:  90    -0.223235109146E+03   -0.10174E-01   -0.49969E-02  5760   0.233E-01 0.368E-01
 gam= 0.171 trial= 0.236  step= 0.179 mean= 0.236
 gam= 1.301 g(H,U,f)=  0.299E-02 0.273E-01 0.191E-04 ort(H,U,f) = 0.261E-02 0.312E-02-0.548E-05
CGA:  91    -0.223237776743E+03   -0.26676E-02   -0.26565E-02  5760   0.303E-01 0.573E-02
 gam= 1.301 trial= 0.233  step= 0.176 mean= 0.233
 gam= 0.882 g(H,U,f)=  0.815E-02 0.186E-01 0.382E-05 ort(H,U,f) =-0.311E-02 0.268E-02-0.270E-05
CGA:  92    -0.223241533116E+03   -0.37564E-02   -0.33270E-02  5760   0.267E-01-0.434E-03
 gam= 0.882 trial= 0.231  step= 0.417 mean= 0.231
 gam= 1.553 g(H,U,f)=  0.150E-01 0.219E-01 0.459E-02 ort(H,U,f) =-0.939E-02 0.134E-01-0.953E-03
CGA:  93    -0.223247301172E+03   -0.57681E-02   -0.55013E-02  5760   0.415E-01 0.309E-02
 gam= 1.553 trial= 0.240  step= 0.160 mean= 0.240
 gam= 0.905 g(H,U,f)=  0.221E-01 0.128E-01 0.268E-02 ort(H,U,f) =-0.217E-01 0.254E-01-0.177E-02
CGA:  94    -0.223251157130E+03   -0.38560E-02   -0.37162E-02  5760   0.376E-01 0.195E-02
 gam= 0.905 trial= 0.236  step= 0.263 mean= 0.236
 gam= 1.090 g(H,U,f)=  0.219E-01 0.182E-01 0.894E-03 ort(H,U,f) =-0.966E-02 0.829E-02-0.731E-03
CGA:  95    -0.223256225851E+03   -0.50687E-02   -0.51705E-02  5760   0.410E-01-0.210E-02
 gam= 1.090 trial= 0.237  step= 0.407 mean= 0.237
 gam= 1.311 g(H,U,f)=  0.224E-01 0.291E-01 0.217E-02 ort(H,U,f) =-0.716E-02 0.547E-02-0.335E-03
CGA:  96    -0.223263751068E+03   -0.75252E-02   -0.78642E-02  5760   0.537E-01-0.203E-02
 gam= 1.311 trial= 0.246  step= 0.194 mean= 0.246
 gam= 0.982 g(H,U,f)=  0.249E-01 0.267E-01 0.117E-02 ort(H,U,f) = 0.941E-03 0.461E-03-0.108E-02
CGA:  97    -0.223269134149E+03   -0.53831E-02   -0.49488E-02  5760   0.527E-01 0.326E-03
 gam= 0.982 trial= 0.243  step= 0.159 mean= 0.243
 gam= 0.436 g(H,U,f)=  0.130E-01 0.993E-02 0.928E-04 ort(H,U,f) =-0.141E-02 0.173E-02-0.574E-04
CGA:  98    -0.223273383049E+03   -0.42489E-02   -0.42166E-02  5760   0.230E-01 0.256E-03
 gam= 0.436 trial= 0.239  step= 0.277 mean= 0.239
 gam= 0.807 g(H,U,f)=  0.821E-02 0.995E-02 0.412E-03 ort(H,U,f) =-0.219E-03-0.197E-02 0.101E-03
CGA:  99    -0.223276557916E+03   -0.31749E-02   -0.32048E-02  5760   0.186E-01-0.209E-02
 gam= 0.807 trial= 0.241  step= 0.124 mean= 0.241
 gam= 0.715 g(H,U,f)=  0.582E-02 0.719E-02 0.269E-03 ort(H,U,f) = 0.568E-02-0.236E-02-0.408E-03
CGA: 100    -0.223277864293E+03   -0.13064E-02   -0.10429E-02  5760   0.133E-01 0.291E-02
 gam= 0.715 trial= 0.235  step= 0.263 mean= 0.235
 gam= 0.704 g(H,U,f)=  0.361E-02 0.570E-02 0.412E-04 ort(H,U,f) =-0.513E-03 0.108E-02-0.736E-05
CGA: 101    -0.223279895913E+03   -0.20316E-02   -0.20210E-02  5760   0.935E-02 0.563E-03
 gam= 0.704 trial= 0.236  step= 0.246 mean= 0.236
 gam= 1.507 g(H,U,f)=  0.416E-02 0.948E-02 0.446E-03 ort(H,U,f) =-0.242E-02 0.298E-02-0.106E-03
CGA: 102    -0.223281092177E+03   -0.11963E-02   -0.11983E-02  5760   0.141E-01 0.456E-03
 gam= 1.507 trial= 0.237  step= 0.155 mean= 0.237
 gam= 0.658 g(H,U,f)=  0.370E-02 0.547E-02 0.865E-04 ort(H,U,f) =-0.440E-02 0.463E-02-0.139E-03
CGA: 103    -0.223282354288E+03   -0.12621E-02   -0.11445E-02  5760   0.926E-02 0.903E-04
 gam= 0.658 trial= 0.233  step= 0.342 mean= 0.233
 gam= 1.080 g(H,U,f)=  0.513E-02 0.486E-02 0.126E-04 ort(H,U,f) =-0.463E-02 0.479E-02-0.598E-05
CGA: 104    -0.223283959140E+03   -0.16049E-02   -0.15929E-02  5760   0.100E-01 0.157E-03
 gam= 1.080 trial= 0.238  step= 0.345 mean= 0.238
 gam= 1.927 g(H,U,f)=  0.807E-02 0.983E-02 0.138E-02 ort(H,U,f) =-0.399E-02 0.402E-02-0.606E-04
CGA: 105    -0.223285706473E+03   -0.17473E-02   -0.17570E-02  5760   0.193E-01-0.244E-04
 gam= 1.927 trial= 0.244  step= 0.171 mean= 0.244
 gam= 0.999 g(H,U,f)=  0.744E-02 0.100E-01 0.180E-02 ort(H,U,f) =-0.521E-02 0.697E-02-0.157E-02
CGA: 106    -0.223287415770E+03   -0.17093E-02   -0.16478E-02  5760   0.193E-01 0.195E-03
 gam= 0.999 trial= 0.240  step= 0.327 mean= 0.240
 gam= 0.886 g(H,U,f)=  0.894E-02 0.811E-02 0.121E-04 ort(H,U,f) =-0.660E-02 0.584E-02-0.472E-04
CGA: 107    -0.223290545662E+03   -0.31299E-02   -0.31805E-02  5760   0.171E-01-0.809E-03
 gam= 0.886 trial= 0.244  step= 0.309 mean= 0.244
 gam= 0.778 g(H,U,f)=  0.835E-02 0.490E-02 0.164E-04 ort(H,U,f) =-0.311E-02 0.318E-02-0.816E-04
CGA: 108    -0.223293071782E+03   -0.25261E-02   -0.25260E-02  5760   0.133E-01-0.992E-05
 gam= 0.778 trial= 0.248  step= 0.340 mean= 0.248
 gam= 0.997 g(H,U,f)=  0.639E-02 0.666E-02 0.179E-03 ort(H,U,f) =-0.249E-03 0.149E-03 0.114E-03
CGA: 109    -0.223295327977E+03   -0.22562E-02   -0.22534E-02  5760   0.132E-01 0.145E-04
 gam= 0.997 trial= 0.252  step= 0.290 mean= 0.252
 gam= 1.303 g(H,U,f)=  0.557E-02 0.903E-02 0.264E-02 ort(H,U,f) = 0.968E-03 0.547E-03-0.116E-02
CGA: 110    -0.223297247014E+03   -0.19190E-02   -0.19228E-02  5760   0.172E-01 0.357E-03
 gam= 1.303 trial= 0.254  step= 0.161 mean= 0.254
 gam= 0.744 g(H,U,f)=  0.512E-02 0.674E-02 0.956E-03 ort(H,U,f) =-0.129E-02 0.197E-02-0.586E-03
CGA: 111    -0.223298683702E+03   -0.14367E-02   -0.14294E-02  5760   0.128E-01 0.100E-03
 gam= 0.744 trial= 0.249  step= 0.259 mean= 0.249
 gam= 0.704 g(H,U,f)=  0.383E-02 0.510E-02 0.948E-04 ort(H,U,f) =-0.216E-02 0.212E-02-0.120E-03
CGA: 112    -0.223300352084E+03   -0.16684E-02   -0.16707E-02  5760   0.903E-02-0.160E-03
 gam= 0.704 trial= 0.250  step= 0.345 mean= 0.250
 gam= 1.010 g(H,U,f)=  0.433E-02 0.477E-02 0.193E-04 ort(H,U,f) =-0.227E-02 0.233E-02-0.185E-04
CGA: 113    -0.223301895511E+03   -0.15434E-02   -0.15389E-02  5760   0.912E-02 0.398E-04
 gam= 1.010 trial= 0.255  step= 0.404 mean= 0.255
 gam= 1.211 g(H,U,f)=  0.490E-02 0.588E-02 0.263E-03 ort(H,U,f) =-0.271E-02 0.282E-02-0.149E-03
CGA: 114    -0.223303739285E+03   -0.18438E-02   -0.18514E-02  5760   0.110E-01-0.332E-04
 gam= 1.211 trial= 0.262  step= 0.345 mean= 0.262
 gam= 1.159 g(H,U,f)=  0.547E-02 0.654E-02 0.793E-03 ort(H,U,f) =-0.343E-02 0.362E-02-0.142E-03
CGA: 115    -0.223305623157E+03   -0.18839E-02   -0.18968E-02  5760   0.128E-01 0.493E-04
 gam= 1.159 trial= 0.266  step= 0.181 mean= 0.266
 gam= 0.880 g(H,U,f)=  0.501E-02 0.508E-02 0.117E-02 ort(H,U,f) =-0.273E-02 0.376E-02-0.793E-03
CGA: 116    -0.223306799923E+03   -0.11768E-02   -0.11611E-02  5760   0.113E-01 0.238E-03
 gam= 0.880 trial= 0.262  step= 0.225 mean= 0.262
 gam= 0.752 g(H,U,f)=  0.459E-02 0.360E-02 0.284E-03 ort(H,U,f) =-0.169E-02 0.181E-02-0.231E-03
CGA: 117    -0.223308105335E+03   -0.13054E-02   -0.12921E-02  5760   0.847E-02-0.120E-03
 gam= 0.752 trial= 0.260  step= 0.365 mean= 0.260
 gam= 1.140 g(H,U,f)=  0.479E-02 0.487E-02 0.232E-05 ort(H,U,f) =-0.105E-02 0.106E-02 0.190E-05
CGA: 118    -0.223309631805E+03   -0.15265E-02   -0.15316E-02  5760   0.966E-02 0.108E-04
 gam= 1.140 trial= 0.265  step= 0.327 mean= 0.265
 gam= 0.000 g(H,U,f)=  0.374E-02 0.447E-02 0.598E-05 ort(H,U,f) =-0.152E-02 0.142E-02 0.618E-05
SDA: 119    -0.223311202570E+03   -0.15708E-02   -0.15806E-02  5760   0.821E-02-0.888E-04
 gam= 0.000 trial= 0.268  step= 0.267 mean= 0.268
 gam= 0.969 g(H,U,f)=  0.197E-02 0.597E-02 0.192E-04 ort(H,U,f) = 0.167E-02-0.698E-03 0.146E-05
CGA: 120    -0.223312300465E+03   -0.10979E-02   -0.10976E-02  5760   0.796E-02 0.971E-03
 gam= 0.969 trial= 0.268  step= 0.120 mean= 0.268
 gam= 0.398 g(H,U,f)=  0.115E-02 0.202E-02 0.282E-05 ort(H,U,f) = 0.161E-02 0.314E-03-0.167E-05
CGA: 121    -0.223313135473E+03   -0.83501E-03   -0.53468E-03  5760   0.317E-02 0.192E-02
 gam= 0.398 trial= 0.261  step= 0.774 mean= 0.261
 gam= 1.423 g(H,U,f)=  0.175E-02 0.230E-02 0.466E-03 ort(H,U,f) =-0.824E-03 0.678E-03-0.719E-05
CGA: 122    -0.223314613970E+03   -0.14785E-02   -0.15238E-02  5760   0.451E-02-0.153E-03
 gam= 1.423 trial= 0.287  step= 0.246 mean= 0.287
 gam= 1.656 g(H,U,f)=  0.180E-02 0.347E-02 0.220E-02 ort(H,U,f) =-0.677E-03 0.156E-02-0.917E-03
CGA: 123    -0.223315143807E+03   -0.52984E-03   -0.52787E-03  5760   0.747E-02-0.297E-04
 gam= 1.656 trial= 0.285  step= 0.218 mean= 0.285
 gam= 0.356 g(H,U,f)=  0.159E-02 0.910E-03 0.160E-03 ort(H,U,f) =-0.220E-02 0.233E-02-0.159E-03
CGA: 124    -0.223315953622E+03   -0.80982E-03   -0.80777E-03  5760   0.266E-02-0.220E-04
 gam= 0.356 trial= 0.281  step= 0.463 mean= 0.281
 gam= 2.054 g(H,U,f)=  0.154E-02 0.241E-02 0.151E-02 ort(H,U,f) =-0.378E-03 0.665E-03-0.284E-03
CGA: 125    -0.223316567555E+03   -0.61393E-03   -0.61332E-03  5760   0.546E-02 0.253E-05
 gam= 2.054 trial= 0.290  step= 0.146 mean= 0.290
 gam= 0.548 g(H,U,f)=  0.132E-02 0.119E-02 0.479E-03 ort(H,U,f) =-0.931E-03 0.144E-02-0.514E-03
CGA: 126    -0.223316964778E+03   -0.39722E-03   -0.39925E-03  5760   0.299E-02 0.176E-06
 gam= 0.548 trial= 0.283  step= 0.516 mean= 0.283
 gam= 1.139 g(H,U,f)=  0.124E-02 0.159E-02 0.572E-03 ort(H,U,f) =-0.667E-03 0.860E-03-0.196E-03
CGA: 127    -0.223317734455E+03   -0.76968E-03   -0.77227E-03  5760   0.341E-02-0.310E-05
 gam= 1.139 trial= 0.295  step= 0.173 mean= 0.295
 gam= 1.053 g(H,U,f)=  0.123E-02 0.154E-02 0.824E-03 ort(H,U,f) =-0.411E-03 0.835E-03-0.416E-03
CGA: 128    -0.223318029956E+03   -0.29550E-03   -0.29534E-03  5760   0.359E-02 0.784E-05
 gam= 1.053 trial= 0.289  step= 0.349 mean= 0.289
 gam= 0.779 g(H,U,f)=  0.119E-02 0.118E-02 0.427E-03 ort(H,U,f) =-0.634E-03 0.866E-03-0.263E-03
CGA: 129    -0.223318655992E+03   -0.62604E-03   -0.62840E-03  5760   0.280E-02-0.312E-04
 gam= 0.779 trial= 0.292  step= 0.374 mean= 0.292
 gam= 2.334 g(H,U,f)=  0.148E-02 0.345E-02 0.160E-02 ort(H,U,f) =-0.312E-03 0.746E-03-0.412E-03
CGA: 130    -0.223319174666E+03   -0.51867E-03   -0.51834E-03  5760   0.653E-02 0.223E-04
 gam= 2.334 trial= 0.296  step= 0.184 mean= 0.296
 gam= 0.447 g(H,U,f)=  0.136E-02 0.117E-02 0.394E-03 ort(H,U,f) =-0.159E-02 0.188E-02-0.250E-03
CGA: 131    -0.223319784683E+03   -0.61002E-03   -0.60539E-03  5760   0.292E-02 0.468E-04
 gam= 0.447 trial= 0.290  step= 0.423 mean= 0.290
 gam= 1.448 g(H,U,f)=  0.135E-02 0.171E-02 0.116E-02 ort(H,U,f) =-0.427E-03 0.935E-03-0.477E-03
CGA: 132    -0.223320406225E+03   -0.62154E-03   -0.62103E-03  5760   0.422E-02 0.309E-04
 gam= 1.448 trial= 0.297  step= 0.150 mean= 0.297
 gam= 0.585 g(H,U,f)=  0.119E-02 0.122E-02 0.597E-04 ort(H,U,f) =-0.371E-03 0.717E-03-0.639E-04
CGA: 133    -0.223320733895E+03   -0.32767E-03   -0.31969E-03  5760   0.247E-02 0.281E-03
 gam= 0.585 trial= 0.290  step= 0.559 mean= 0.290
 gam= 1.769 g(H,U,f)=  0.136E-02 0.272E-02 0.290E-03 ort(H,U,f) =-0.403E-03 0.433E-03-0.471E-04
CGA: 134    -0.223321386947E+03   -0.65305E-03   -0.73639E-03  5760   0.437E-02-0.164E-04
 gam= 1.769 trial= 0.303  step= 0.123 mean= 0.303
 gam= 0.553 g(H,U,f)=  0.124E-02 0.114E-02 0.375E-04 ort(H,U,f) =-0.653E-03 0.131E-02-0.647E-04
CGA: 135    -0.223321730568E+03   -0.34362E-03   -0.26748E-03  5760   0.242E-02 0.593E-03
 gam= 0.553 trial= 0.294  step= 0.489 mean= 0.294
 gam= 1.212 g(H,U,f)=  0.113E-02 0.167E-02 0.136E-03 ort(H,U,f) =-0.706E-03 0.651E-03 0.242E-05
CGA: 136    -0.223322398135E+03   -0.66757E-03   -0.67184E-03  5760   0.293E-02-0.528E-04
 gam= 1.212 trial= 0.304  step= 0.143 mean= 0.304
 gam= 1.057 g(H,U,f)=  0.123E-02 0.169E-02 0.168E-03 ort(H,U,f) =-0.129E-03 0.919E-03-0.165E-03
CGA: 137    -0.223322644452E+03   -0.24632E-03   -0.20432E-03  5760   0.310E-02 0.625E-03
 gam= 1.057 trial= 0.296  step= 0.405 mean= 0.296
 gam= 0.757 g(H,U,f)=  0.113E-02 0.114E-02 0.688E-04 ort(H,U,f) =-0.110E-02 0.119E-02-0.112E-04
CGA: 138    -0.223323411306E+03   -0.76685E-03   -0.76147E-03  5760   0.234E-02 0.788E-04
 gam= 0.757 trial= 0.301  step= 0.230 mean= 0.301
 gam= 1.918 g(H,U,f)=  0.140E-02 0.219E-02 0.900E-03 ort(H,U,f) =-0.402E-03 0.854E-03-0.246E-03
CGA: 139    -0.223323692928E+03   -0.28162E-03   -0.27643E-03  5760   0.450E-02 0.205E-03
 gam= 1.918 trial= 0.298  step= 0.285 mean= 0.298
 gam= 0.600 g(H,U,f)=  0.138E-02 0.118E-02 0.145E-03 ort(H,U,f) =-0.145E-02 0.140E-02-0.217E-03
CGA: 140    -0.223324393159E+03   -0.70023E-03   -0.69594E-03  5760   0.270E-02-0.267E-03
 gam= 0.600 trial= 0.297  step= 0.596 mean= 0.297
 gam= 0.774 g(H,U,f)=  0.146E-02 0.626E-03 0.688E-05 ort(H,U,f) =-0.923E-03 0.896E-03 0.113E-06
CGA: 141    -0.223325143945E+03   -0.75079E-03   -0.75670E-03  5760   0.209E-02-0.270E-04
 gam= 0.774 trial= 0.312  step= 0.493 mean= 0.312
 gam= 1.525 g(H,U,f)=  0.111E-02 0.147E-02 0.606E-03 ort(H,U,f) =-0.203E-03 0.226E-03-0.284E-04
CGA: 142    -0.223325653459E+03   -0.50951E-03   -0.50986E-03  5760   0.318E-02-0.626E-05
 gam= 1.525 trial= 0.321  step= 0.175 mean= 0.321
 gam= 0.968 g(H,U,f)=  0.101E-02 0.125E-02 0.814E-03 ort(H,U,f) = 0.179E-03 0.483E-03-0.628E-03
CGA: 143    -0.223325935059E+03   -0.28160E-03   -0.27773E-03  5760   0.308E-02 0.331E-04
 gam= 0.968 trial= 0.314  step= 0.308 mean= 0.314
 gam= 0.487 g(H,U,f)=  0.818E-03 0.676E-03 0.747E-05 ort(H,U,f) =-0.539E-03 0.564E-03-0.223E-04
CGA: 144    -0.223326414802E+03   -0.47974E-03   -0.47977E-03  5760   0.150E-02 0.297E-05
 gam= 0.487 trial= 0.313  step= 0.553 mean= 0.313
 gam= 0.994 g(H,U,f)=  0.627E-03 0.718E-03 0.147E-03 ort(H,U,f) =-0.205E-03 0.190E-03 0.766E-05
CGA: 145    -0.223326829600E+03   -0.41480E-03   -0.41571E-03  5760   0.149E-02-0.745E-05
 gam= 0.994 trial= 0.325  step= 0.290 mean= 0.325
 gam= 1.779 g(H,U,f)=  0.719E-03 0.105E-02 0.888E-03 ort(H,U,f) = 0.291E-04 0.366E-03-0.391E-03
CGA: 146    -0.223327044837E+03   -0.21524E-03   -0.21538E-03  5760   0.266E-02 0.379E-05
 gam= 1.779 trial= 0.324  step= 0.203 mean= 0.324
 gam= 0.460 g(H,U,f)=  0.589E-03 0.626E-03 0.720E-05 ort(H,U,f) =-0.414E-03 0.467E-03-0.511E-05
CGA: 147    -0.223327314272E+03   -0.26944E-03   -0.26996E-03  5760   0.122E-02 0.483E-04
 gam= 0.460 trial= 0.318  step= 0.571 mean= 0.318
 gam= 1.043 g(H,U,f)=  0.669E-03 0.585E-03 0.212E-04 ort(H,U,f) =-0.233E-03 0.187E-03 0.864E-05
CGA: 148    -0.223327649439E+03   -0.33517E-03   -0.35510E-03  5760   0.127E-02-0.373E-04
 gam= 1.043 trial= 0.330  step= 0.297 mean= 0.330
 gam= 1.409 g(H,U,f)=  0.584E-03 0.113E-02 0.811E-04 ort(H,U,f) =-0.164E-03 0.314E-03-0.235E-04
CGA: 149    -0.223327835057E+03   -0.18562E-03   -0.18368E-03  5760   0.180E-02 0.126E-03
 gam= 1.409 trial= 0.329  step= 0.209 mean= 0.329
 gam= 0.000 g(H,U,f)=  0.481E-03 0.589E-03 0.424E-04 ort(H,U,f) =-0.203E-03 0.469E-03-0.215E-05
SDA: 150    -0.223328082194E+03   -0.24714E-03   -0.20590E-03  5760   0.111E-02 0.264E-03
 gam= 0.000 trial= 0.323  step= 0.111 mean= 0.323
 gam= 0.655 g(H,U,f)=  0.377E-03 0.338E-03 0.136E-04 ort(H,U,f) = 0.359E-03 0.402E-04-0.223E-04
CGA: 151    -0.223328173768E+03   -0.91573E-04   -0.61943E-04  5760   0.728E-03 0.377E-03
 gam= 0.655 trial= 0.312  step= 0.495 mean= 0.312
 gam= 1.169 g(H,U,f)=  0.290E-03 0.541E-03 0.203E-04 ort(H,U,f) =-0.171E-04 0.711E-04-0.302E-05
CGA: 152    -0.223328419868E+03   -0.24610E-03   -0.24152E-03  5760   0.851E-03 0.510E-04
 gam= 1.169 trial= 0.321  step= 0.133 mean= 0.321
 gam= 0.841 g(H,U,f)=  0.235E-03 0.459E-03 0.220E-04 ort(H,U,f) =-0.116E-04 0.255E-03-0.160E-04
CGA: 153    -0.223328494614E+03   -0.74746E-04   -0.60447E-04  5760   0.716E-03 0.228E-03
 gam= 0.841 trial= 0.312  step= 0.439 mean= 0.312
 gam= 0.940 g(H,U,f)=  0.319E-03 0.351E-03 0.408E-05 ort(H,U,f) =-0.330E-03 0.195E-03 0.399E-05
CGA: 154    -0.223328683425E+03   -0.18881E-03   -0.19915E-03  5760   0.673E-03-0.131E-03
 gam= 0.940 trial= 0.318  step= 0.288 mean= 0.318
 gam= 1.484 g(H,U,f)=  0.311E-03 0.647E-03 0.411E-04 ort(H,U,f) =-0.132E-03 0.304E-03-0.224E-04
CGA: 155    -0.223328764524E+03   -0.81099E-04   -0.79333E-04  5760   0.999E-03 0.149E-03
 gam= 1.484 trial= 0.317  step= 0.163 mean= 0.317
 gam= 0.478 g(H,U,f)=  0.275E-03 0.198E-03 0.408E-05 ort(H,U,f) =-0.262E-03 0.315E-03-0.151E-05
CGA: 156    -0.223328876758E+03   -0.11223E-03   -0.99681E-04  5760   0.477E-03 0.517E-04
 gam= 0.478 trial= 0.309  step= 0.467 mean= 0.309
 gam= 1.446 g(H,U,f)=  0.307E-03 0.372E-03 0.112E-04 ort(H,U,f) =-0.109E-03 0.117E-03-0.525E-05
CGA: 157    -0.223328989252E+03   -0.11249E-03   -0.11733E-03  5760   0.691E-03 0.316E-05
 gam= 1.446 trial= 0.317  step= 0.336 mean= 0.317
 gam= 1.279 g(H,U,f)=  0.343E-03 0.515E-03 0.259E-04 ort(H,U,f) =-0.159E-03 0.206E-03-0.582E-05
CGA: 158    -0.223329104627E+03   -0.11538E-03   -0.11692E-03  5760   0.883E-03 0.411E-04
 gam= 1.279 trial= 0.318  step= 0.148 mean= 0.318
 gam= 0.504 g(H,U,f)=  0.284E-03 0.157E-03 0.400E-05 ort(H,U,f) =-0.151E-03 0.234E-03-0.796E-05
CGA: 159    -0.223329189433E+03   -0.84806E-04   -0.69100E-04  5760   0.445E-03 0.756E-04
 gam= 0.504 trial= 0.309  step= 0.461 mean= 0.309
 gam= 1.289 g(H,U,f)=  0.306E-03 0.268E-03 0.222E-06 ort(H,U,f) =-0.732E-04 0.346E-04-0.450E-06
CGA: 160    -0.223329297045E+03   -0.10761E-03   -0.11157E-03  5760   0.574E-03-0.390E-04
 gam= 1.289 trial= 0.317  step= 0.393 mean= 0.317
 gam= 0.881 g(H,U,f)=  0.272E-03 0.231E-03 0.330E-05 ort(H,U,f) =-0.107E-03 0.104E-03-0.347E-06
CGA: 161    -0.223329399498E+03   -0.10245E-03   -0.10292E-03  5760   0.506E-03-0.376E-05
 gam= 0.881 trial= 0.321  step= 0.209 mean= 0.321
 gam= 0.790 g(H,U,f)=  0.195E-03 0.194E-03 0.112E-04 ort(H,U,f) =-0.274E-04 0.972E-04-0.720E-05
CGA: 162    -0.223329454629E+03   -0.55131E-04   -0.52546E-04  5760   0.400E-03 0.625E-04
 gam= 0.790 trial= 0.315  step= 0.186 mean= 0.315
 gam= 0.773 g(H,U,f)=  0.142E-03 0.163E-03 0.417E-05 ort(H,U,f) =-0.936E-05 0.504E-04-0.354E-05
CGA: 163    -0.223329501187E+03   -0.46558E-04   -0.41689E-04  5760   0.309E-03 0.375E-04
 gam= 0.773 trial= 0.309  step= 0.325 mean= 0.309
 gam= 1.028 g(H,U,f)=  0.152E-03 0.164E-03 0.137E-05 ort(H,U,f) =-0.671E-04 0.606E-04-0.455E-06
CGA: 164    -0.223329555872E+03   -0.54685E-04   -0.54918E-04  5760   0.318E-03-0.702E-05
 gam= 1.028 trial= 0.310  step= 0.340 mean= 0.310
 gam= 0.968 g(H,U,f)=  0.174E-03 0.130E-03 0.292E-05 ort(H,U,f) =-0.134E-03 0.126E-03 0.146E-06
CGA: 165    -0.223329608324E+03   -0.52453E-04   -0.52764E-04  5760   0.308E-03-0.822E-05
 gam= 0.968 trial= 0.311  step= 0.308 mean= 0.311
 gam= 1.209 g(H,U,f)=  0.196E-03 0.170E-03 0.633E-05 ort(H,U,f) =-0.101E-03 0.106E-03-0.234E-05
CGA: 166    -0.223329654592E+03   -0.46268E-04   -0.46217E-04  5760   0.372E-03 0.286E-05
 gam= 1.209 trial= 0.311  step= 0.227 mean= 0.311
 gam= 1.098 g(H,U,f)=  0.198E-03 0.203E-03 0.777E-05 ort(H,U,f) =-0.887E-04 0.111E-03-0.251E-05
CGA: 167    -0.223329699114E+03   -0.44521E-04   -0.42660E-04  5760   0.409E-03 0.196E-04
 gam= 1.098 trial= 0.307  step= 0.285 mean= 0.307
 gam= 0.825 g(H,U,f)=  0.187E-03 0.145E-03 0.524E-05 ort(H,U,f) =-0.132E-03 0.141E-03-0.443E-05
CGA: 168    -0.223329761020E+03   -0.61907E-04   -0.61299E-04  5760   0.337E-03 0.422E-05
 gam= 0.825 trial= 0.306  step= 0.288 mean= 0.306
 gam= 1.011 g(H,U,f)=  0.199E-03 0.137E-03 0.540E-05 ort(H,U,f) =-0.738E-04 0.834E-04-0.279E-05
CGA: 169    -0.223329810343E+03   -0.49323E-04   -0.49080E-04  5760   0.341E-03 0.685E-05
 gam= 1.011 trial= 0.305  step= 0.251 mean= 0.305
 gam= 1.018 g(H,U,f)=  0.162E-03 0.175E-03 0.995E-05 ort(H,U,f) =-0.280E-04 0.450E-04-0.401E-05
CGA: 170    -0.223329854809E+03   -0.44466E-04   -0.43607E-04  5760   0.347E-03 0.130E-04
 gam= 1.018 trial= 0.302  step= 0.261 mean= 0.302
 gam= 0.911 g(H,U,f)=  0.148E-03 0.158E-03 0.967E-05 ort(H,U,f) =-0.373E-04 0.468E-04-0.517E-05
CGA: 171    -0.223329903227E+03   -0.48418E-04   -0.46944E-04  5760   0.316E-03 0.438E-05
 gam= 0.911 trial= 0.300  step= 0.216 mean= 0.300
 gam= 0.736 g(H,U,f)=  0.120E-03 0.107E-03 0.519E-05 ort(H,U,f) =-0.466E-04 0.537E-04-0.219E-05
CGA: 172    -0.223329939353E+03   -0.36125E-04   -0.34566E-04  5760   0.232E-03 0.489E-05
 gam= 0.736 trial= 0.296  step= 0.260 mean= 0.296
 gam= 0.781 g(H,U,f)=  0.932E-04 0.846E-04 0.374E-05 ort(H,U,f) =-0.283E-04 0.314E-04-0.185E-05
CGA: 173    -0.223329970608E+03   -0.31256E-04   -0.30683E-04  5760   0.181E-03 0.130E-05
 gam= 0.781 trial= 0.294  step= 0.257 mean= 0.294
 gam= 0.974 g(H,U,f)=  0.884E-04 0.842E-04 0.427E-05 ort(H,U,f) =-0.167E-04 0.238E-04-0.185E-05
CGA: 174    -0.223329994282E+03   -0.23674E-04   -0.23415E-04  5760   0.177E-03 0.528E-05
 gam= 0.974 trial= 0.292  step= 0.253 mean= 0.292
 gam= 0.965 g(H,U,f)=  0.752E-04 0.894E-04 0.607E-05 ort(H,U,f) =-0.182E-04 0.281E-04-0.317E-05
CGA: 175    -0.223330017833E+03   -0.23551E-04   -0.23042E-04  5760   0.171E-03 0.676E-05
 gam= 0.965 trial= 0.290  step= 0.255 mean= 0.290
 gam= 0.885 g(H,U,f)=  0.709E-04 0.758E-04 0.437E-05 ort(H,U,f) =-0.403E-04 0.444E-04-0.293E-05
CGA: 176    -0.223330040844E+03   -0.23011E-04   -0.22601E-04  5760   0.151E-03 0.122E-05
 gam= 0.885 trial= 0.288  step= 0.247 mean= 0.288
 gam= 0.886 g(H,U,f)=  0.680E-04 0.621E-04 0.374E-05 ort(H,U,f) =-0.370E-04 0.382E-04-0.182E-05
CGA: 177    -0.223330060125E+03   -0.19281E-04   -0.18758E-04  5760   0.134E-03-0.696E-06
 gam= 0.886 trial= 0.286  step= 0.260 mean= 0.286
 gam= 0.999 g(H,U,f)=  0.653E-04 0.643E-04 0.410E-05 ort(H,U,f) =-0.270E-04 0.282E-04-0.193E-05
CGA: 178    -0.223330077646E+03   -0.17522E-04   -0.17328E-04  5760   0.134E-03-0.723E-06
 gam= 0.999 trial= 0.285  step= 0.311 mean= 0.285
 gam= 1.112 g(H,U,f)=  0.670E-04 0.750E-04 0.666E-05 ort(H,U,f) =-0.383E-04 0.391E-04-0.175E-05
CGA: 179    -0.223330097959E+03   -0.20313E-04   -0.20699E-04  5760   0.149E-03-0.998E-06
 gam= 1.112 trial= 0.286  step= 0.210 mean= 0.286
 gam= 0.876 g(H,U,f)=  0.656E-04 0.622E-04 0.244E-05 ort(H,U,f) =-0.326E-04 0.385E-04-0.141E-05
CGA: 180    -0.223330114005E+03   -0.16046E-04   -0.15477E-04  5760   0.130E-03 0.447E-05
 gam= 0.876 trial= 0.283  step= 0.289 mean= 0.283
 gam= 0.000 g(H,U,f)=  0.644E-04 0.581E-04 0.273E-05 ort(H,U,f) =-0.359E-04 0.373E-04 0.514E-06
SDA: 181    -0.223330133351E+03   -0.19346E-04   -0.19376E-04  5760   0.125E-03 0.192E-05
 gam= 0.000 trial= 0.283  step= 0.295 mean= 0.283
 gam= 1.120 g(H,U,f)=  0.308E-04 0.936E-04 0.158E-04 ort(H,U,f) = 0.207E-04 0.457E-07-0.636E-05
CGA: 182    -0.223330151691E+03   -0.18340E-04   -0.18463E-04  5760   0.140E-03 0.144E-04
 gam= 1.120 trial= 0.283  step= 0.127 mean= 0.283
 gam= 0.411 g(H,U,f)=  0.188E-04 0.375E-04 0.129E-05 ort(H,U,f) = 0.184E-04-0.980E-06-0.223E-05
CGA: 183    -0.223330164929E+03   -0.13238E-04   -0.99437E-05  5760   0.577E-04 0.152E-04
 gam= 0.411 trial= 0.276  step= 0.756 mean= 0.276
 gam= 1.032 g(H,U,f)=  0.288E-04 0.300E-04 0.704E-06 ort(H,U,f) =-0.189E-04 0.184E-04 0.240E-06
CGA: 184    -0.223330188978E+03   -0.24048E-04   -0.24170E-04  5760   0.595E-04-0.217E-06
 gam= 1.032 trial= 0.300  step= 0.393 mean= 0.300
 gam= 1.987 g(H,U,f)=  0.325E-04 0.727E-04 0.131E-04 ort(H,U,f) =-0.129E-04 0.259E-04-0.386E-05
CGA: 185    -0.223330200425E+03   -0.11448E-04   -0.11649E-04  5760   0.118E-03 0.918E-05
 gam= 1.987 trial= 0.304  step= 0.159 mean= 0.304
 gam= 0.455 g(H,U,f)=  0.239E-04 0.271E-04 0.281E-05 ort(H,U,f) =-0.277E-04 0.447E-04-0.231E-05
CGA: 186    -0.223330214111E+03   -0.13686E-04   -0.10850E-04  5760   0.538E-04 0.147E-04
 gam= 0.455 trial= 0.297  step= 0.730 mean= 0.297
 gam= 3.333 g(H,U,f)=  0.499E-04 0.110E-03 0.197E-04 ort(H,U,f) =-0.202E-04 0.174E-04-0.440E-05
CGA: 187    -0.223330231386E+03   -0.17275E-04   -0.22096E-04  5760   0.179E-03-0.718E-05
 gam= 3.333 trial= 0.319  step= 0.117 mean= 0.319
 gam= 0.386 g(H,U,f)=  0.499E-04 0.192E-04 0.154E-06 ort(H,U,f) =-0.699E-04 0.873E-04 0.213E-06
CGA: 188    -0.223330244559E+03   -0.13173E-04   -0.91091E-05  5760   0.692E-04 0.175E-04
 gam= 0.386 trial= 0.309  step= 0.319 mean= 0.309
 gam= 2.217 g(H,U,f)=  0.442E-04 0.905E-04 0.188E-04 ort(H,U,f) =-0.299E-06 0.188E-04-0.228E-06
CGA: 189    -0.223330256684E+03   -0.12125E-04   -0.12105E-04  5760   0.153E-03 0.183E-04
 gam= 2.217 trial= 0.309  step= 0.160 mean= 0.309
 gam= 0.412 g(H,U,f)=  0.278E-04 0.331E-04 0.237E-05 ort(H,U,f) =-0.152E-04 0.392E-04-0.668E-05
CGA: 190    -0.223330275860E+03   -0.19177E-04   -0.15488E-04  5760   0.632E-04 0.174E-04
 gam= 0.412 trial= 0.302  step= 0.605 mean= 0.302
 gam= 1.589 g(H,U,f)=  0.412E-04 0.539E-04 0.535E-05 ort(H,U,f) =-0.234E-04 0.180E-04 0.241E-06
CGA: 191    -0.223330295333E+03   -0.19473E-04   -0.21300E-04  5760   0.100E-03-0.513E-05
 gam= 1.589 trial= 0.317  step= 0.161 mean= 0.317
 gam= 0.799 g(H,U,f)=  0.415E-04 0.341E-04 0.474E-05 ort(H,U,f) =-0.162E-04 0.348E-04-0.607E-05
CGA: 192    -0.223330304155E+03   -0.88215E-05   -0.74492E-05  5760   0.803E-04 0.125E-04
 gam= 0.799 trial= 0.309  step= 0.681 mean= 0.309
 gam= 1.561 g(H,U,f)=  0.569E-04 0.621E-04 0.640E-05 ort(H,U,f) =-0.348E-04 0.138E-04 0.741E-07
CGA: 193    -0.223330327603E+03   -0.23448E-04   -0.30752E-04  5760   0.125E-03-0.210E-04
 gam= 1.561 trial= 0.328  step= 0.157 mean= 0.328
 gam= 0.858 g(H,U,f)=  0.524E-04 0.531E-04 0.207E-05 ort(H,U,f) =-0.251E-04 0.385E-04-0.317E-05
CGA: 194    -0.223330335784E+03   -0.81814E-05   -0.72921E-05  5760   0.108E-03 0.101E-04
 gam= 0.858 trial= 0.319  step= 0.305 mean= 0.319
 gam= 0.649 g(H,U,f)=  0.411E-04 0.278E-04 0.875E-06 ort(H,U,f) =-0.210E-04 0.233E-04-0.436E-06
CGA: 195    -0.223330353490E+03   -0.17706E-04   -0.17720E-04  5760   0.699E-04 0.184E-05
 gam= 0.649 trial= 0.318  step= 0.309 mean= 0.318
 gam= 1.933 g(H,U,f)=  0.374E-04 0.861E-04 0.115E-04 ort(H,U,f) = 0.354E-05 0.112E-04-0.145E-05
CGA: 196    -0.223330364493E+03   -0.11003E-04   -0.10968E-04  5760   0.135E-03 0.133E-04
 gam= 1.933 trial= 0.318  step= 0.204 mean= 0.318
 gam= 0.465 g(H,U,f)=  0.304E-04 0.289E-04 0.350E-05 ort(H,U,f) =-0.350E-04 0.432E-04-0.535E-05
CGA: 197    -0.223330382460E+03   -0.17967E-04   -0.16371E-04  5760   0.628E-04 0.285E-05
 gam= 0.465 trial= 0.312  step= 0.396 mean= 0.312
 gam= 1.722 g(H,U,f)=  0.425E-04 0.576E-04 0.813E-05 ort(H,U,f) =-0.136E-04 0.143E-04-0.203E-05
CGA: 198    -0.223330394167E+03   -0.11707E-04   -0.12689E-04  5760   0.108E-03-0.136E-05
 gam= 1.722 trial= 0.316  step= 0.188 mean= 0.316
 gam= 0.855 g(H,U,f)=  0.439E-04 0.460E-04 0.262E-05 ort(H,U,f) =-0.207E-04 0.276E-04-0.303E-05
CGA: 199    -0.223330405190E+03   -0.11023E-04   -0.99654E-05  5760   0.924E-04 0.385E-05
 gam= 0.855 trial= 0.310  step= 0.479 mean= 0.310
 gam= 0.760 g(H,U,f)=  0.428E-04 0.274E-04 0.310E-07 ort(H,U,f) =-0.378E-04 0.330E-04 0.110E-06
CGA: 200    -0.223330427405E+03   -0.22215E-04   -0.22914E-04  5760   0.702E-04-0.467E-05
 gam= 0.760 trial= 0.318  step= 0.471 mean= 0.318
 gam= 1.258 g(H,U,f)=  0.392E-04 0.426E-04 0.647E-05 ort(H,U,f) =-0.155E-04 0.239E-04-0.422E-06
CGA: 201    -0.223330443240E+03   -0.15835E-04   -0.15710E-04  5760   0.883E-04 0.801E-05
 gam= 1.258 trial= 0.326  step= 0.165 mean= 0.326
 gam= 0.946 g(H,U,f)=  0.388E-04 0.397E-04 0.513E-05 ort(H,U,f) =-0.257E-06 0.217E-04-0.498E-05
CGA: 202    -0.223330453004E+03   -0.97638E-05   -0.81195E-05  5760   0.836E-04 0.164E-04
 gam= 0.946 trial= 0.318  step= 0.410 mean= 0.318
 gam= 0.843 g(H,U,f)=  0.360E-04 0.343E-04 0.160E-06 ort(H,U,f) =-0.267E-04 0.184E-04-0.147E-06
CGA: 203    -0.223330472763E+03   -0.19759E-04   -0.20346E-04  5760   0.705E-04-0.841E-05
 gam= 0.843 trial= 0.323  step= 0.497 mean= 0.323
 gam= 0.934 g(H,U,f)=  0.414E-04 0.239E-04 0.475E-06 ort(H,U,f) =-0.223E-04 0.214E-04-0.432E-06
CGA: 204    -0.223330488364E+03   -0.15600E-04   -0.15753E-04  5760   0.658E-04-0.138E-05
 gam= 0.934 trial= 0.331  step= 0.479 mean= 0.331
 gam= 1.013 g(H,U,f)=  0.358E-04 0.302E-04 0.605E-06 ort(H,U,f) =-0.126E-04 0.148E-04-0.407E-06
CGA: 205    -0.223330503800E+03   -0.15436E-04   -0.15454E-04  5760   0.666E-04 0.180E-05
 gam= 1.013 trial= 0.339  step= 0.320 mean= 0.339
 gam= 1.310 g(H,U,f)=  0.306E-04 0.489E-04 0.776E-05 ort(H,U,f) =-0.478E-05 0.874E-05-0.955E-06
CGA: 206    -0.223330514769E+03   -0.10969E-04   -0.10954E-04  5760   0.872E-04 0.301E-05
 gam= 1.310 trial= 0.338  step= 0.178 mean= 0.338
 gam= 0.660 g(H,U,f)=  0.269E-04 0.262E-04 0.450E-05 ort(H,U,f) =-0.325E-05 0.214E-04-0.477E-05
CGA: 207    -0.223330524790E+03   -0.10021E-04   -0.81334E-05  5760   0.576E-04 0.134E-04
 gam= 0.660 trial= 0.330  step= 0.399 mean= 0.330
 gam= 1.154 g(H,U,f)=  0.248E-04 0.383E-04 0.334E-05 ort(H,U,f) =-0.175E-04 0.136E-04-0.762E-06
CGA: 208    -0.223330537667E+03   -0.12877E-04   -0.13254E-04  5760   0.664E-04-0.462E-05
 gam= 1.154 trial= 0.333  step= 0.228 mean= 0.333
 gam= 1.081 g(H,U,f)=  0.292E-04 0.375E-04 0.509E-05 ort(H,U,f) =-0.151E-04 0.224E-04-0.224E-05
CGA: 209    -0.223330545223E+03   -0.75560E-05   -0.69688E-05  5760   0.718E-04 0.508E-05
 gam= 1.081 trial= 0.328  step= 0.355 mean= 0.328
 gam= 1.013 g(H,U,f)=  0.347E-04 0.328E-04 0.524E-05 ort(H,U,f) =-0.321E-04 0.343E-04-0.224E-05
CGA: 210    -0.223330558809E+03   -0.13586E-04   -0.13738E-04  5760   0.728E-04-0.128E-07
 gam= 1.013 trial= 0.329  step= 0.270 mean= 0.329
 gam= 1.290 g(H,U,f)=  0.359E-04 0.502E-04 0.779E-05 ort(H,U,f) =-0.181E-04 0.283E-04-0.371E-05
CGA: 211    -0.223330569114E+03   -0.10305E-04   -0.98188E-05  5760   0.939E-04 0.649E-05
 gam= 1.290 trial= 0.326  step= 0.266 mean= 0.326
 gam= 0.000 g(H,U,f)=  0.452E-04 0.433E-04 0.347E-05 ort(H,U,f) =-0.262E-04 0.290E-04-0.245E-05
SDA: 212    -0.223330583066E+03   -0.13952E-04   -0.13614E-04  5760   0.920E-04 0.431E-06
 gam= 0.000 trial= 0.323  step= 0.177 mean= 0.323
 gam= 0.876 g(H,U,f)=  0.241E-04 0.450E-04 0.115E-04 ort(H,U,f) = 0.260E-04-0.237E-05-0.622E-05
CGA: 213    -0.223330592100E+03   -0.90341E-05   -0.81226E-05  5760   0.806E-04 0.174E-04
 gam= 0.876 trial= 0.316  step= 0.249 mean= 0.316
 gam= 0.589 g(H,U,f)=  0.158E-04 0.276E-04 0.404E-05 ort(H,U,f) = 0.130E-04-0.983E-05-0.357E-05
CGA: 214    -0.223330604937E+03   -0.12836E-04   -0.11919E-04  5760   0.475E-04-0.349E-06
 gam= 0.589 trial= 0.313  step= 0.254 mean= 0.313
 gam= 1.073 g(H,U,f)=  0.110E-04 0.338E-04 0.625E-05 ort(H,U,f) = 0.160E-05 0.492E-05-0.237E-05
CGA: 215    -0.223330611231E+03   -0.62944E-05   -0.60020E-05  5760   0.510E-04 0.415E-05
 gam= 1.073 trial= 0.310  step= 0.276 mean= 0.310
 gam= 0.772 g(H,U,f)=  0.992E-05 0.253E-04 0.410E-05 ort(H,U,f) =-0.568E-05 0.108E-04-0.289E-05
CGA: 216    -0.223330619142E+03   -0.79116E-05   -0.76505E-05  5760   0.394E-04 0.225E-05
 gam= 0.772 trial= 0.308  step= 0.198 mean= 0.308
 gam= 0.692 g(H,U,f)=  0.101E-04 0.143E-04 0.279E-05 ort(H,U,f) =-0.834E-05 0.137E-04-0.139E-05
CGA: 217    -0.223330623631E+03   -0.44886E-05   -0.40696E-05  5760   0.272E-04 0.402E-05
 gam= 0.692 trial= 0.303  step= 0.436 mean= 0.303
 gam= 1.714 g(H,U,f)=  0.967E-05 0.295E-04 0.751E-05 ort(H,U,f) =-0.531E-05 0.759E-05-0.293E-05
CGA: 218    -0.223330629357E+03   -0.57258E-05   -0.65503E-05  5760   0.467E-04-0.648E-06
 gam= 1.714 trial= 0.309  step= 0.152 mean= 0.309
 gam= 0.517 g(H,U,f)=  0.111E-04 0.126E-04 0.392E-06 ort(H,U,f) =-0.123E-04 0.150E-04-0.662E-06
CGA: 219    -0.223330633655E+03   -0.42979E-05   -0.34572E-05  5760   0.241E-04 0.209E-05
 gam= 0.517 trial= 0.301  step= 0.726 mean= 0.301
 gam= 1.357 g(H,U,f)=  0.157E-04 0.160E-04 0.101E-05 ort(H,U,f) =-0.748E-05 0.501E-05 0.966E-07
CGA: 220    -0.223330642313E+03   -0.86580E-05   -0.91508E-05  5760   0.327E-04-0.237E-05
 gam= 1.357 trial= 0.323  step= 0.191 mean= 0.323
 gam= 1.173 g(H,U,f)=  0.129E-04 0.216E-04 0.397E-05 ort(H,U,f) =-0.166E-06 0.864E-05-0.231E-05
CGA: 221    -0.223330645395E+03   -0.30824E-05   -0.28156E-05  5760   0.384E-04 0.617E-05
 gam= 1.173 trial= 0.316  step= 0.313 mean= 0.316
 gam= 0.500 g(H,U,f)=  0.853E-05 0.969E-05 0.995E-06 ort(H,U,f) =-0.495E-05 0.585E-05-0.639E-06
CGA: 222    -0.223330652553E+03   -0.71582E-05   -0.71491E-05  5760   0.192E-04 0.267E-06
 gam= 0.500 trial= 0.316  step= 0.296 mean= 0.316
 gam= 1.588 g(H,U,f)=  0.927E-05 0.174E-04 0.383E-05 ort(H,U,f) = 0.647E-06 0.283E-05-0.134E-05
CGA: 223    -0.223330655460E+03   -0.29068E-05   -0.28644E-05  5760   0.305E-04 0.214E-05
 gam= 1.588 trial= 0.315  step= 0.248 mean= 0.315
 gam= 0.650 g(H,U,f)=  0.712E-05 0.110E-04 0.175E-05 ort(H,U,f) =-0.277E-05 0.314E-05-0.115E-05
CGA: 224    -0.223330659989E+03   -0.45285E-05   -0.42023E-05  5760   0.198E-04-0.781E-06
 gam= 0.650 trial= 0.312  step= 0.314 mean= 0.312
 gam= 1.569 g(H,U,f)=  0.788E-05 0.192E-04 0.399E-05 ort(H,U,f) =-0.124E-05 0.318E-05-0.152E-05
CGA: 225    -0.223330663014E+03   -0.30258E-05   -0.30369E-05  5760   0.311E-04 0.423E-06
 gam= 1.569 trial= 0.312  step= 0.244 mean= 0.312
 gam= 0.565 g(H,U,f)=  0.743E-05 0.883E-05 0.132E-05 ort(H,U,f) =-0.766E-05 0.820E-05-0.942E-06
CGA: 226    -0.223330667154E+03   -0.41400E-05   -0.38813E-05  5760   0.176E-04-0.406E-06
 gam= 0.565 trial= 0.308  step= 0.259 mean= 0.308
 gam= 0.992 g(H,U,f)=  0.637E-05 0.896E-05 0.211E-05 ort(H,U,f) =-0.184E-05 0.505E-05-0.999E-06
CGA: 227    -0.223330669496E+03   -0.23419E-05   -0.22436E-05  5760   0.174E-04 0.221E-05
 gam= 0.992 trial= 0.306  step= 0.248 mean= 0.306
 gam= 0.961 g(H,U,f)=  0.558E-05 0.977E-05 0.142E-05 ort(H,U,f) =-0.131E-05 0.382E-05-0.898E-06
CGA: 228    -0.223330672037E+03   -0.25402E-05   -0.24385E-05  5760   0.168E-04 0.161E-05
 gam= 0.961 trial= 0.303  step= 0.373 mean= 0.303
 gam= 1.495 g(H,U,f)=  0.696E-05 0.147E-04 0.345E-05 ort(H,U,f) =-0.343E-05 0.449E-05-0.848E-06
CGA: 229    -0.223330675258E+03   -0.32210E-05   -0.34203E-05  5760   0.251E-04 0.205E-06
 gam= 1.495 trial= 0.306  step= 0.183 mean= 0.306
 gam= 0.506 g(H,U,f)=  0.629E-05 0.563E-05 0.763E-06 ort(H,U,f) =-0.751E-05 0.923E-05-0.104E-05
CGA: 230    -0.223330677982E+03   -0.27239E-05   -0.23270E-05  5760   0.127E-04 0.679E-06
 gam= 0.506 trial= 0.300  step= 0.538 mean= 0.300
 gam= 2.478 g(H,U,f)=  0.877E-05 0.187E-04 0.394E-05 ort(H,U,f) =-0.293E-05 0.109E-05-0.558E-06
CGA: 231    -0.223330680741E+03   -0.27594E-05   -0.35045E-05  5760   0.314E-04-0.240E-05
 gam= 2.478 trial= 0.312  step= 0.145 mean= 0.312
 gam= 0.624 g(H,U,f)=  0.102E-04 0.935E-05 0.119E-06 ort(H,U,f) =-0.661E-05 0.778E-05-0.438E-06
CGA: 232    -0.223330683018E+03   -0.22766E-05   -0.18458E-05  5760   0.196E-04 0.735E-06
 gam= 0.624 trial= 0.304  step= 0.303 mean= 0.304
 gam= 1.199 g(H,U,f)=  0.737E-05 0.131E-04 0.304E-05 ort(H,U,f) =-0.132E-05 0.469E-05-0.804E-06
CGA: 233    -0.223330686062E+03   -0.30444E-05   -0.30450E-05  5760   0.235E-04 0.257E-05
 gam= 1.199 trial= 0.304  step= 0.100 mean= 0.304
 gam= 0.326 g(H,U,f)=  0.496E-05 0.253E-05 0.182E-06 ort(H,U,f) = 0.270E-06 0.539E-05-0.441E-06
CGA: 234    -0.223330687850E+03   -0.17884E-05   -0.13246E-05  5760   0.767E-05 0.522E-05
 gam= 0.326 trial= 0.294  step= 0.484 mean= 0.294
 gam= 2.332 g(H,U,f)=  0.391E-05 0.113E-04 0.267E-05 ort(H,U,f) = 0.355E-06 0.139E-05 0.497E-07
CGA: 235    -0.223330690231E+03   -0.23801E-05   -0.22647E-05  5760   0.179E-04 0.179E-05
 gam= 2.332 trial= 0.303  step= 0.126 mean= 0.303
 gam= 0.477 g(H,U,f)=  0.357E-05 0.457E-05 0.377E-06 ort(H,U,f) =-0.192E-05 0.577E-05-0.101E-05
CGA: 236    -0.223330692060E+03   -0.18295E-05   -0.13910E-05  5760   0.852E-05 0.284E-05
 gam= 0.477 trial= 0.294  step= 0.491 mean= 0.294
 gam= 0.953 g(H,U,f)=  0.507E-05 0.294E-05 0.121E-06 ort(H,U,f) =-0.456E-05 0.223E-05-0.784E-07
CGA: 237    -0.223330694246E+03   -0.21860E-05   -0.24219E-05  5760   0.812E-05-0.241E-05
 gam= 0.953 trial= 0.304  step= 0.264 mean= 0.304
 gam= 1.688 g(H,U,f)=  0.567E-05 0.667E-05 0.137E-05 ort(H,U,f) =-0.152E-05 0.239E-05-0.206E-06
CGA: 238    -0.223330695033E+03   -0.78659E-06   -0.76967E-06  5760   0.137E-04 0.666E-06
 gam= 1.688 trial= 0.302  step= 0.272 mean= 0.302
 gam= 0.589 g(H,U,f)=  0.343E-05 0.383E-05 0.823E-06 ort(H,U,f) =-0.256E-05 0.386E-05-0.812E-06
CGA: 239    -0.223330697096E+03   -0.20633E-05   -0.20190E-05  5760   0.808E-05 0.482E-06
 gam= 0.589 trial= 0.301  step= 0.179 mean= 0.301
 gam= 0.788 g(H,U,f)=  0.351E-05 0.245E-05 0.407E-06 ort(H,U,f) =-0.321E-06 0.176E-05-0.248E-06
CGA: 240    -0.223330697923E+03   -0.82733E-06   -0.74920E-06  5760   0.636E-05 0.119E-05
 gam= 0.788 trial= 0.295  step= 0.495 mean= 0.295
 gam= 1.494 g(H,U,f)=  0.337E-05 0.503E-05 0.110E-05 ort(H,U,f) =-0.950E-06 0.135E-05-0.354E-06
CGA: 241    -0.223330699634E+03   -0.17110E-05   -0.18054E-05  5760   0.950E-05 0.419E-07
 gam= 1.494 trial= 0.305  step= 0.213 mean= 0.305
 gam= 1.000 g(H,U,f)=  0.351E-05 0.525E-05 0.744E-06 ort(H,U,f) =-0.135E-05 0.249E-05-0.480E-06
CGA: 242    -0.223330700784E+03   -0.11494E-05   -0.10207E-05  5760   0.950E-05 0.663E-06
 gam= 1.000 trial= 0.300  step= 0.284 mean= 0.300
 gam= 0.000 g(H,U,f)=  0.324E-05 0.308E-05 0.380E-06 ort(H,U,f) =-0.391E-05 0.291E-05-0.201E-06
SDA: 243    -0.223330702247E+03   -0.14632E-05   -0.14447E-05  5760   0.670E-05-0.120E-05
 gam= 0.000 trial= 0.299  step= 0.160 mean= 0.299
 gam= 0.928 g(H,U,f)=  0.215E-05 0.342E-05 0.647E-06 ort(H,U,f) = 0.208E-05-0.201E-07-0.491E-06
CGA: 244    -0.223330702833E+03   -0.58636E-06   -0.53656E-06  5760   0.621E-05 0.157E-05
 gam= 0.928 trial= 0.292  step= 0.357 mean= 0.292
 gam= 0.841 g(H,U,f)=  0.131E-05 0.341E-05 0.509E-06 ort(H,U,f) =-0.182E-06 0.563E-06-0.160E-06
CGA: 245    -0.223330704168E+03   -0.13349E-05   -0.13692E-05  5760   0.522E-05 0.221E-06
 gam= 0.841 trial= 0.295  step= 0.274 mean= 0.295
 gam= 1.304 g(H,U,f)=  0.153E-05 0.444E-05 0.838E-06 ort(H,U,f) =-0.119E-05 0.194E-05-0.468E-06
CGA: 246    -0.223330704924E+03   -0.75629E-06   -0.74075E-06  5760   0.682E-05 0.283E-06
 gam= 1.304 trial= 0.294  step= 0.229 mean= 0.294
 final diagonalization
   1 F= -.23256623E+03 E0= -.23256139E+03  d E =-.967779E-02  mag=     6.0000
