       N       E                     dE             d eps       ncg     rms          ort
DAV:   1     0.349035299850E+04    0.34904E+04   -0.13939E+05  5760   0.219E+03
DAV:   2     0.411060356485E+03   -0.30793E+04   -0.28390E+04  5760   0.534E+02
DAV:   3    -0.219841112629E+03   -0.63090E+03   -0.57527E+03  5760   0.254E+02
DAV:   4    -0.270230143114E+03   -0.50389E+02   -0.49371E+02  5760   0.739E+01
DAV:   5    -0.271931739174E+03   -0.17016E+01   -0.16986E+01  5760   0.136E+01
SDA:   6     0.728525330359E+02    0.34478E+03   -0.16986E+01  5760   0.323E+04 0.000E+00
CGA:   7    -0.102359135220E+03   -0.17521E+03   -0.23378E+03  5760   0.115E+04 0.529E+03
CGA:   8    -0.123580347903E+03   -0.21221E+02   -0.14597E+02  5760   0.655E+03 0.948E+03
CGA:   9    -0.132090052825E+03   -0.85097E+01   -0.31991E+01  5760   0.159E+04 0.173E+04
CGA:  10    -0.171205348902E+03   -0.39115E+02   -0.16449E+02  5760   0.306E+03 0.499E+03
CGA:  11    -0.163696439617E+03    0.75089E+01   -0.14506E+02  5760   0.304E+04-0.672E+03
CGA:  12    -0.173888702080E+03   -0.10192E+02   -0.62518E+02  5760   0.175E+04-0.163E+04
CGA:  13    -0.195939605970E+03   -0.22051E+02   -0.26974E+02  5760   0.303E+03-0.578E+03
CGA:  14    -0.202745838997E+03   -0.68062E+01   -0.12343E+02  5760   0.358E+03-0.433E+02
CGA:  15    -0.210279658323E+03   -0.75338E+01   -0.12807E+02  5760   0.220E+03-0.110E+03
CGA:  16    -0.213491644400E+03   -0.32120E+01   -0.72773E+01  5760   0.883E+02-0.474E+02
CGA:  17    -0.216143753673E+03   -0.26521E+01   -0.29840E+01  5760   0.497E+02-0.101E+02
CGA:  18    -0.219684346994E+03   -0.35406E+01   -0.38040E+01  5760   0.227E+02 0.268E+00
CGA:  19    -0.220422842846E+03   -0.73850E+00   -0.77293E+00  5760   0.479E+01-0.129E+01
CGA:  20    -0.220960659454E+03   -0.53782E+00   -0.53897E+00  5760   0.899E+01 0.227E+00
CGA:  21    -0.221595085738E+03   -0.63443E+00   -0.66394E+00  5760   0.382E+01-0.138E+00
CGA:  22    -0.221781481910E+03   -0.18640E+00   -0.19825E+00  5760   0.151E+01-0.166E+00
CGA:  23    -0.221891704447E+03   -0.11022E+00   -0.11458E+00  5760   0.124E+01 0.591E-02
CGA:  24    -0.222008782430E+03   -0.11708E+00   -0.11826E+00  5760   0.141E+01 0.179E-01
CGA:  25    -0.222152168604E+03   -0.14339E+00   -0.14611E+00  5760   0.114E+01 0.103E+00
CGA:  26    -0.222296703068E+03   -0.14453E+00   -0.14313E+00  5760   0.127E+01 0.152E+00
CGA:  27    -0.222485982889E+03   -0.18928E+00   -0.18775E+00  5760   0.131E+01 0.510E-01
CGA:  28    -0.222813204627E+03   -0.32722E+00   -0.30665E+00  5760   0.183E+01 0.150E+00
CGA:  29    -0.223171626539E+03   -0.35842E+00   -0.33850E+00  5760   0.160E+01 0.274E+00
CGA:  30    -0.223523393025E+03   -0.35177E+00   -0.34766E+00  5760   0.167E+01 0.213E-01
CGA:  31    -0.223804718286E+03   -0.28133E+00   -0.27129E+00  5760   0.130E+01 0.182E+00
CGA:  32    -0.224048187587E+03   -0.24347E+00   -0.23418E+00  5760   0.644E+00 0.176E+00
CGA:  33    -0.224251826031E+03   -0.20364E+00   -0.19568E+00  5760   0.547E+00 0.514E-01
CGA:  34    -0.224395144808E+03   -0.14332E+00   -0.14500E+00  5760   0.359E+00-0.156E-01
CGA:  35    -0.224480154555E+03   -0.85010E-01   -0.84131E-01  5760   0.219E+00 0.732E-02
CGA:  36    -0.224537867546E+03   -0.57713E-01   -0.58032E-01  5760   0.186E+00-0.288E-02
CGA:  37    -0.224579098514E+03   -0.41231E-01   -0.41460E-01  5760   0.922E-01-0.261E-02
CGA:  38    -0.224601709359E+03   -0.22611E-01   -0.22648E-01  5760   0.840E-01-0.371E-03
CGA:  39    -0.224621990347E+03   -0.20281E-01   -0.20393E-01  5760   0.505E-01-0.117E-02
CGA:  40    -0.224633624371E+03   -0.11634E-01   -0.11662E-01  5760   0.441E-01-0.332E-03
CGA:  41    -0.224644676059E+03   -0.11052E-01   -0.11040E-01  5760   0.289E-01 0.111E-03
CGA:  42    -0.224651168569E+03   -0.64925E-02   -0.64841E-02  5760   0.221E-01 0.122E-03
SDA:  43    -0.224656617870E+03   -0.54493E-02   -0.54443E-02  5760   0.156E-01 0.600E-04
CGA:  44    -0.224660685636E+03   -0.40678E-02   -0.40652E-02  5760   0.131E-01 0.273E-04
CGA:  45    -0.224665754596E+03   -0.50690E-02   -0.50704E-02  5760   0.848E-02-0.773E-05
CGA:  46    -0.224668148063E+03   -0.23935E-02   -0.23893E-02  5760   0.477E-02 0.401E-04
CGA:  47    -0.224670047475E+03   -0.18994E-02   -0.18987E-02  5760   0.443E-02 0.360E-05
CGA:  48    -0.224671380131E+03   -0.13327E-02   -0.13339E-02  5760   0.351E-02-0.137E-04
CGA:  49    -0.224672546875E+03   -0.11667E-02   -0.11695E-02  5760   0.310E-02-0.229E-04
CGA:  50    -0.224674256147E+03   -0.17093E-02   -0.17225E-02  5760   0.423E-02-0.389E-04
CGA:  51    -0.224676162798E+03   -0.19067E-02   -0.19099E-02  5760   0.641E-02-0.149E-04
CGA:  52    -0.224679126027E+03   -0.29632E-02   -0.29720E-02  5760   0.563E-02-0.390E-04
CGA:  53    -0.224681342262E+03   -0.22162E-02   -0.22130E-02  5760   0.526E-02 0.216E-04
CGA:  54    -0.224683084764E+03   -0.17425E-02   -0.17413E-02  5760   0.342E-02 0.192E-04
CGA:  55    -0.224684212396E+03   -0.11276E-02   -0.11266E-02  5760   0.278E-02 0.173E-04
CGA:  56    -0.224685083805E+03   -0.87141E-03   -0.87108E-03  5760   0.188E-02 0.817E-05
CGA:  57    -0.224685962052E+03   -0.87825E-03   -0.87953E-03  5760   0.206E-02-0.656E-05
CGA:  58    -0.224686576613E+03   -0.61456E-03   -0.61467E-03  5760   0.151E-02-0.505E-05
CGA:  59    -0.224687261298E+03   -0.68468E-03   -0.68759E-03  5760   0.196E-02-0.164E-04
CGA:  60    -0.224687803300E+03   -0.54200E-03   -0.54182E-03  5760   0.967E-03-0.142E-04
CGA:  61    -0.224688269529E+03   -0.46623E-03   -0.46587E-03  5760   0.109E-02 0.186E-05
CGA:  62    -0.224688660317E+03   -0.39079E-03   -0.39035E-03  5760   0.674E-03 0.792E-05
CGA:  63    -0.224688941216E+03   -0.28090E-03   -0.28003E-03  5760   0.853E-03 0.816E-05
CGA:  64    -0.224689259184E+03   -0.31797E-03   -0.31725E-03  5760   0.672E-03 0.121E-04
CGA:  65    -0.224689561104E+03   -0.30192E-03   -0.30100E-03  5760   0.745E-03 0.720E-05
CGA:  66    -0.224689880320E+03   -0.31922E-03   -0.31987E-03  5760   0.766E-03-0.596E-05
CGA:  67    -0.224690184011E+03   -0.30369E-03   -0.30434E-03  5760   0.646E-03-0.817E-05
CGA:  68    -0.224690397355E+03   -0.21334E-03   -0.21340E-03  5760   0.626E-03-0.837E-05
CGA:  69    -0.224690633206E+03   -0.23585E-03   -0.23659E-03  5760   0.537E-03-0.129E-04
CGA:  70    -0.224690821187E+03   -0.18798E-03   -0.18818E-03  5760   0.459E-03-0.722E-05
CGA:  71    -0.224691060815E+03   -0.23963E-03   -0.23994E-03  5760   0.490E-03-0.138E-05
CGA:  72    -0.224691202020E+03   -0.14121E-03   -0.14125E-03  5760   0.404E-03 0.130E-05
CGA:  73    -0.224691397677E+03   -0.19566E-03   -0.19492E-03  5760   0.318E-03 0.519E-05
SDA:  74    -0.224691519950E+03   -0.12227E-03   -0.12206E-03  5760   0.328E-03 0.671E-05
CGA:  75    -0.224691594051E+03   -0.74101E-04   -0.73707E-04  5760   0.223E-03-0.318E-05
CGA:  76    -0.224691712512E+03   -0.11846E-03   -0.11917E-03  5760   0.294E-03-0.360E-05
CGA:  77    -0.224691807840E+03   -0.95328E-04   -0.95334E-04  5760   0.290E-03 0.256E-06
CGA:  78    -0.224691968219E+03   -0.16038E-03   -0.16087E-03  5760   0.316E-03-0.241E-05
CGA:  79    -0.224692092487E+03   -0.12427E-03   -0.12427E-03  5760   0.336E-03-0.104E-06
CGA:  80    -0.224692238538E+03   -0.14605E-03   -0.14554E-03  5760   0.337E-03 0.721E-05
CGA:  81    -0.224692342037E+03   -0.10350E-03   -0.10370E-03  5760   0.283E-03 0.311E-05
CGA:  82    -0.224692467487E+03   -0.12545E-03   -0.12533E-03  5760   0.239E-03 0.147E-05
CGA:  83    -0.224692561338E+03   -0.93851E-04   -0.93756E-04  5760   0.195E-03 0.410E-05
CGA:  84    -0.224692652923E+03   -0.91586E-04   -0.92050E-04  5760   0.171E-03-0.477E-05
CGA:  85    -0.224692749070E+03   -0.96146E-04   -0.97148E-04  5760   0.189E-03-0.476E-05
CGA:  86    -0.224692808876E+03   -0.59806E-04   -0.59692E-04  5760   0.192E-03-0.200E-05
CGA:  87    -0.224692896481E+03   -0.87605E-04   -0.87824E-04  5760   0.228E-03-0.271E-05
CGA:  88    -0.224692965870E+03   -0.69389E-04   -0.69384E-04  5760   0.169E-03-0.635E-07
CGA:  89    -0.224693073629E+03   -0.10776E-03   -0.10694E-03  5760   0.212E-03 0.319E-05
CGA:  90    -0.224693159248E+03   -0.85618E-04   -0.85618E-04  5760   0.189E-03 0.236E-06
CGA:  91    -0.224693268228E+03   -0.10898E-03   -0.10863E-03  5760   0.208E-03 0.195E-05
CGA:  92    -0.224693340842E+03   -0.72614E-04   -0.72617E-04  5760   0.228E-03 0.171E-06
CGA:  93    -0.224693433112E+03   -0.92270E-04   -0.92280E-04  5760   0.209E-03-0.198E-05
CGA:  94    -0.224693510365E+03   -0.77252E-04   -0.77229E-04  5760   0.176E-03-0.916E-06
CGA:  95    -0.224693610100E+03   -0.99735E-04   -0.10010E-03  5760   0.186E-03-0.196E-05
CGA:  96    -0.224693670237E+03   -0.60137E-04   -0.60058E-04  5760   0.161E-03-0.977E-06
CGA:  97    -0.224693731701E+03   -0.61465E-04   -0.61478E-04  5760   0.141E-03 0.720E-06
CGA:  98    -0.224693778756E+03   -0.47055E-04   -0.47156E-04  5760   0.109E-03 0.156E-05
CGA:  99    -0.224693824690E+03   -0.45934E-04   -0.45915E-04  5760   0.742E-04 0.114E-05
CGA: 100    -0.224693870503E+03   -0.45812E-04   -0.45464E-04  5760   0.100E-03 0.168E-05
CGA: 101    -0.224693904004E+03   -0.33502E-04   -0.33533E-04  5760   0.695E-04 0.392E-06
CGA: 102    -0.224693943281E+03   -0.39277E-04   -0.39433E-04  5760   0.124E-03-0.988E-06
CGA: 103    -0.224693978507E+03   -0.35226E-04   -0.35170E-04  5760   0.751E-04-0.434E-06
CGA: 104    -0.224694014393E+03   -0.35885E-04   -0.35889E-04  5760   0.124E-03-0.371E-07
SDA: 105    -0.224694077253E+03   -0.62861E-04   -0.63015E-04  5760   0.719E-04-0.152E-05
CGA: 106    -0.224694100925E+03   -0.23671E-04   -0.23770E-04  5760   0.654E-04 0.115E-05
CGA: 107    -0.224694119885E+03   -0.18960E-04   -0.18952E-04  5760   0.306E-04-0.587E-07
CGA: 108    -0.224694131311E+03   -0.11426E-04   -0.11416E-04  5760   0.352E-04-0.336E-06
CGA: 109    -0.224694143973E+03   -0.12662E-04   -0.12690E-04  5760   0.199E-04 0.696E-06
CGA: 110    -0.224694152227E+03   -0.82536E-05   -0.82548E-05  5760   0.226E-04-0.213E-06
CGA: 111    -0.224694161884E+03   -0.96574E-05   -0.96841E-05  5760   0.240E-04-0.856E-06
CGA: 112    -0.224694169631E+03   -0.77467E-05   -0.77344E-05  5760   0.228E-04-0.177E-06
CGA: 113    -0.224694178392E+03   -0.87614E-05   -0.87588E-05  5760   0.159E-04-0.206E-06
CGA: 114    -0.224694188169E+03   -0.97765E-05   -0.98750E-05  5760   0.183E-04-0.432E-06
CGA: 115    -0.224694194174E+03   -0.60050E-05   -0.60570E-05  5760   0.135E-04 0.744E-06
CGA: 116    -0.224694201470E+03   -0.72965E-05   -0.72297E-05  5760   0.110E-04 0.623E-06
CGA: 117    -0.224694205915E+03   -0.44445E-05   -0.44451E-05  5760   0.118E-04 0.222E-07
CGA: 118    -0.224694210144E+03   -0.42293E-05   -0.42493E-05  5760   0.109E-04 0.378E-06
CGA: 119    -0.224694213534E+03   -0.33896E-05   -0.34092E-05  5760   0.724E-05 0.185E-06
CGA: 120    -0.224694217820E+03   -0.42869E-05   -0.44310E-05  5760   0.869E-05-0.727E-06
CGA: 121    -0.224694220076E+03   -0.22556E-05   -0.22700E-05  5760   0.473E-05 0.117E-06
CGA: 122    -0.224694222714E+03   -0.26384E-05   -0.26529E-05  5760   0.351E-05-0.988E-07
CGA: 123    -0.224694224017E+03   -0.13029E-05   -0.12934E-05  5760   0.341E-05-0.246E-06
CGA: 124    -0.224694225055E+03   -0.10382E-05   -0.10685E-05  5760   0.191E-05 0.400E-06
CGA: 125    -0.224694225710E+03   -0.65437E-06   -0.67866E-06  5760   0.155E-05 0.270E-06
   1 F= -.23423322E+03 E0= -.23423322E+03  d E =-.191459E-11  mag=     6.0000
