       N       E                     dE             d eps       ncg     rms          ort
DAV:   1     0.348054028587E+04    0.34805E+04   -0.13928E+05  5760   0.218E+03
DAV:   2     0.412836421656E+03   -0.30677E+04   -0.28280E+04  5760   0.531E+02
DAV:   3    -0.218722830854E+03   -0.63156E+03   -0.57744E+03  5760   0.253E+02
DAV:   4    -0.269661872432E+03   -0.50939E+02   -0.49833E+02  5760   0.740E+01
DAV:   5    -0.271416611635E+03   -0.17547E+01   -0.17514E+01  5760   0.138E+01
SDA:   6     0.870369409429E+02    0.35845E+03   -0.17514E+01  5760   0.502E+04 0.000E+00
CGA:   7    -0.538994487012E+01   -0.92427E+02   -0.21720E+03  5760   0.640E+04 0.282E+03
CGA:   8    -0.606587275677E+02   -0.55269E+02   -0.27815E+03  5760   0.406E+04-0.264E+03
CGA:   9    -0.166391878655E+03   -0.10573E+03   -0.80370E+02  5760   0.219E+04-0.295E+04
CGA:  10    -0.179784554484E+03   -0.13393E+02   -0.69111E+02  5760   0.127E+04-0.765E+03
CGA:  11    -0.194652572535E+03   -0.14868E+02   -0.38473E+02  5760   0.889E+03-0.671E+03
CGA:  12    -0.199764760805E+03   -0.51122E+01   -0.28119E+02  5760   0.699E+03-0.516E+03
CGA:  13    -0.205289911504E+03   -0.55252E+01   -0.19829E+02  5760   0.549E+03-0.615E+03
CGA:  14    -0.200841754096E+03    0.44482E+01   -0.21788E+02  5760   0.771E+03-0.498E+03
CGA:  15    -0.205806874569E+03   -0.49651E+01   -0.23103E+02  5760   0.668E+03-0.764E+03
CGA:  16    -0.200758507479E+03    0.50484E+01   -0.26541E+02  5760   0.781E+03-0.552E+03
CGA:  17    -0.209979172309E+03   -0.92207E+01   -0.22560E+02  5760   0.454E+03-0.679E+03
CGA:  18    -0.208654667581E+03    0.13245E+01   -0.17064E+02  5760   0.437E+03-0.351E+03
CGA:  19    -0.215676364547E+03   -0.70217E+01   -0.11501E+02  5760   0.938E+02-0.205E+03
CGA:  20    -0.217559613444E+03   -0.18832E+01   -0.25078E+01  5760   0.177E+02-0.634E+01
CGA:  21    -0.218173426381E+03   -0.61381E+00   -0.59942E+00  5760   0.796E+01 0.387E+00
CGA:  22    -0.219689519832E+03   -0.15161E+01   -0.14380E+01  5760   0.143E+02 0.952E+00
CGA:  23    -0.220300588745E+03   -0.61107E+00   -0.61568E+00  5760   0.223E+01 0.268E+00
CGA:  24    -0.220454329872E+03   -0.15374E+00   -0.16055E+00  5760   0.237E+01-0.507E-02
CGA:  25    -0.220691160901E+03   -0.23683E+00   -0.23598E+00  5760   0.218E+01-0.354E-01
CGA:  26    -0.220820487509E+03   -0.12933E+00   -0.13506E+00  5760   0.911E+00-0.236E-01
CGA:  27    -0.220877872603E+03   -0.57385E-01   -0.56740E-01  5760   0.594E+00-0.120E-02
CGA:  28    -0.220941407604E+03   -0.63535E-01   -0.63474E-01  5760   0.833E+00 0.114E-01
CGA:  29    -0.221013337416E+03   -0.71930E-01   -0.73691E-01  5760   0.621E+00 0.296E-01
CGA:  30    -0.221066237623E+03   -0.52900E-01   -0.53969E-01  5760   0.604E+00 0.146E-01
CGA:  31    -0.221139308063E+03   -0.73070E-01   -0.72331E-01  5760   0.702E+00 0.310E-01
CGA:  32    -0.221233550644E+03   -0.94243E-01   -0.92176E-01  5760   0.104E+01 0.620E-01
CGA:  33    -0.221373918317E+03   -0.14037E+00   -0.14386E+00  5760   0.140E+01-0.108E+00
CGA:  34    -0.221510146225E+03   -0.13623E+00   -0.13608E+00  5760   0.102E+01 0.225E-01
CGA:  35    -0.221653857902E+03   -0.14371E+00   -0.14013E+00  5760   0.131E+01 0.819E-01
CGA:  36    -0.221806429451E+03   -0.15257E+00   -0.15248E+00  5760   0.988E+00 0.497E-01
CGA:  37    -0.221989947359E+03   -0.18352E+00   -0.17805E+00  5760   0.774E+00 0.617E-01
CGA:  38    -0.222166959289E+03   -0.17701E+00   -0.16951E+00  5760   0.758E+00 0.696E-01
CGA:  39    -0.222337952628E+03   -0.17099E+00   -0.17049E+00  5760   0.842E+00-0.447E-02
CGA:  40    -0.222465656213E+03   -0.12770E+00   -0.12795E+00  5760   0.791E+00-0.474E-01
CGA:  41    -0.222581262254E+03   -0.11561E+00   -0.11695E+00  5760   0.691E+00-0.143E+00
CGA:  42    -0.222640569765E+03   -0.59308E-01   -0.37688E-01  5760   0.651E+00 0.555E-01
CGA:  43    -0.222696928305E+03   -0.56359E-01   -0.52100E-01  5760   0.153E+01-0.184E+00
CGA:  44    -0.222732605347E+03   -0.35677E-01   -0.18312E-01  5760   0.159E+01 0.625E+00
CGA:  45    -0.222817653502E+03   -0.85048E-01   -0.62883E-01  5760   0.654E+00 0.788E+00
CGA:  46    -0.222863399171E+03   -0.45746E-01   -0.58023E-01  5760   0.108E+01-0.100E+00
CGA:  47    -0.222892017080E+03   -0.28618E-01   -0.18095E-01  5760   0.122E+01 0.632E+00
CGA:  48    -0.222964816547E+03   -0.72799E-01   -0.69814E-01  5760   0.465E+00 0.381E-01
CGA:  49    -0.223096773563E+03   -0.13196E+00   -0.11037E+00  5760   0.577E+00 0.156E+00
CGA:  50    -0.223222351900E+03   -0.12558E+00   -0.11012E+00  5760   0.191E+00 0.278E+00
CGA:  51    -0.223300008841E+03   -0.77657E-01   -0.79669E-01  5760   0.416E+00-0.127E-01
CGA:  52    -0.223360871777E+03   -0.60863E-01   -0.60233E-01  5760   0.542E+00 0.889E-02
CGA:  53    -0.223413963105E+03   -0.53091E-01   -0.54031E-01  5760   0.232E+00 0.143E-01
CGA:  54    -0.223439084828E+03   -0.25122E-01   -0.25269E-01  5760   0.123E+00 0.536E-02
CGA:  55    -0.223459674715E+03   -0.20590E-01   -0.20470E-01  5760   0.108E+00 0.206E-02
CGA:  56    -0.223478773202E+03   -0.19098E-01   -0.19191E-01  5760   0.104E+00-0.138E-02
CGA:  57    -0.223497883972E+03   -0.19111E-01   -0.19149E-01  5760   0.107E+00-0.541E-03
CGA:  58    -0.223514025189E+03   -0.16141E-01   -0.16089E-01  5760   0.708E-01 0.133E-02
CGA:  59    -0.223525571713E+03   -0.11547E-01   -0.11519E-01  5760   0.597E-01 0.703E-03
CGA:  60    -0.223537684838E+03   -0.12113E-01   -0.12166E-01  5760   0.591E-01 0.947E-03
CGA:  61    -0.223546765933E+03   -0.90811E-02   -0.90614E-02  5760   0.351E-01 0.114E-02
CGA:  62    -0.223552721010E+03   -0.59551E-02   -0.59972E-02  5760   0.333E-01-0.754E-03
CGA:  63    -0.223559033729E+03   -0.63127E-02   -0.63057E-02  5760   0.320E-01 0.947E-04
CGA:  64    -0.223563933624E+03   -0.48999E-02   -0.48985E-02  5760   0.217E-01 0.529E-04
CGA:  65    -0.223567607703E+03   -0.36741E-02   -0.36779E-02  5760   0.197E-01-0.952E-04
CGA:  66    -0.223571498017E+03   -0.38903E-02   -0.39027E-02  5760   0.243E-01-0.172E-03
CGA:  67    -0.223576108278E+03   -0.46103E-02   -0.46184E-02  5760   0.216E-01-0.157E-03
CGA:  68    -0.223579072479E+03   -0.29642E-02   -0.29641E-02  5760   0.136E-01 0.257E-04
CGA:  69    -0.223581586480E+03   -0.25140E-02   -0.25095E-02  5760   0.165E-01 0.117E-03
CGA:  70    -0.223585387772E+03   -0.38013E-02   -0.37938E-02  5760   0.220E-01 0.108E-03
CGA:  71    -0.223589191403E+03   -0.38036E-02   -0.38036E-02  5760   0.169E-01-0.514E-06
CGA:  72    -0.223592269723E+03   -0.30783E-02   -0.30795E-02  5760   0.205E-01 0.226E-04
CGA:  73    -0.223597878446E+03   -0.56087E-02   -0.56445E-02  5760   0.335E-01-0.350E-03
CGA:  74    -0.223603287847E+03   -0.54094E-02   -0.54151E-02  5760   0.222E-01-0.601E-03
CGA:  75    -0.223607043753E+03   -0.37559E-02   -0.37570E-02  5760   0.209E-01 0.319E-04
CGA:  76    -0.223611052847E+03   -0.40091E-02   -0.40087E-02  5760   0.206E-01-0.798E-05
CGA:  77    -0.223614824564E+03   -0.37717E-02   -0.37737E-02  5760   0.195E-01-0.994E-04
SDA:  78    -0.223618332774E+03   -0.35082E-02   -0.35106E-02  5760   0.167E-01-0.107E-03
CGA:  79    -0.223622216397E+03   -0.38836E-02   -0.38819E-02  5760   0.942E-02 0.295E-04
CGA:  80    -0.223626284067E+03   -0.40677E-02   -0.40679E-02  5760   0.689E-02-0.940E-06
CGA:  81    -0.223628788871E+03   -0.25048E-02   -0.25107E-02  5760   0.543E-02-0.323E-04
CGA:  82    -0.223630387923E+03   -0.15991E-02   -0.15982E-02  5760   0.366E-02 0.110E-04
CGA:  83    -0.223631568159E+03   -0.11802E-02   -0.11793E-02  5760   0.299E-02 0.691E-05
CGA:  84    -0.223632734451E+03   -0.11663E-02   -0.11710E-02  5760   0.303E-02-0.241E-04
CGA:  85    -0.223634128232E+03   -0.13938E-02   -0.13913E-02  5760   0.389E-02 0.107E-04
CGA:  86    -0.223635525236E+03   -0.13970E-02   -0.13982E-02  5760   0.440E-02-0.837E-05
CGA:  87    -0.223637162586E+03   -0.16373E-02   -0.16407E-02  5760   0.545E-02-0.236E-04
CGA:  88    -0.223639385401E+03   -0.22228E-02   -0.22257E-02  5760   0.473E-02-0.124E-04
CGA:  89    -0.223641627491E+03   -0.22421E-02   -0.22465E-02  5760   0.668E-02 0.290E-05
CGA:  90    -0.223644506603E+03   -0.28791E-02   -0.28851E-02  5760   0.595E-02-0.283E-04
CGA:  91    -0.223647438793E+03   -0.29322E-02   -0.29442E-02  5760   0.855E-02-0.402E-04
CGA:  92    -0.223650585055E+03   -0.31463E-02   -0.31606E-02  5760   0.795E-02-0.626E-04
CGA:  93    -0.223653346101E+03   -0.27610E-02   -0.27630E-02  5760   0.830E-02-0.265E-04
CGA:  94    -0.223656398606E+03   -0.30525E-02   -0.30617E-02  5760   0.473E-02-0.769E-04
CGA:  95    -0.223658544360E+03   -0.21458E-02   -0.21473E-02  5760   0.440E-02-0.788E-05
CGA:  96    -0.223660310288E+03   -0.17659E-02   -0.17668E-02  5760   0.374E-02-0.125E-04
CGA:  97    -0.223661774357E+03   -0.14641E-02   -0.14641E-02  5760   0.216E-02 0.921E-06
CGA:  98    -0.223662814844E+03   -0.10405E-02   -0.10390E-02  5760   0.240E-02 0.107E-04
CGA:  99    -0.223663976641E+03   -0.11618E-02   -0.11655E-02  5760   0.240E-02-0.163E-04
CGA: 100    -0.223665391054E+03   -0.14144E-02   -0.14117E-02  5760   0.438E-02 0.964E-05
CGA: 101    -0.223666938134E+03   -0.15471E-02   -0.15476E-02  5760   0.389E-02-0.696E-05
CGA: 102    -0.223668160680E+03   -0.12225E-02   -0.12217E-02  5760   0.425E-02-0.193E-04
CGA: 103    -0.223669768325E+03   -0.16076E-02   -0.16099E-02  5760   0.306E-02-0.327E-04
CGA: 104    -0.223671291027E+03   -0.15227E-02   -0.15315E-02  5760   0.405E-02-0.456E-04
CGA: 105    -0.223672855607E+03   -0.15646E-02   -0.15681E-02  5760   0.392E-02-0.502E-04
CGA: 106    -0.223674773136E+03   -0.19175E-02   -0.19246E-02  5760   0.518E-02-0.421E-04
CGA: 107    -0.223676117689E+03   -0.13446E-02   -0.13350E-02  5760   0.409E-02 0.463E-05
CGA: 108    -0.223677899564E+03   -0.17819E-02   -0.17848E-02  5760   0.465E-02-0.180E-04
SDA: 109    -0.223679442827E+03   -0.15433E-02   -0.15428E-02  5760   0.363E-02-0.641E-05
CGA: 110    -0.223680518345E+03   -0.10755E-02   -0.10759E-02  5760   0.420E-02 0.312E-05
CGA: 111    -0.223682216726E+03   -0.16984E-02   -0.16996E-02  5760   0.348E-02-0.142E-05
CGA: 112    -0.223683516838E+03   -0.13001E-02   -0.13001E-02  5760   0.395E-02 0.275E-05
CGA: 113    -0.223685098207E+03   -0.15814E-02   -0.15810E-02  5760   0.304E-02 0.661E-05
CGA: 114    -0.223686324184E+03   -0.12260E-02   -0.12261E-02  5760   0.370E-02 0.119E-05
CGA: 115    -0.223687368779E+03   -0.10446E-02   -0.10447E-02  5760   0.302E-02 0.305E-07
CGA: 116    -0.223689033482E+03   -0.16647E-02   -0.16658E-02  5760   0.378E-02-0.536E-05
CGA: 117    -0.223690335559E+03   -0.13021E-02   -0.13018E-02  5760   0.226E-02-0.256E-05
CGA: 118    -0.223691528182E+03   -0.11926E-02   -0.11929E-02  5760   0.222E-02-0.143E-05
CGA: 119    -0.223692176517E+03   -0.64833E-03   -0.64805E-03  5760   0.118E-02-0.166E-05
CGA: 120    -0.223692652133E+03   -0.47562E-03   -0.47562E-03  5760   0.171E-02 0.134E-05
CGA: 121    -0.223693168724E+03   -0.51659E-03   -0.51675E-03  5760   0.105E-02 0.235E-05
CGA: 122    -0.223693783964E+03   -0.61524E-03   -0.61580E-03  5760   0.158E-02-0.272E-05
CGA: 123    -0.223694302935E+03   -0.51897E-03   -0.51918E-03  5760   0.137E-02 0.367E-05
CGA: 124    -0.223694834476E+03   -0.53154E-03   -0.53150E-03  5760   0.131E-02 0.340E-05
CGA: 125    -0.223695260652E+03   -0.42618E-03   -0.42613E-03  5760   0.815E-03-0.232E-05
CGA: 126    -0.223695666734E+03   -0.40608E-03   -0.40570E-03  5760   0.814E-03 0.283E-05
CGA: 127    -0.223695933474E+03   -0.26674E-03   -0.26668E-03  5760   0.618E-03-0.996E-06
CGA: 128    -0.223696164894E+03   -0.23142E-03   -0.23142E-03  5760   0.651E-03-0.133E-05
CGA: 129    -0.223696349302E+03   -0.18441E-03   -0.18455E-03  5760   0.414E-03 0.152E-05
CGA: 130    -0.223696546257E+03   -0.19695E-03   -0.19688E-03  5760   0.346E-03 0.724E-06
CGA: 131    -0.223696667282E+03   -0.12103E-03   -0.12098E-03  5760   0.249E-03-0.166E-05
CGA: 132    -0.223696772028E+03   -0.10475E-03   -0.10471E-03  5760   0.220E-03 0.908E-06
CGA: 133    -0.223696830483E+03   -0.58455E-04   -0.58575E-04  5760   0.127E-03 0.110E-05
CGA: 134    -0.223696879419E+03   -0.48935E-04   -0.48940E-04  5760   0.122E-03-0.572E-06
CGA: 135    -0.223696917586E+03   -0.38168E-04   -0.38214E-04  5760   0.641E-04 0.787E-06
CGA: 136    -0.223696940306E+03   -0.22719E-04   -0.22736E-04  5760   0.707E-04 0.891E-06
CGA: 137    -0.223696963550E+03   -0.23244E-04   -0.23213E-04  5760   0.456E-04-0.687E-06
CGA: 138    -0.223696982035E+03   -0.18485E-04   -0.18539E-04  5760   0.432E-04-0.127E-05
CGA: 139    -0.223697000912E+03   -0.18877E-04   -0.18794E-04  5760   0.390E-04 0.107E-05
SDA: 140    -0.223697019758E+03   -0.18846E-04   -0.18934E-04  5760   0.553E-04-0.879E-06
CGA: 141    -0.223697028804E+03   -0.90464E-05   -0.91217E-05  5760   0.242E-04 0.345E-06
CGA: 142    -0.223697039460E+03   -0.10656E-04   -0.10637E-04  5760   0.279E-04 0.266E-06
CGA: 143    -0.223697050271E+03   -0.10811E-04   -0.10811E-04  5760   0.199E-04-0.299E-07
CGA: 144    -0.223697059687E+03   -0.94158E-05   -0.93475E-05  5760   0.267E-04 0.695E-06
CGA: 145    -0.223697069371E+03   -0.96839E-05   -0.96884E-05  5760   0.207E-04 0.169E-06
CGA: 146    -0.223697079362E+03   -0.99916E-05   -0.10043E-04  5760   0.340E-04-0.488E-06
CGA: 147    -0.223697094141E+03   -0.14779E-04   -0.14773E-04  5760   0.277E-04 0.900E-07
CGA: 148    -0.223697106707E+03   -0.12566E-04   -0.12592E-04  5760   0.384E-04-0.376E-06
CGA: 149    -0.223697125256E+03   -0.18549E-04   -0.18568E-04  5760   0.413E-04-0.174E-06
CGA: 150    -0.223697137447E+03   -0.12191E-04   -0.12209E-04  5760   0.381E-04 0.191E-06
CGA: 151    -0.223697152449E+03   -0.15002E-04   -0.15003E-04  5760   0.398E-04-0.212E-06
CGA: 152    -0.223697165631E+03   -0.13181E-04   -0.13181E-04  5760   0.238E-04-0.215E-07
CGA: 153    -0.223697176974E+03   -0.11343E-04   -0.11319E-04  5760   0.201E-04 0.288E-06
CGA: 154    -0.223697185930E+03   -0.89560E-05   -0.89654E-05  5760   0.173E-04-0.187E-06
CGA: 155    -0.223697192506E+03   -0.65763E-05   -0.65794E-05  5760   0.133E-04 0.385E-06
CGA: 156    -0.223697197460E+03   -0.49539E-05   -0.49554E-05  5760   0.149E-04 0.604E-07
CGA: 157    -0.223697202748E+03   -0.52879E-05   -0.52782E-05  5760   0.867E-05-0.267E-06
CGA: 158    -0.223697206473E+03   -0.37251E-05   -0.37262E-05  5760   0.902E-05-0.200E-07
CGA: 159    -0.223697209133E+03   -0.26594E-05   -0.26749E-05  5760   0.476E-05 0.161E-06
CGA: 160    -0.223697210707E+03   -0.15741E-05   -0.15640E-05  5760   0.520E-05-0.160E-06
CGA: 161    -0.223697212407E+03   -0.17002E-05   -0.16932E-05  5760   0.305E-05-0.151E-06
CGA: 162    -0.223697213676E+03   -0.12696E-05   -0.12590E-05  5760   0.259E-05 0.243E-06
CGA: 163    -0.223697215253E+03   -0.15765E-05   -0.15957E-05  5760   0.268E-05-0.101E-06
CGA: 164    -0.223697216285E+03   -0.10320E-05   -0.10307E-05  5760   0.260E-05 0.165E-06
CGA: 165    -0.223697217135E+03   -0.85017E-06   -0.85854E-06  5760   0.193E-05 0.106E-06
   1 F= -.23278312E+03 E0= -.23278312E+03  d E =-.596863E-05  mag=     6.0000
