 vasp.5.4.4.18Apr17-6-g9f103f2a35 (build Nov 22 2021 14:44:17) complex          
  
 executed on             LinuxIFC date 2022.08.06  11:38:08
 running on   64 total cores
 distrk:  each k-point on   64 cores,    1 groups
 distr:  one band on NCORES_PER_BAND=   4 cores,   16 groups


--------------------------------------------------------------------------------------------------------


 INCAR:
 POTCAR:    PAW_PBE Li 17Jan2003                  
 POTCAR:    PAW_PBE Co 02Aug2007                  
 POTCAR:    PAW_PBE O 08Apr2002                   
 POTCAR:    PAW_PBE Li 17Jan2003                  
   VRHFIN =Li: s1p0                                                             
   LEXCH  = PE                                                                  
   EATOM  =     5.3001 eV,    0.3895 Ry                                         
                                                                                
   TITEL  = PAW_PBE Li 17Jan2003                                                
   LULTRA =        F    use ultrasoft PP ?                                      
   IUNSCR =        1    unscreen: 0-lin 1-nonlin 2-no                           
   RPACOR =    1.500    partial core radius                                     
   POMASS =    7.010; ZVAL   =    1.000    mass and valenz                      
   RCORE  =    2.050    outmost cutoff radius                                   
   RWIGS  =    2.600; RWIGS  =    1.376    wigner-seitz radius (au A)           
   ENMAX  =  140.000; ENMIN  =  100.000 eV                                      
   ICORE  =        2    local potential                                         
   LCOR   =        T    correct aug charges                                     
   LPAW   =        T    paw PP                                                  
   EAUG   =  331.638                                                            
   DEXC   =    0.000                                                            
   RMAX   =    2.098    core radius for proj-oper                               
   RAUG   =    1.300    factor for augmentation sphere                          
   RDEP   =    2.094    radius for radial grids                                 
   RDEPT  =    1.810    core radius for aug-charge                              
                                                                                
   Atomic configuration                                                         
    4 entries                                                                   
     n  l   j            E        occ.                                          
     1  0  0.50       -51.8549   2.0000                                         
     2  0  0.50        -2.8742   1.0000                                         
     2  1  0.50        -1.3606   0.0000                                         
     3  2  1.50        -1.3606   0.0000                                         
   Description                                                                  
     l       E           TYP  RCUT    TYP  RCUT                                 
     0     -2.8742052     23  2.050                                             
     0     27.2116520     23  2.050                                             
     1     -1.3605826     23  2.050                                             
     2     -1.3605826     23  2.050                                             
  local pseudopotential read in
  partial core-charges read in
  partial kinetic energy density read in
  atomic valenz-charges read in
  non local Contribution for L=           0  read in
    real space projection operators read in
  non local Contribution for L=           0  read in
    real space projection operators read in
  non local Contribution for L=           1  read in
    real space projection operators read in
    PAW grid and wavefunctions read in
 
   number of l-projection  operators is LMAX  =           3
   number of lm-projection operators is LMMAX =           5
 
 POTCAR:    PAW_PBE Co 02Aug2007                  
   VRHFIN =Co: d8 s1                                                            
   LEXCH  = PE                                                                  
   EATOM  =   813.3670 eV,   59.7808 Ry                                         
                                                                                
   TITEL  = PAW_PBE Co 02Aug2007                                                
   LULTRA =        F    use ultrasoft PP ?                                      
   IUNSCR =        1    unscreen: 0-lin 1-nonlin 2-no                           
   RPACOR =    2.000    partial core radius                                     
   POMASS =   58.933; ZVAL   =    9.000    mass and valenz                      
   RCORE  =    2.300    outmost cutoff radius                                   
   RWIGS  =    2.460; RWIGS  =    1.302    wigner-seitz radius (au A)           
   ENMAX  =  267.968; ENMIN  =  200.976 eV                                      
   RCLOC  =    1.203    cutoff for local pot                                    
   LCOR   =        T    correct aug charges                                     
   LPAW   =        T    paw PP                                                  
   EAUG   =  477.818                                                            
   DEXC   =    0.000                                                            
   RMAX   =    2.360    core radius for proj-oper                               
   RAUG   =    1.300    factor for augmentation sphere                          
   RDEP   =    2.393    radius for radial grids                                 
   RDEPT  =    1.864    core radius for aug-charge                              
                                                                                
   Atomic configuration                                                         
    9 entries                                                                   
     n  l   j            E        occ.                                          
     1  0  0.50     -7587.6674   2.0000                                         
     2  0  0.50      -893.6084   2.0000                                         
     2  1  1.50      -764.5805   6.0000                                         
     3  0  0.50       -97.5973   2.0000                                         
     3  1  1.50       -60.9648   6.0000                                         
     3  2  2.50        -4.2382   8.0000                                         
     4  0  0.50        -4.3746   1.0000                                         
     4  1  1.50        -4.0817   0.0000                                         
     4  3  2.50        -1.3606   0.0000                                         
   Description                                                                  
     l       E           TYP  RCUT    TYP  RCUT                                 
     2     -4.2382362     23  2.300                                             
     2     -5.5988188     23  2.300                                             
     0     -4.3745797     23  2.300                                             
     0      5.7660125     23  2.300                                             
     1     -2.7211652     23  2.300                                             
     1     16.9860234     23  2.300                                             
  local pseudopotential read in
  partial core-charges read in
  partial kinetic energy density read in
  atomic valenz-charges read in
  non local Contribution for L=           2  read in
    real space projection operators read in
  non local Contribution for L=           2  read in
    real space projection operators read in
  non local Contribution for L=           0  read in
    real space projection operators read in
  non local Contribution for L=           0  read in
    real space projection operators read in
  non local Contribution for L=           1  read in
    real space projection operators read in
  non local Contribution for L=           1  read in
    real space projection operators read in
    PAW grid and wavefunctions read in
 
   number of l-projection  operators is LMAX  =           6
   number of lm-projection operators is LMMAX =          18
 
 POTCAR:    PAW_PBE O 08Apr2002                   
   VRHFIN =O: s2p4                                                              
   LEXCH  = PE                                                                  
   EATOM  =   432.3788 eV,   31.7789 Ry                                         
                                                                                
   TITEL  = PAW_PBE O 08Apr2002                                                 
   LULTRA =        F    use ultrasoft PP ?                                      
   IUNSCR =        1    unscreen: 0-lin 1-nonlin 2-no                           
   RPACOR =    1.200    partial core radius                                     
   POMASS =   16.000; ZVAL   =    6.000    mass and valenz                      
   RCORE  =    1.520    outmost cutoff radius                                   
   RWIGS  =    1.550; RWIGS  =    0.820    wigner-seitz radius (au A)           
   ENMAX  =  400.000; ENMIN  =  300.000 eV                                      
   ICORE  =        2    local potential                                         
   LCOR   =        T    correct aug charges                                     
   LPAW   =        T    paw PP                                                  
   EAUG   =  605.392                                                            
   DEXC   =    0.000                                                            
   RMAX   =    1.553    core radius for proj-oper                               
   RAUG   =    1.300    factor for augmentation sphere                          
   RDEP   =    1.550    radius for radial grids                                 
   RDEPT  =    1.329    core radius for aug-charge                              
                                                                                
   Atomic configuration                                                         
    4 entries                                                                   
     n  l   j            E        occ.                                          
     1  0  0.50      -514.6923   2.0000                                         
     2  0  0.50       -23.9615   2.0000                                         
     2  1  0.50        -9.0305   4.0000                                         
     3  2  1.50        -9.5241   0.0000                                         
   Description                                                                  
     l       E           TYP  RCUT    TYP  RCUT                                 
     0    -23.9615318     23  1.200                                             
     0     -9.5240782     23  1.200                                             
     1     -9.0304911     23  1.520                                             
     1      8.1634956     23  1.520                                             
     2     -9.5240782      7  1.500                                             
  local pseudopotential read in
  partial core-charges read in
  partial kinetic energy density read in
  kinetic energy density of atom read in
  atomic valenz-charges read in
  non local Contribution for L=           0  read in
    real space projection operators read in
  non local Contribution for L=           0  read in
    real space projection operators read in
  non local Contribution for L=           1  read in
    real space projection operators read in
  non local Contribution for L=           1  read in
    real space projection operators read in
    PAW grid and wavefunctions read in
 
   number of l-projection  operators is LMAX  =           4
   number of lm-projection operators is LMMAX =           8
 
 Optimization of the real space projectors (new method)

 maximal supplied QI-value         = 18.33
 optimisation between [QCUT,QGAM] = [ 12.46, 24.93] = [ 43.51,174.03] Ry 
 Optimized for a Real-space Cutoff    1.13 Angstroem

   l    n(q)    QCUT    max X(q) W(low)/X(q) W(high)/X(q)  e(spline) 
   0      8    12.465    33.825    0.12E-03    0.29E-03    0.99E-07
   0      8    12.465     8.944    0.86E-04    0.22E-03    0.72E-07
   1      8    12.465     4.214    0.27E-03    0.11E-03    0.82E-07
 Optimization of the real space projectors (new method)

 maximal supplied QI-value         = 16.25
 optimisation between [QCUT,QGAM] = [ 12.51, 25.03] = [ 43.85,175.40] Ry 
 Optimized for a Real-space Cutoff    1.31 Angstroem

   l    n(q)    QCUT    max X(q) W(low)/X(q) W(high)/X(q)  e(spline) 
   2      9    12.514    65.824    0.30E-03    0.46E-03    0.43E-06
   2      9    12.514    61.429    0.31E-03    0.46E-03    0.44E-06
   0     10    12.514    56.174    0.90E-04    0.33E-03    0.30E-06
   0     10    12.514    31.263    0.81E-04    0.30E-03    0.28E-06
   1      9    12.514    19.828    0.38E-03    0.65E-04    0.24E-06
   1      9    12.514    15.139    0.32E-03    0.60E-04    0.20E-06
 Optimization of the real space projectors (new method)

 maximal supplied QI-value         = 24.76
 optimisation between [QCUT,QGAM] = [ 12.38, 25.00] = [ 42.90,175.06] Ry 
 Optimized for a Real-space Cutoff    1.13 Angstroem

   l    n(q)    QCUT    max X(q) W(low)/X(q) W(high)/X(q)  e(spline) 
   0      8    12.378    20.381    0.16E-03    0.54E-05    0.27E-06
   0      8    12.378    15.268    0.17E-03    0.61E-05    0.29E-06
   1      8    12.378     5.964    0.38E-03    0.23E-03    0.28E-06
   1      8    12.378     5.382    0.33E-03    0.20E-03    0.25E-06
  PAW_PBE Li 17Jan2003                  :
 energy of atom  1       EATOM=   -5.3001
 kinetic energy error for atom=    0.0000 (will be added to EATOM!!)
  PAW_PBE Co 02Aug2007                  :
 energy of atom  2       EATOM= -813.3670
 kinetic energy error for atom=    0.0018 (will be added to EATOM!!)
  PAW_PBE O 08Apr2002                   :
 energy of atom  3       EATOM= -432.3788
 kinetic energy error for atom=    0.0168 (will be added to EATOM!!)
 
 
 POSCAR: Li6 Co12 O24                            
  positions in cartesian coordinates
  No initial velocities read in
 exchange correlation table for  LEXCH =        8
   RHO(1)=    0.500       N(1)  =     2000
   RHO(2)=  100.500       N(2)  =     4000
 


--------------------------------------------------------------------------------------------------------


 ion  position               nearest neighbor table
   1  0.468  0.929  0.983-  36 1.88  38 1.99  37 2.16  24 2.17  23 2.39  25 2.45  16 2.66  17 2.82
                            15 2.82   8 3.07  10 3.09
   2  0.807  0.623  0.327-  33 1.80  19 1.84  22 1.88  20 2.25  34 2.42  32 2.49  10 2.56   8 2.74
                             9 2.75  12 2.79  14 2.93
   3  0.171  0.319  0.677-  39 1.83  27 1.99  42 2.00  29 2.16  40 2.20  28 2.38  15 2.51   6 2.54
                            17 2.64  16 2.71   4 2.76   5 2.80  11 2.86   5 2.88   4 2.90  14 2.92
   4  0.160  0.829  0.657-  28 1.87  40 1.95  30 2.04  41 2.07  27 2.14  39 2.18  12 2.54   5 2.57
                             6 2.68  16 2.73   3 2.76  11 2.81  13 2.83  18 2.90   3 2.90  15 2.93
   5  0.693  0.381  0.659-  40 1.89  30 1.92  42 2.02  29 2.05  41 2.10  27 2.13   4 2.57  12 2.59
                             6 2.75  15 2.79   3 2.80  13 2.80  14 2.82  18 2.84  17 2.86   3 2.88
   6  0.710  0.876  0.668-  39 1.83  30 1.87  41 1.94  42 2.05  29 2.09  28 2.17   3 2.54  17 2.67
                             4 2.68  18 2.73  11 2.74   5 2.75  16 2.83  13 2.87   5 2.88   4 2.96
   7  0.159  0.280  0.173-  20 1.86  23 1.92  19 1.95  25 1.95  24 1.96  22 1.97  10 2.78   8 2.80
                             9 2.80   9 2.83  10 2.83   8 2.83
   8  0.163  0.784  0.175-  24 1.80  19 1.81  23 1.83  21 1.83  26 1.92  20 2.01   2 2.74  10 2.79
                             9 2.79   7 2.80   9 2.82   7 2.83  10 2.83   1 3.07
   9  0.662  0.289  0.175-  25 1.78  26 1.80  22 1.88  21 1.93  20 1.95  23 1.97   2 2.75   8 2.79
                             7 2.80  10 2.80   8 2.82  10 2.82   7 2.83
  10  0.660  0.787  0.175-  25 1.81  24 1.84  19 1.87  22 1.93  26 1.95  21 1.97   2 2.56   7 2.78
                             8 2.79   9 2.80   9 2.82   7 2.83   8 2.83   1 3.09
  11  0.004  0.055  0.500-  29 1.85  34 1.87  27 1.90  31 1.94  30 1.96  32 2.01  13 2.68  14 2.69
                             6 2.74  12 2.76   4 2.81   3 2.86  12 2.87  14 2.92  13 2.94
  12  0.002  0.563  0.506-  32 1.86  33 1.87  29 1.87  30 1.96  28 1.97  31 2.04   4 2.54   5 2.59
                            13 2.76  11 2.76  14 2.77   2 2.79  14 2.86  13 2.87  11 2.87   3 3.06
  13  0.529  0.057  0.500-  32 1.85  33 1.86  29 1.88  28 1.88  34 1.96  27 2.06  11 2.68  12 2.76
                            14 2.79   5 2.80   4 2.83  14 2.86  12 2.87   6 2.87  11 2.94
  14  0.481  0.539  0.499-  34 1.74  31 1.77  27 1.87  28 1.95  33 1.97  30 1.97  11 2.69  12 2.77
                            13 2.79   5 2.82  13 2.86  12 2.86   3 2.92  11 2.92   2 2.93   6 2.97
  15  0.356  0.179  0.821-  37 1.86  42 1.87  35 1.89  36 1.92  41 2.01  39 2.01   3 2.51  18 2.70
                            17 2.73  16 2.79   5 2.79   1 2.82  16 2.84  17 2.90  18 2.92   4 2.93
  16  0.326  0.668  0.821-  36 1.80  35 1.92  41 1.94  40 1.97  38 1.98  42 2.00   1 2.66   3 2.71
                             4 2.73  15 2.79  18 2.80  17 2.80  17 2.81  18 2.83   6 2.83  15 2.84
  17  0.832  0.159  0.826-  38 1.80  35 1.87  37 1.88  39 1.90  41 1.97  40 2.00   3 2.64   6 2.67
                            15 2.73  18 2.76  16 2.80  16 2.81   1 2.82   5 2.86  18 2.86  15 2.90
  18  0.829  0.666  0.830-  38 1.85  42 1.87  40 1.88  39 1.91  37 1.92  36 1.96  15 2.70   6 2.73
                            17 2.76  16 2.80  16 2.83   5 2.84  17 2.86   4 2.90  15 2.92
  19  0.991  0.922  0.241-   8 1.81   2 1.84  10 1.87   7 1.95
  20  0.997  0.419  0.250-   7 1.86   9 1.95   8 2.01   2 2.25
  21  0.475  0.939  0.247-   8 1.83   9 1.93  10 1.97
  22  0.498  0.439  0.248-   9 1.88   2 1.88  10 1.93   7 1.97
  23  0.316  0.108  0.103-   8 1.83   7 1.92   9 1.97   1 2.39
  24  0.334  0.648  0.109-   8 1.80  10 1.84   7 1.96   1 2.17
  25  0.800  0.120  0.112-   9 1.78  10 1.81   7 1.95   1 2.45
  26  0.824  0.612  0.106-   9 1.80   8 1.92  10 1.95
  27  0.329  0.211  0.575-  14 1.87  11 1.90   3 1.99  13 2.06   5 2.13   4 2.14
  28  0.350  0.727  0.577-   4 1.87  13 1.88  14 1.95  12 1.97   6 2.17   3 2.38
  29  0.855  0.218  0.571-  11 1.85  12 1.87  13 1.88   5 2.05   6 2.09   3 2.16
  30  0.813  0.710  0.578-   6 1.87   5 1.92  11 1.96  12 1.96  14 1.97   4 2.04
  31  0.183  0.405  0.427-  14 1.77  11 1.94  12 2.04
  32  0.199  0.894  0.434-  13 1.85  12 1.86  11 2.01   2 2.49
  33  0.684  0.396  0.433-   2 1.80  13 1.86  12 1.87  14 1.97
  34  0.673  0.855  0.436-  14 1.74  11 1.87  13 1.96   2 2.42
  35  0.168  0.316  0.890-  17 1.87  15 1.89  16 1.92
  36  0.189  0.828  0.892-  16 1.80   1 1.88  15 1.92  18 1.96
  37  0.668  0.312  0.898-  15 1.86  17 1.88  18 1.92   1 2.16
  38  0.675  0.836  0.894-  17 1.80  18 1.85  16 1.98   1 1.99
  39  0.994  0.001  0.753-   3 1.83   6 1.83  17 1.90  18 1.91  15 2.01   4 2.18
  40  0.979  0.517  0.750-  18 1.88   5 1.89   4 1.95  16 1.97  17 2.00   3 2.20
  41  0.511  0.005  0.740-   6 1.94  16 1.94  17 1.97  15 2.01   4 2.07   5 2.10
  42  0.522  0.516  0.750-  18 1.87  15 1.87   3 2.00  16 2.00   5 2.02   6 2.05
 

IMPORTANT INFORMATION: All symmetrisations will be switched off!
NOSYMM: (Re-)initialisation of all symmetry stuff for point group C_1.

 
 

Automatic generation of k-mesh.
 generate k-points for:    6    6    2
Space group operators:
 irot       det(A)        alpha          n_x          n_y          n_z        tau_x        tau_y        tau_z
    1     1.000000     0.000000     1.000000     0.000000     0.000000     0.000000     0.000000     0.000000
 
 Subroutine IBZKPT returns following result:
 ===========================================
 
 Found     36 irreducible k-points:
 
 Following reciprocal coordinates:
            Coordinates               Weight
  0.083333  0.083333  0.250000      2.000000
  0.250000  0.083333  0.250000      2.000000
  0.416667  0.083333  0.250000      2.000000
 -0.416667  0.083333  0.250000      2.000000
 -0.250000  0.083333  0.250000      2.000000
 -0.083333  0.083333  0.250000      2.000000
  0.083333  0.250000  0.250000      2.000000
  0.250000  0.250000  0.250000      2.000000
  0.416667  0.250000  0.250000      2.000000
 -0.416667  0.250000  0.250000      2.000000
 -0.250000  0.250000  0.250000      2.000000
 -0.083333  0.250000  0.250000      2.000000
  0.083333  0.416667  0.250000      2.000000
  0.250000  0.416667  0.250000      2.000000
  0.416667  0.416667  0.250000      2.000000
 -0.416667  0.416667  0.250000      2.000000
 -0.250000  0.416667  0.250000      2.000000
 -0.083333  0.416667  0.250000      2.000000
  0.083333 -0.416667  0.250000      2.000000
  0.250000 -0.416667  0.250000      2.000000
  0.416667 -0.416667  0.250000      2.000000
 -0.416667 -0.416667  0.250000      2.000000
 -0.250000 -0.416667  0.250000      2.000000
 -0.083333 -0.416667  0.250000      2.000000
  0.083333 -0.250000  0.250000      2.000000
  0.250000 -0.250000  0.250000      2.000000
  0.416667 -0.250000  0.250000      2.000000
 -0.416667 -0.250000  0.250000      2.000000
 -0.250000 -0.250000  0.250000      2.000000
 -0.083333 -0.250000  0.250000      2.000000
  0.083333 -0.083333  0.250000      2.000000
  0.250000 -0.083333  0.250000      2.000000
  0.416667 -0.083333  0.250000      2.000000
 -0.416667 -0.083333  0.250000      2.000000
 -0.250000 -0.083333  0.250000      2.000000
 -0.083333 -0.083333  0.250000      2.000000
 
 Following cartesian coordinates:
            Coordinates               Weight
  0.014822  0.025748  0.016784      2.000000
  0.044467  0.042976  0.016506      2.000000
  0.074112  0.060204  0.016228      2.000000
 -0.074112 -0.025936  0.017618      2.000000
 -0.044467 -0.008708  0.017340      2.000000
 -0.014822  0.008520  0.017062      2.000000
  0.014822  0.060016  0.014896      2.000000
  0.044467  0.077244  0.014618      2.000000
  0.074112  0.094472  0.014340      2.000000
 -0.074112  0.008332  0.015729      2.000000
 -0.044467  0.025560  0.015451      2.000000
 -0.014822  0.042788  0.015173      2.000000
  0.014822  0.094284  0.013007      2.000000
  0.044467  0.111512  0.012729      2.000000
  0.074112  0.128740  0.012451      2.000000
 -0.074112  0.042600  0.013841      2.000000
 -0.044467  0.059828  0.013563      2.000000
 -0.014822  0.077056  0.013285      2.000000
  0.014822 -0.077056  0.022450      2.000000
  0.044467 -0.059828  0.022172      2.000000
  0.074112 -0.042600  0.021894      2.000000
 -0.074112 -0.128740  0.023283      2.000000
 -0.044467 -0.111512  0.023005      2.000000
 -0.014822 -0.094284  0.022728      2.000000
  0.014822 -0.042788  0.020561      2.000000
  0.044467 -0.025560  0.020283      2.000000
  0.074112 -0.008332  0.020005      2.000000
 -0.074112 -0.094472  0.021395      2.000000
 -0.044467 -0.077244  0.021117      2.000000
 -0.014822 -0.060016  0.020839      2.000000
  0.014822 -0.008520  0.018673      2.000000
  0.044467  0.008708  0.018395      2.000000
  0.074112  0.025936  0.018117      2.000000
 -0.074112 -0.060204  0.019506      2.000000
 -0.044467 -0.042976  0.019228      2.000000
 -0.014822 -0.025748  0.018950      2.000000
 


--------------------------------------------------------------------------------------------------------




 Dimension of arrays:
   k-points           NKPTS =     36   k-points in BZ     NKDIM =     36   number of bands    NBANDS=    160
   number of dos      NEDOS =    301   number of ions     NIONS =     42
   non local maximal  LDIM  =      6   non local SUM 2l+1 LMDIM =     18
   total plane-waves  NPLWV = 108864
   max r-space proj   IRMAX =   2709   max aug-charges    IRDMAX=  11420
   dimension x,y,z NGX =    36 NGY =   36 NGZ =   84
   dimension x,y,z NGXF=    72 NGYF=   72 NGZF=  168
   support grid    NGXF=    72 NGYF=   72 NGZF=  168
   ions per type =               6  12  24
   NGX,Y,Z   is equivalent  to a cutoff of  10.65, 10.64,  9.96 a.u.
   NGXF,Y,Z  is equivalent  to a cutoff of  21.29, 21.28, 19.93 a.u.

 SYSTEM =  LiCoO2                                  
 POSCAR =  Li6 Co12 O24                            

 Startparameter for this run:
   NWRITE =      2    write-flag & timer
   PREC   = normal    normal or accurate (medium, high low for compatibility)
   ISTART =      0    job   : 0-new  1-cont  2-samecut
   ICHARG =      2    charge: 1-file 2-atom 10-const
   ISPIN  =      2    spin polarized calculation?
   LNONCOLLINEAR =      F non collinear calculations
   LSORBIT =      F    spin-orbit coupling
   INIWAV =      1    electr: 0-lowe 1-rand  2-diag
   LASPH  =      F    aspherical Exc in radial PAW
   METAGGA=      F    non-selfconsistent MetaGGA calc.

 Electronic Relaxation 1
   ENCUT  =  600.0 eV  44.10 Ry    6.64 a.u.  11.23 11.24 28.00*2*pi/ulx,y,z
   ENINI  =  600.0     initial cutoff
   ENAUG  =  605.4 eV  augmentation charge cutoff
   NELM   =    600;   NELMIN=  2; NELMDL= -5     # of ELM steps 
   EDIFF  = 0.1E-05   stopping-criterion for ELM
   LREAL  =      T    real-space projection
   NLSPLINE    = F    spline interpolate recip. space projectors
   LCOMPAT=      F    compatible to vasp.4.4
   GGA_COMPAT  = T    GGA compatible to vasp.4.4-vasp.4.6
   LMAXPAW     = -100 max onsite density
   LMAXMIX     =    2 max onsite mixed and CHGCAR
   VOSKOWN=      0    Vosko Wilk Nusair interpolation
   ROPT   =   -0.00050  -0.00050  -0.00050
 Ionic relaxation
   EDIFFG = 0.1E-04   stopping-criterion for IOM
   NSW    =      0    number of steps for IOM
   NBLOCK =      1;   KBLOCK =      1    inner block; outer block 
   IBRION =     -1    ionic relax: 0-MD 1-quasi-New 2-CG
   NFREE  =      0    steps in history (QN), initial steepest desc. (CG)
   ISIF   =      2    stress and relaxation
   IWAVPR =     10    prediction:  0-non 1-charg 2-wave 3-comb
   ISYM   =      0    0-nonsym 1-usesym 2-fastsym
   LCORR  =      T    Harris-Foulkes like correction to forces

   POTIM  = 0.5000    time-step for ionic-motion
   TEIN   =    0.0    initial temperature
   TEBEG  =    0.0;   TEEND  =   0.0 temperature during run
   SMASS  =  -3.00    Nose mass-parameter (am)
   estimated Nose-frequenzy (Omega)   =  0.10E-29 period in steps =****** mass=  -0.722E-27a.u.
   SCALEE = 1.0000    scale energy and forces
   NPACO  =    256;   APACO  = 16.0  distance and # of slots for P.C.
   PSTRESS=    0.0 pullay stress

  Mass of Ions in am
   POMASS =   7.01 58.93 16.00
  Ionic Valenz
   ZVAL   =   1.00  9.00  6.00
  Atomic Wigner-Seitz radii
   RWIGS  =  -1.00 -1.00 -1.00
  virtual crystal weights 
   VCA    =   1.00  1.00  1.00
   NELECT =     258.0000    total number of electrons
   NUPDOWN=       6.0000    fix difference up-down

 DOS related values:
   EMIN   =  10.00;   EMAX   =-10.00  energy-range for DOS
   EFERMI =   0.00
   ISMEAR =     0;   SIGMA  =   0.05  broadening in eV -4-tet -1-fermi 0-gaus

 Electronic relaxation 2 (details)
   IALGO  =     58    algorithm
   LDIAG  =      T    sub-space diagonalisation (order eigenvalues)
   LSUBROT=      F    optimize rotation matrix (better conditioning)
   TURBO    =      0    0=normal 1=particle mesh
   IRESTART =      0    0=no restart 2=restart with 2 vectors
   NREBOOT  =      0    no. of reboots
   NMIN     =      0    reboot dimension
   EREF     =   0.00    reference energy to select bands
   IMIX   =      4    mixing-type and parameters
     AMIX     =   0.40;   BMIX     =  1.00
     AMIX_MAG =   1.60;   BMIX_MAG =  1.00
     AMIN     =   0.10
     WC   =   100.;   INIMIX=   1;  MIXPRE=   1;  MAXMIX= -45

 Intra band minimization:
   WEIMIN = 0.0000     energy-eigenvalue tresh-hold
   EBREAK =  0.16E-08  absolut break condition
   DEPER  =   0.30     relativ break condition  

   TIME   =   0.40     timestep for ELM

  volume/ion in A,a.u.               =       9.11        61.47
  Fermi-wavevector in a.u.,A,eV,Ry     =   1.435601  2.712893 28.040949  2.060952
  Thomas-Fermi vector in A             =   2.554882
 
 Write flags
   LWAVE        =      F    write WAVECAR
   LDOWNSAMPLE  =      F    k-point downsampling of WAVECAR
   LCHARG       =      F    write CHGCAR
   LVTOT        =      F    write LOCPOT, total local potential
   LVHAR        =      F    write LOCPOT, Hartree potential only
   LELF         =      F    write electronic localiz. function (ELF)
   LORBIT       =     11    0 simple, 1 ext, 2 COOP (PROOUT), +10 PAW based schemes


 Dipole corrections
   LMONO  =      F    monopole corrections only (constant potential shift)
   LDIPOL =      F    correct potential (dipole corrections)
   IDIPOL =      0    1-x, 2-y, 3-z, 4-all directions 
   EPSILON=  1.0000000 bulk dielectric constant

 LDA+U is selected, type is set to LDAUTYPE =  2
   angular momentum for each species LDAUL =    -1    2   -1
   U (eV)           for each species LDAUU =   0.0  5.1  0.0
   J (eV)           for each species LDAUJ =   0.0  0.0  0.0
 Exchange correlation treatment:
   GGA     =    --    GGA type
   LEXCH   =     8    internal setting for exchange type
   VOSKOWN=      0    Vosko Wilk Nusair interpolation
   LHFCALC =     F    Hartree Fock is set to
   LHFONE  =     F    Hartree Fock one center treatment
   AEXX    =    0.0000 exact exchange contribution

 Linear response parameters
   LEPSILON=     F    determine dielectric tensor
   LRPA    =     F    only Hartree local field effects (RPA)
   LNABLA  =     F    use nabla operator in PAW spheres
   LVEL    =     F    velocity operator in full k-point grid
   LINTERFAST=   F  fast interpolation
   KINTER  =     0    interpolate to denser k-point grid
   CSHIFT  =0.1000    complex shift for real part using Kramers Kronig
   OMEGAMAX=  -1.0    maximum frequency
   DEG_THRESHOLD= 0.2000000E-02 threshold for treating states as degnerate
   RTIME   =   -0.100 relaxation time in fs
  (WPLASMAI=    0.000 imaginary part of plasma frequency in eV, 0.658/RTIME)
   DFIELD  = 0.0000000 0.0000000 0.0000000 field for delta impulse in time
 
 Orbital magnetization related:
   ORBITALMAG=     F  switch on orbital magnetization
   LCHIMAG   =     F  perturbation theory with respect to B field
   DQ        =  0.001000  dq finite difference perturbation B field
   LLRAUG    =     F  two centre corrections for induced B field



--------------------------------------------------------------------------------------------------------


 Static calculation
 charge density and potential will be updated during run
 spin polarized calculation
 Conjugate gradient for all bands (Freysoldt, et al. PRB 79, 241103 (2009))
 preconditioned conjugated gradient                                        
 perform sub-space diagonalisation
    before iterative eigenvector-optimisation
 modified Broyden-mixing scheme, WC =      100.0
 initial mixing is a Kerker type mixing with AMIX =  0.4000 and BMIX =      1.0000
 Hartree-type preconditioning will be used
 using additional bands           31
 real space projection scheme for non local part
 use partial core corrections
 no Harris-corrections to forces 
 use gradient corrections 
 use of overlap-Matrix (Vanderbilt PP)
 Gauss-broadening in eV      SIGMA  =   0.05


--------------------------------------------------------------------------------------------------------


  energy-cutoff  :      600.00
  volume of cell :      382.60
      direct lattice vectors                 reciprocal lattice vectors
     5.622124195  0.000000000  0.000000000     0.177868714  0.103368389 -0.001667108
    -2.826494217  4.863623142  0.000000000     0.000000000  0.205608036 -0.011331267
    -0.316991478  0.771117449 13.992075920     0.000000000  0.000000000  0.071469023

  length of vectors
     5.622124195  5.625291071 14.016893175     0.205730607  0.205920038  0.071469023


 
 k-points in units of 2pi/SCALE and weight: read from INCAR                         
   0.01482239  0.02574804  0.01678406       0.028
   0.04446718  0.04297610  0.01650621       0.028
   0.07411196  0.06020417  0.01622836       0.028
  -0.07411196 -0.02593616  0.01761761       0.028
  -0.04446718 -0.00870809  0.01733976       0.028
  -0.01482239  0.00851997  0.01706191       0.028
   0.01482239  0.06001604  0.01489551       0.028
   0.04446718  0.07724411  0.01461766       0.028
   0.07411196  0.09447217  0.01433981       0.028
  -0.07411196  0.00833185  0.01572907       0.028
  -0.04446718  0.02555991  0.01545122       0.028
  -0.01482239  0.04278798  0.01517336       0.028
   0.01482239  0.09428405  0.01300697       0.028
   0.04446718  0.11151211  0.01272912       0.028
   0.07411196  0.12874018  0.01245127       0.028
  -0.07411196  0.04259985  0.01384052       0.028
  -0.04446718  0.05982792  0.01356267       0.028
  -0.01482239  0.07705598  0.01328482       0.028
   0.01482239 -0.07705598  0.02244969       0.028
   0.04446718 -0.05982792  0.02217184       0.028
   0.07411196 -0.04259985  0.02189399       0.028
  -0.07411196 -0.12874018  0.02328325       0.028
  -0.04446718 -0.11151211  0.02300539       0.028
  -0.01482239 -0.09428405  0.02272754       0.028
   0.01482239 -0.04278798  0.02056115       0.028
   0.04446718 -0.02555991  0.02028330       0.028
   0.07411196 -0.00833185  0.02000544       0.028
  -0.07411196 -0.09447217  0.02139470       0.028
  -0.04446718 -0.07724411  0.02111685       0.028
  -0.01482239 -0.06001604  0.02083900       0.028
   0.01482239 -0.00851997  0.01867260       0.028
   0.04446718  0.00870809  0.01839475       0.028
   0.07411196  0.02593616  0.01811690       0.028
  -0.07411196 -0.06020417  0.01950616       0.028
  -0.04446718 -0.04297610  0.01922831       0.028
  -0.01482239 -0.02574804  0.01895045       0.028
 
 k-points in reciprocal lattice and weights: read from INCAR                         
   0.08333333  0.08333333  0.25000000       0.028
   0.25000000  0.08333333  0.25000000       0.028
   0.41666667  0.08333333  0.25000000       0.028
  -0.41666667  0.08333333  0.25000000       0.028
  -0.25000000  0.08333333  0.25000000       0.028
  -0.08333333  0.08333333  0.25000000       0.028
   0.08333333  0.25000000  0.25000000       0.028
   0.25000000  0.25000000  0.25000000       0.028
   0.41666667  0.25000000  0.25000000       0.028
  -0.41666667  0.25000000  0.25000000       0.028
  -0.25000000  0.25000000  0.25000000       0.028
  -0.08333333  0.25000000  0.25000000       0.028
   0.08333333  0.41666667  0.25000000       0.028
   0.25000000  0.41666667  0.25000000       0.028
   0.41666667  0.41666667  0.25000000       0.028
  -0.41666667  0.41666667  0.25000000       0.028
  -0.25000000  0.41666667  0.25000000       0.028
  -0.08333333  0.41666667  0.25000000       0.028
   0.08333333 -0.41666667  0.25000000       0.028
   0.25000000 -0.41666667  0.25000000       0.028
   0.41666667 -0.41666667  0.25000000       0.028
  -0.41666667 -0.41666667  0.25000000       0.028
  -0.25000000 -0.41666667  0.25000000       0.028
  -0.08333333 -0.41666667  0.25000000       0.028
   0.08333333 -0.25000000  0.25000000       0.028
   0.25000000 -0.25000000  0.25000000       0.028
   0.41666667 -0.25000000  0.25000000       0.028
  -0.41666667 -0.25000000  0.25000000       0.028
  -0.25000000 -0.25000000  0.25000000       0.028
  -0.08333333 -0.25000000  0.25000000       0.028
   0.08333333 -0.08333333  0.25000000       0.028
   0.25000000 -0.08333333  0.25000000       0.028
   0.41666667 -0.08333333  0.25000000       0.028
  -0.41666667 -0.08333333  0.25000000       0.028
  -0.25000000 -0.08333333  0.25000000       0.028
  -0.08333333 -0.08333333  0.25000000       0.028
 
 position of ions in fractional coordinates (direct lattice) 
   0.46807469  0.92892705  0.98279340
   0.80735772  0.62309512  0.32704509
   0.17056257  0.31857401  0.67738842
   0.16044893  0.82926774  0.65722056
   0.69311721  0.38069466  0.65866067
   0.70964202  0.87620191  0.66760786
   0.15915968  0.27991509  0.17270846
   0.16263201  0.78417746  0.17528636
   0.66155198  0.28911565  0.17525277
   0.65992180  0.78682313  0.17505622
   0.00446840  0.05498364  0.50030030
   0.00150837  0.56281913  0.50643379
   0.52850157  0.05661371  0.49999158
   0.48059935  0.53901445  0.49871372
   0.35639217  0.17866502  0.82123768
   0.32638922  0.66802421  0.82104472
   0.83198916  0.15912789  0.82551869
   0.82876679  0.66557729  0.82979964
   0.99073827  0.92151308  0.24146454
   0.99739203  0.41892352  0.24990216
   0.47498249  0.93947506  0.24704054
   0.49836716  0.43863232  0.24849350
   0.31587702  0.10759397  0.10260879
   0.33379452  0.64842577  0.10884375
   0.80003199  0.11973357  0.11218921
   0.82445223  0.61238018  0.10607146
   0.32931899  0.21113473  0.57453018
   0.35025116  0.72735281  0.57663068
   0.85511653  0.21763694  0.57084166
   0.81282828  0.71020581  0.57840306
   0.18252703  0.40520764  0.42664432
   0.19936570  0.89353647  0.43431154
   0.68399693  0.39634299  0.43277065
   0.67321848  0.85492512  0.43564873
   0.16824666  0.31602693  0.88966214
   0.18871096  0.82800786  0.89159177
   0.66787343  0.31180228  0.89759521
   0.67491534  0.83550844  0.89361436
   0.99373688  0.00141918  0.75295621
   0.97898693  0.51693007  0.74966144
   0.51068209  0.00473940  0.74018466
   0.52169094  0.51561940  0.75035468
 
 position of ions in cartesian coordinates  (Angst):
  -0.30557001  5.27580023 13.75131989
   2.67422009  3.28269005  4.57603979
  -0.15625000  2.07176995  9.47807026
  -1.65019000  4.54004002  9.19587994
   2.61196995  2.35946012  9.21603012
   1.30148995  4.77631998  9.34121990
   0.04889000  1.49458003  2.41654992
  -1.35769999  3.94911003  2.45262003
   2.84659004  1.54129004  2.45215011
   1.43071997  3.96180010  2.44939995
  -0.28887999  0.65320998  7.00023985
  -1.74285996  3.12786007  7.08606005
   2.65279007  0.66090000  6.99592018
   1.02038002  3.00612998  6.97804022
   1.23836005  1.50223005 11.49081993
  -0.31343001  3.88213992 11.48812008
   3.96608996  1.41050994 11.55072021
   2.51514006  3.87699008 11.61061955
   2.88885999  4.66808987  3.37859011
   4.34416008  2.23019004  3.49664998
  -0.06332000  4.75974989  3.45660996
   1.48332000  2.32495999  3.47693992
   1.43926001  0.60241997  1.43570995
   0.00936000  3.23762989  1.52295005
   4.12388992  0.66885000  1.56975996
   2.87066007  3.06017995  1.48415995
   1.07257998  1.46991003  8.03886986
  -0.26949000  3.98221993  8.06826019
   4.01146984  1.49869001  7.98725986
   2.37908006  3.90019011  8.09305954
  -0.25437000  2.29977012  5.96963978
  -1.54238999  4.68072987  6.07692003
   2.58806992  2.26137996  6.05535984
   1.23038006  4.49396992  6.09563017
  -0.22936000  2.22306991 12.44822025
  -1.56202996  4.71464014 12.47521973
   2.58903003  2.20864010 12.55922031
   1.14962995  4.75267982 12.50352001
   5.34422016  0.58752000 10.53542042
   3.80524993  3.09223008 10.48931980
   2.62309003  0.59381998 10.35671997
   1.23775995  3.08639002 10.49901962
 


--------------------------------------------------------------------------------------------------------


 k-point  1 :   0.0833 0.0833 0.2500  plane waves:   12767
 k-point  2 :   0.2500 0.0833 0.2500  plane waves:   12773
 k-point  3 :   0.4167 0.0833 0.2500  plane waves:   12777
 k-point  4 :  -0.4167 0.0833 0.2500  plane waves:   12763
 k-point  5 :  -0.2500 0.0833 0.2500  plane waves:   12765
 k-point  6 :  -0.0833 0.0833 0.2500  plane waves:   12782
 k-point  7 :   0.0833 0.2500 0.2500  plane waves:   12770
 k-point  8 :   0.2500 0.2500 0.2500  plane waves:   12780
 k-point  9 :   0.4167 0.2500 0.2500  plane waves:   12784
 k-point 10 :  -0.4167 0.2500 0.2500  plane waves:   12761
 k-point 11 :  -0.2500 0.2500 0.2500  plane waves:   12753
 k-point 12 :  -0.0833 0.2500 0.2500  plane waves:   12755
 k-point 13 :   0.0833 0.4167 0.2500  plane waves:   12780
 k-point 14 :   0.2500 0.4167 0.2500  plane waves:   12787
 k-point 15 :   0.4167 0.4167 0.2500  plane waves:   12797
 k-point 16 :  -0.4167 0.4167 0.2500  plane waves:   12738
 k-point 17 :  -0.2500 0.4167 0.2500  plane waves:   12759
 k-point 18 :  -0.0833 0.4167 0.2500  plane waves:   12771
 k-point 19 :   0.0833-0.4167 0.2500  plane waves:   12783
 k-point 20 :   0.2500-0.4167 0.2500  plane waves:   12761
 k-point 21 :   0.4167-0.4167 0.2500  plane waves:   12762
 k-point 22 :  -0.4167-0.4167 0.2500  plane waves:   12772
 k-point 23 :  -0.2500-0.4167 0.2500  plane waves:   12770
 k-point 24 :  -0.0833-0.4167 0.2500  plane waves:   12770
 k-point 25 :   0.0833-0.2500 0.2500  plane waves:   12752
 k-point 26 :   0.2500-0.2500 0.2500  plane waves:   12761
 k-point 27 :   0.4167-0.2500 0.2500  plane waves:   12764
 k-point 28 :  -0.4167-0.2500 0.2500  plane waves:   12777
 k-point 29 :  -0.2500-0.2500 0.2500  plane waves:   12752
 k-point 30 :  -0.0833-0.2500 0.2500  plane waves:   12771
 k-point 31 :   0.0833-0.0833 0.2500  plane waves:   12780
 k-point 32 :   0.2500-0.0833 0.2500  plane waves:   12759
 k-point 33 :   0.4167-0.0833 0.2500  plane waves:   12767
 k-point 34 :  -0.4167-0.0833 0.2500  plane waves:   12778
 k-point 35 :  -0.2500-0.0833 0.2500  plane waves:   12751
 k-point 36 :  -0.0833-0.0833 0.2500  plane waves:   12754

 maximum and minimum number of plane-waves per node :      3215     3162

 maximum number of plane-waves:     12797
 maximum index in each direction: 
   IXMAX=   11   IYMAX=   11   IZMAX=   27
   IXMIN=  -11   IYMIN=  -11   IZMIN=  -28


 real space projection operators:
  total allocation   :       7219.71 KBytes
  max/ min on nodes  :       1807.23       1802.65


 parallel 3D FFT for wavefunctions:
    minimum data exchange during FFTs selected (reduces bandwidth)
 parallel 3D FFT for charge:
    minimum data exchange during FFTs selected (reduces bandwidth)


 total amount of memory used by VASP MPI-rank0   155402. kBytes
=======================================================================

   base      :      30000. kBytes
   nonlr-proj:       4130. kBytes
   fftplans  :       1579. kBytes
   grid      :       4337. kBytes
   one-center:        342. kBytes
   wavefun   :     115014. kBytes
 
     INWAV:  cpu time    0.0000: real time    0.0002
 Broyden mixing: mesh for mixing (old mesh)
   NGX = 23   NGY = 23   NGZ = 55
  (NGX  = 72   NGY  = 72   NGZ  =168)
  gives a total of  29095 points

 initial charge density was supplied:
 charge density of overlapping atoms calculated
 number of electron     258.0000000 magnetization       6.0000000
 keeping initial charge density in first step


--------------------------------------------------------------------------------------------------------


 Maximum index for non-local projection operator          657
 Maximum index for augmentation-charges          906 (set IRDMAX)


--------------------------------------------------------------------------------------------------------


 First call to EWALD:  gamma=   0.244
 Maximum number of real-space cells 4x 4x 2
 Maximum number of reciprocal cells 2x 2x 5

    FEWALD:  cpu time    0.0041: real time    0.0041


--------------------------------------- Iteration      1(   1)  ---------------------------------------


    POTLOK:  cpu time    0.0537: real time    0.0658
    SETDIJ:  cpu time    0.0179: real time    0.0181
    TRIAL :  cpu time   20.4241: real time   20.8439
    CORREC:  cpu time    0.0043: real time    0.0043
    --------------------------------------------
      LOOP:  cpu time   20.6619: real time   21.0948

 eigenvalue-minimisations  : 23040
 total energy-change (2. order) : 0.3512421E+04  (-0.1397301E+05)
 number of electron     258.0000000 magnetization       6.0000000
 augmentation part      258.0000000 magnetization       6.0000000

 Free energy of the ion-electron system (eV)
  ---------------------------------------------------
  alpha Z        PSCENC =       766.25302768
  Ewald energy   TEWEN  =    -14058.12233181
  -Hartree energ DENC   =     -7020.98908593
  -exchange      EXHF   =         0.00000000
  -V(xc)+E(xc)   XCENC  =       844.31939054
  PAW double counting   =     17015.18481625   -17491.61297812
  entropy T*S    EENTRO =        -0.00918123
  eigenvalues    EBANDS =      3288.52659158
  atomic energy  EATOM  =     20168.87094289
  ---------------------------------------------------
  free energy    TOTEN  =      3512.42119185 eV

  energy without entropy =     3512.43037308  energy(sigma->0) =     3512.42578246


--------------------------------------------------------------------------------------------------------




--------------------------------------- Iteration      1(   2)  ---------------------------------------


    TRIAL :  cpu time   21.9531: real time   22.2088
    CORREC:  cpu time    0.0044: real time    0.0045
    --------------------------------------------
      LOOP:  cpu time   21.9616: real time   22.2175

 eigenvalue-minimisations  : 24896
 total energy-change (2. order) :-0.3105994E+04  (-0.2861475E+04)
 number of electron     258.0000000 magnetization       6.0000000
 augmentation part      258.0000000 magnetization       6.0000000

 Free energy of the ion-electron system (eV)
  ---------------------------------------------------
  alpha Z        PSCENC =       766.25302768
  Ewald energy   TEWEN  =    -14058.12233181
  -Hartree energ DENC   =     -7020.98908593
  -exchange      EXHF   =         0.00000000
  -V(xc)+E(xc)   XCENC  =       844.31939054
  PAW double counting   =     17015.18481625   -17491.61297812
  entropy T*S    EENTRO =        -0.02131880
  eigenvalues    EBANDS =       182.54475356
  atomic energy  EATOM  =     20168.87094289
  ---------------------------------------------------
  free energy    TOTEN  =       406.42721626 eV

  energy without entropy =      406.44853506  energy(sigma->0) =      406.43787566


--------------------------------------------------------------------------------------------------------




--------------------------------------- Iteration      1(   3)  ---------------------------------------


    TRIAL :  cpu time   22.0074: real time   22.3156
    CORREC:  cpu time    0.0045: real time    0.0046
    --------------------------------------------
      LOOP:  cpu time   22.0162: real time   22.3244

 eigenvalue-minimisations  : 25264
 total energy-change (2. order) :-0.6272266E+03  (-0.5705238E+03)
 number of electron     258.0000000 magnetization       6.0000000
 augmentation part      258.0000000 magnetization       6.0000000

 Free energy of the ion-electron system (eV)
  ---------------------------------------------------
  alpha Z        PSCENC =       766.25302768
  Ewald energy   TEWEN  =    -14058.12233181
  -Hartree energ DENC   =     -7020.98908593
  -exchange      EXHF   =         0.00000000
  -V(xc)+E(xc)   XCENC  =       844.31939054
  PAW double counting   =     17015.18481625   -17491.61297812
  entropy T*S    EENTRO =        -0.02201307
  eigenvalues    EBANDS =      -444.68111321
  atomic energy  EATOM  =     20168.87094289
  ---------------------------------------------------
  free energy    TOTEN  =      -220.79934478 eV

  energy without entropy =     -220.77733171  energy(sigma->0) =     -220.78833824


--------------------------------------------------------------------------------------------------------




--------------------------------------- Iteration      1(   4)  ---------------------------------------


    TRIAL :  cpu time   22.2722: real time   22.5594
    CORREC:  cpu time    0.0043: real time    0.0043
    --------------------------------------------
      LOOP:  cpu time   22.2805: real time   22.5677

 eigenvalue-minimisations  : 25376
 total energy-change (2. order) :-0.5059616E+02  (-0.4956197E+02)
 number of electron     258.0000000 magnetization       6.0000000
 augmentation part      258.0000000 magnetization       6.0000000

 Free energy of the ion-electron system (eV)
  ---------------------------------------------------
  alpha Z        PSCENC =       766.25302768
  Ewald energy   TEWEN  =    -14058.12233181
  -Hartree energ DENC   =     -7020.98908593
  -exchange      EXHF   =         0.00000000
  -V(xc)+E(xc)   XCENC  =       844.31939054
  PAW double counting   =     17015.18481625   -17491.61297812
  entropy T*S    EENTRO =        -0.01769290
  eigenvalues    EBANDS =      -495.28159796
  atomic energy  EATOM  =     20168.87094289
  ---------------------------------------------------
  free energy    TOTEN  =      -271.39550936 eV

  energy without entropy =     -271.37781646  energy(sigma->0) =     -271.38666291


--------------------------------------------------------------------------------------------------------




--------------------------------------- Iteration      1(   5)  ---------------------------------------


    TRIAL :  cpu time   24.3046: real time   24.6080
    CORREC:  cpu time    0.0047: real time    0.0047
    CHARGE:  cpu time    0.4379: real time    0.4531
    --------------------------------------------
      LOOP:  cpu time   24.7513: real time   25.0699

 eigenvalue-minimisations  : 28512
 total energy-change (2. order) :-0.1720118E+01  (-0.1716854E+01)
 number of electron     258.0000028 magnetization       6.0000003
 augmentation part       68.0066969 magnetization       4.2830510

 Free energy of the ion-electron system (eV)
  ---------------------------------------------------
  alpha Z        PSCENC =       766.25302768
  Ewald energy   TEWEN  =    -14058.12233181
  -Hartree energ DENC   =     -7020.98908593
  -exchange      EXHF   =         0.00000000
  -V(xc)+E(xc)   XCENC  =       844.31939054
  PAW double counting   =     17015.18481625   -17491.61297812
  entropy T*S    EENTRO =        -0.01745309
  eigenvalues    EBANDS =      -497.00195552
  atomic energy  EATOM  =     20168.87094289
  ---------------------------------------------------
  free energy    TOTEN  =      -273.11562711 eV

  energy without entropy =     -273.09817402  energy(sigma->0) =     -273.10690056


--------------------------------------------------------------------------------------------------------




--------------------------------------- Iteration      1(   6)  ---------------------------------------


    POTLOK:  cpu time    0.0424: real time    0.0427
    SETDIJ:  cpu time    0.0120: real time    0.0121
    TRIAL :  cpu time   11.9067: real time   12.1079
    CORREC:  cpu time    4.3531: real time    4.3961
    CHARGE:  cpu time    0.4377: real time    0.4422
    --------------------------------------------
      LOOP:  cpu time   16.7562: real time   17.0053

 eigenvalue-minimisations  :     0
 total energy-change (2. order) : 0.4252572E+03  (-0.2034185E+03)
 number of electron     258.0000033 magnetization       5.9999998
 augmentation part       70.1938311 magnetization       4.3807385

 Free energy of the ion-electron system (eV)
  ---------------------------------------------------
  alpha Z        PSCENC =       766.25302768
  Ewald energy   TEWEN  =    -14058.12233181
  -Hartree energ DENC   =     -6894.94604505
  -exchange      EXHF   =         0.00000000
  -V(xc)+E(xc)   XCENC  =       878.94279131
  PAW double counting   =     23796.00555362   -24004.46917991
  entropy T*S    EENTRO =        -0.04891201
  eigenvalues    EBANDS =      -500.37568582
  atomic energy  EATOM  =     20168.87094289
  ---------------------------------------------------
  free energy    TOTEN  =       152.14161982 eV

  energy without entropy =      152.19053183  energy(sigma->0) =      152.16607582


--------------------------------------------------------------------------------------------------------




--------------------------------------- Iteration      1(   7)  ---------------------------------------


    POTLOK:  cpu time    0.0427: real time    0.0430
    SETDIJ:  cpu time    0.0121: real time    0.0122
    TRIAL :  cpu time   12.0074: real time   12.1450
    CORREC:  cpu time    4.3187: real time    4.3438
    CHARGE:  cpu time    0.4455: real time    0.4481
    --------------------------------------------
      LOOP:  cpu time   16.8306: real time   16.9962

 eigenvalue-minimisations  :     0
 total energy-change (2. order) :-0.5560315E+02  (-0.5780307E+03)
 number of electron     258.0000020 magnetization       6.0000002
 augmentation part       72.1942994 magnetization       4.3602572

 Free energy of the ion-electron system (eV)
  ---------------------------------------------------
  alpha Z        PSCENC =       766.25302768
  Ewald energy   TEWEN  =    -14058.12233181
  -Hartree energ DENC   =     -6600.30880599
  -exchange      EXHF   =         0.00000000
  -V(xc)+E(xc)   XCENC  =       870.01062651
  PAW double counting   =     23753.07596572   -24051.52636251
  entropy T*S    EENTRO =        -0.05040860
  eigenvalues    EBANDS =      -751.66568394
  atomic energy  EATOM  =     20168.87094289
  ---------------------------------------------------
  free energy    TOTEN  =        96.53846656 eV

  energy without entropy =       96.58887516  energy(sigma->0) =       96.56367086


--------------------------------------------------------------------------------------------------------




--------------------------------------- Iteration      1(   8)  ---------------------------------------


    POTLOK:  cpu time    0.0420: real time    0.0421
    SETDIJ:  cpu time    0.0121: real time    0.0122
    TRIAL :  cpu time   11.9814: real time   12.0623
    CORREC:  cpu time    4.2660: real time    4.2892
    CHARGE:  cpu time    0.4201: real time    0.4217
    --------------------------------------------
      LOOP:  cpu time   16.7259: real time   16.8317

 eigenvalue-minimisations  :     0
 total energy-change (2. order) : 0.2264267E+03  (-0.5452894E+04)
 number of electron     258.0000041 magnetization       5.9999996
 augmentation part       73.5189460 magnetization       4.2575631

 Free energy of the ion-electron system (eV)
  ---------------------------------------------------
  alpha Z        PSCENC =       766.25302768
  Ewald energy   TEWEN  =    -14058.12233181
  -Hartree energ DENC   =     -7512.19187267
  -exchange      EXHF   =         0.00000000
  -V(xc)+E(xc)   XCENC  =       867.03900116
  PAW double counting   =     24249.69291023   -24649.73414821
  entropy T*S    EENTRO =        -0.02936448
  eigenvalues    EBANDS =       491.20800367
  atomic energy  EATOM  =     20168.87094289
  ---------------------------------------------------
  free energy    TOTEN  =       322.96512434 eV

  energy without entropy =      322.99448882  energy(sigma->0) =      322.97980658


--------------------------------------------------------------------------------------------------------




--------------------------------------- Iteration      1(   9)  ---------------------------------------


    POTLOK:  cpu time    0.0452: real time    0.0454
    SETDIJ:  cpu time    0.0121: real time    0.0122
    TRIAL :  cpu time   12.0999: real time   12.1603
    CORREC:  cpu time    4.2682: real time    4.2841
    CHARGE:  cpu time    0.4413: real time    0.4428
    --------------------------------------------
      LOOP:  cpu time   16.8707: real time   16.9487

 eigenvalue-minimisations  :     0
 total energy-change (2. order) : 0.3404334E+04  (-0.3968586E+03)
 number of electron     258.0000016 magnetization       6.0000001
 augmentation part       74.4642903 magnetization       4.3488643

 Free energy of the ion-electron system (eV)
  ---------------------------------------------------
  alpha Z        PSCENC =       766.25302768
  Ewald energy   TEWEN  =    -14058.12233181
  -Hartree energ DENC   =     -9295.82746390
  -exchange      EXHF   =         0.00000000
  -V(xc)+E(xc)   XCENC  =       896.77964821
  PAW double counting   =     28809.30743543   -29483.73951261
  entropy T*S    EENTRO =        -0.07026166
  eigenvalues    EBANDS =      5923.80693257
  atomic energy  EATOM  =     20168.87094289
  ---------------------------------------------------
  free energy    TOTEN  =      3727.29931398 eV

  energy without entropy =     3727.36957564  energy(sigma->0) =     3727.33444481


--------------------------------------------------------------------------------------------------------




--------------------------------------- Iteration      1(  10)  ---------------------------------------


    POTLOK:  cpu time    0.0420: real time    0.0422
    SETDIJ:  cpu time    0.0121: real time    0.0121
    TRIAL :  cpu time   12.0890: real time   12.1538
    CORREC:  cpu time    4.2563: real time    4.2734
    CHARGE:  cpu time    0.4253: real time    0.4266
    --------------------------------------------
      LOOP:  cpu time   16.8290: real time   16.9123

 eigenvalue-minimisations  :     0
 total energy-change (2. order) :-0.2932658E+04  (-0.8025915E+04)
 number of electron     258.0000050 magnetization       6.0000000
 augmentation part       76.0729873 magnetization       3.4364551

 Free energy of the ion-electron system (eV)
  ---------------------------------------------------
  alpha Z        PSCENC =       766.25302768
  Ewald energy   TEWEN  =    -14058.12233181
  -Hartree energ DENC   =     -8189.93519947
  -exchange      EXHF   =         0.00000000
  -V(xc)+E(xc)   XCENC  =       858.56358044
  PAW double counting   =     25102.56932303   -25618.85839067
  entropy T*S    EENTRO =        -0.02595791
  eigenvalues    EBANDS =      1765.37024062
  atomic energy  EATOM  =     20168.87094289
  ---------------------------------------------------
  free energy    TOTEN  =       794.64093104 eV

  energy without entropy =      794.66688895  energy(sigma->0) =      794.65390999


--------------------------------------------------------------------------------------------------------




--------------------------------------- Iteration      1(  11)  ---------------------------------------


    POTLOK:  cpu time    0.0421: real time    0.0422
    SETDIJ:  cpu time    0.0121: real time    0.0121
    TRIAL :  cpu time   12.1126: real time   12.2405
    CORREC:  cpu time    4.2629: real time    4.2821
    CHARGE:  cpu time    0.4175: real time    0.4200
    --------------------------------------------
      LOOP:  cpu time   16.8512: real time   17.0010

 eigenvalue-minimisations  :     0
 total energy-change (2. order) : 0.4218349E+04  (-0.5046034E+04)
 number of electron     258.0000018 magnetization       6.0000006
 augmentation part       77.5014843 magnetization       3.4446741

 Free energy of the ion-electron system (eV)
  ---------------------------------------------------
  alpha Z        PSCENC =       766.25302768
  Ewald energy   TEWEN  =    -14058.12233181
  -Hartree energ DENC   =    -10378.96319040
  -exchange      EXHF   =         0.00000000
  -V(xc)+E(xc)   XCENC  =       897.71185787
  PAW double counting   =     30035.18482448   -30837.41094689
  entropy T*S    EENTRO =        -0.01886010
  eigenvalues    EBANDS =      8419.49134913
  atomic energy  EATOM  =     20168.87094289
  ---------------------------------------------------
  free energy    TOTEN  =      5012.98957504 eV

  energy without entropy =     5013.00843514  energy(sigma->0) =     5012.99900509


--------------------------------------------------------------------------------------------------------




--------------------------------------- Iteration      1(  12)  ---------------------------------------


    POTLOK:  cpu time    0.0421: real time    0.0423
    SETDIJ:  cpu time    0.0120: real time    0.0121
    TRIAL :  cpu time   12.0876: real time   12.1528
    CORREC:  cpu time    4.4211: real time    4.4422
    CHARGE:  cpu time    0.4451: real time    0.4469
    --------------------------------------------
      LOOP:  cpu time   17.0123: real time   17.1006

 eigenvalue-minimisations  :     0
 total energy-change (2. order) :-0.1848924E+04  (-0.1802981E+04)
 number of electron     258.0000044 magnetization       5.9999997
 augmentation part       77.4703929 magnetization       4.3218886

 Free energy of the ion-electron system (eV)
  ---------------------------------------------------
  alpha Z        PSCENC =       766.25302768
  Ewald energy   TEWEN  =    -14058.12233181
  -Hartree energ DENC   =    -11196.44413949
  -exchange      EXHF   =         0.00000000
  -V(xc)+E(xc)   XCENC  =       882.59387690
  PAW double counting   =     28263.54208775   -29002.65584647
  entropy T*S    EENTRO =        -0.03925584
  eigenvalues    EBANDS =      7340.04650575
  atomic energy  EATOM  =     20168.87094289
  ---------------------------------------------------
  free energy    TOTEN  =      3164.06526310 eV

  energy without entropy =     3164.10451895  energy(sigma->0) =     3164.08489103


--------------------------------------------------------------------------------------------------------




--------------------------------------- Iteration      1(  13)  ---------------------------------------


    POTLOK:  cpu time    0.0418: real time    0.0419
    SETDIJ:  cpu time    0.0121: real time    0.0121
    TRIAL :  cpu time   12.0020: real time   12.0622
    CORREC:  cpu time    4.4449: real time    4.4624
    CHARGE:  cpu time    0.4385: real time    0.4398
    --------------------------------------------
      LOOP:  cpu time   16.9434: real time   17.0226

 eigenvalue-minimisations  :     0
 total energy-change (2. order) :-0.9654703E+02  (-0.2696423E+04)
 number of electron     258.0000014 magnetization       6.0000004
 augmentation part       77.4989944 magnetization       3.5086272

 Free energy of the ion-electron system (eV)
  ---------------------------------------------------
  alpha Z        PSCENC =       766.25302768
  Ewald energy   TEWEN  =    -14058.12233181
  -Hartree energ DENC   =     -9044.13158930
  -exchange      EXHF   =         0.00000000
  -V(xc)+E(xc)   XCENC  =       877.15941208
  PAW double counting   =     28966.61555324   -29699.00025941
  entropy T*S    EENTRO =        -0.02323118
  eigenvalues    EBANDS =      5089.91272917
  atomic energy  EATOM  =     20168.87094289
  ---------------------------------------------------
  free energy    TOTEN  =      3067.51822871 eV

  energy without entropy =     3067.54145988  energy(sigma->0) =     3067.52984429


--------------------------------------------------------------------------------------------------------




--------------------------------------- Iteration      1(  14)  ---------------------------------------


    POTLOK:  cpu time    0.0425: real time    0.0425
    SETDIJ:  cpu time    0.0121: real time    0.0121
    TRIAL :  cpu time   11.9506: real time   12.0197
    CORREC:  cpu time    4.3575: real time    4.3709
    CHARGE:  cpu time    0.4424: real time    0.4435
    --------------------------------------------
      LOOP:  cpu time   16.8093: real time   16.8929

 eigenvalue-minimisations  :     0
 total energy-change (2. order) : 0.1400557E+04  (-0.6173402E+04)
 number of electron     258.0000044 magnetization       5.9999996
 augmentation part       75.2667039 magnetization       4.2901800

 Free energy of the ion-electron system (eV)
  ---------------------------------------------------
  alpha Z        PSCENC =       766.25302768
  Ewald energy   TEWEN  =    -14058.12233181
  -Hartree energ DENC   =    -12607.04967567
  -exchange      EXHF   =         0.00000000
  -V(xc)+E(xc)   XCENC  =       889.97996201
  PAW double counting   =     29084.79356903   -29868.85350322
  entropy T*S    EENTRO =        -0.02809852
  eigenvalues    EBANDS =     10092.22658129
  atomic energy  EATOM  =     20168.87094289
  ---------------------------------------------------
  free energy    TOTEN  =      4468.07534102 eV

  energy without entropy =     4468.10343955  energy(sigma->0) =     4468.08939028


--------------------------------------------------------------------------------------------------------




--------------------------------------- Iteration      1(  15)  ---------------------------------------


    POTLOK:  cpu time    0.0421: real time    0.0422
    SETDIJ:  cpu time    0.0122: real time    0.0122
    TRIAL :  cpu time   12.0829: real time   12.1281
    CORREC:  cpu time    4.2812: real time    4.2966
    CHARGE:  cpu time    0.4418: real time    0.4428
    --------------------------------------------
      LOOP:  cpu time   16.8642: real time   16.9259

 eigenvalue-minimisations  :     0
 total energy-change (2. order) :-0.3655238E+03  (-0.3693428E+04)
 number of electron     258.0000021 magnetization       6.0000001
 augmentation part       78.3102356 magnetization       4.5488373

 Free energy of the ion-electron system (eV)
  ---------------------------------------------------
  alpha Z        PSCENC =       766.25302768
  Ewald energy   TEWEN  =    -14058.12233181
  -Hartree energ DENC   =     -9517.63817842
  -exchange      EXHF   =         0.00000000
  -V(xc)+E(xc)   XCENC  =       879.91671537
  PAW double counting   =     29978.98450732   -30711.24018272
  entropy T*S    EENTRO =        -0.04557101
  eigenvalues    EBANDS =      6595.55514272
  atomic energy  EATOM  =     20168.87094289
  ---------------------------------------------------
  free energy    TOTEN  =      4102.55154451 eV

  energy without entropy =     4102.59711552  energy(sigma->0) =     4102.57433002


--------------------------------------------------------------------------------------------------------




--------------------------------------- Iteration      1(  16)  ---------------------------------------


    POTLOK:  cpu time    0.0424: real time    0.0424
    SETDIJ:  cpu time    0.0122: real time    0.0122
    TRIAL :  cpu time   12.1035: real time   12.1445
    CORREC:  cpu time    4.3011: real time    4.3134
    CHARGE:  cpu time    0.4423: real time    0.4513
    --------------------------------------------
      LOOP:  cpu time   16.9057: real time   16.9680

 eigenvalue-minimisations  :     0
 total energy-change (2. order) :-0.2117552E+04  (-0.7722966E+03)
 number of electron     258.0000022 magnetization       6.0000003
 augmentation part       81.1971191 magnetization       4.2949325

 Free energy of the ion-electron system (eV)
  ---------------------------------------------------
  alpha Z        PSCENC =       766.25302768
  Ewald energy   TEWEN  =    -14058.12233181
  -Hartree energ DENC   =     -9919.41397008
  -exchange      EXHF   =         0.00000000
  -V(xc)+E(xc)   XCENC  =       867.06752460
  PAW double counting   =     27589.97301624   -28293.78851230
  entropy T*S    EENTRO =        -0.04118501
  eigenvalues    EBANDS =      4864.20519626
  atomic energy  EATOM  =     20168.87094289
  ---------------------------------------------------
  free energy    TOTEN  =      1984.99932247 eV

  energy without entropy =     1985.04050748  energy(sigma->0) =     1985.01991497


--------------------------------------------------------------------------------------------------------




--------------------------------------- Iteration      1(  17)  ---------------------------------------


    POTLOK:  cpu time    0.0428: real time    0.0429
    SETDIJ:  cpu time    0.0121: real time    0.0121
    TRIAL :  cpu time   12.1055: real time   12.1980
    CORREC:  cpu time    4.2723: real time    4.2810
    CHARGE:  cpu time    0.4177: real time    0.4184
    --------------------------------------------
      LOOP:  cpu time   16.8544: real time   16.9564

 eigenvalue-minimisations  :     0
 total energy-change (2. order) :-0.1369147E+04  (-0.1363778E+04)
 number of electron     258.0000061 magnetization       6.0000001
 augmentation part       78.6818184 magnetization       1.6103823

 Free energy of the ion-electron system (eV)
  ---------------------------------------------------
  alpha Z        PSCENC =       766.25302768
  Ewald energy   TEWEN  =    -14058.12233181
  -Hartree energ DENC   =     -8445.91282341
  -exchange      EXHF   =         0.00000000
  -V(xc)+E(xc)   XCENC  =       863.01057914
  PAW double counting   =     26318.16444969   -27022.18536727
  entropy T*S    EENTRO =        -0.00907663
  eigenvalues    EBANDS =      2025.81505199
  atomic energy  EATOM  =     20168.87094289
  ---------------------------------------------------
  free energy    TOTEN  =       615.85234390 eV

  energy without entropy =      615.86142053  energy(sigma->0) =      615.85688222


--------------------------------------------------------------------------------------------------------




--------------------------------------- Iteration      1(  18)  ---------------------------------------


    POTLOK:  cpu time    0.0445: real time    0.0445
    SETDIJ:  cpu time    0.0122: real time    0.0122
    TRIAL :  cpu time   12.1938: real time   12.2228
    CORREC:  cpu time    4.3105: real time    4.3194
    CHARGE:  cpu time    0.4295: real time    0.4304
    --------------------------------------------
      LOOP:  cpu time   16.9947: real time   17.0335

 eigenvalue-minimisations  :     0
 total energy-change (2. order) : 0.7504865E+04  (-0.4483912E+04)
 number of electron     258.0000019 magnetization       6.0000001
 augmentation part       74.7590085 magnetization       2.5976026

 Free energy of the ion-electron system (eV)
  ---------------------------------------------------
  alpha Z        PSCENC =       766.25302768
  Ewald energy   TEWEN  =    -14058.12233181
  -Hartree energ DENC   =    -13299.64527653
  -exchange      EXHF   =         0.00000000
  -V(xc)+E(xc)   XCENC  =       915.49789855
  PAW double counting   =     31759.14356256   -32672.76142448
  entropy T*S    EENTRO =        -0.01901371
  eigenvalues    EBANDS =     14541.49000072
  atomic energy  EATOM  =     20168.87094289
  ---------------------------------------------------
  free energy    TOTEN  =      8120.71732295 eV

  energy without entropy =     8120.73633666  energy(sigma->0) =     8120.72682981


--------------------------------------------------------------------------------------------------------




--------------------------------------- Iteration      1(  19)  ---------------------------------------


    POTLOK:  cpu time    0.0444: real time    0.0444
    SETDIJ:  cpu time    0.0121: real time    0.0121
    TRIAL :  cpu time   12.1569: real time   12.1861
    CORREC:  cpu time    4.2832: real time    4.2923
    CHARGE:  cpu time    0.4338: real time    0.4345
    --------------------------------------------
      LOOP:  cpu time   16.9345: real time   16.9736

 eigenvalue-minimisations  :     0
 total energy-change (2. order) :-0.2179271E+04  (-0.2715525E+04)
 number of electron     258.0000035 magnetization       6.0000001
 augmentation part       71.1143522 magnetization       2.5719831

 Free energy of the ion-electron system (eV)
  ---------------------------------------------------
  alpha Z        PSCENC =       766.25302768
  Ewald energy   TEWEN  =    -14058.12233181
  -Hartree energ DENC   =    -13749.24934562
  -exchange      EXHF   =         0.00000000
  -V(xc)+E(xc)   XCENC  =       886.73185504
  PAW double counting   =     31217.33042190   -32007.24208436
  entropy T*S    EENTRO =        -0.01866061
  eigenvalues    EBANDS =     12716.89313043
  atomic energy  EATOM  =     20168.87094289
  ---------------------------------------------------
  free energy    TOTEN  =      5941.44660245 eV

  energy without entropy =     5941.46526306  energy(sigma->0) =     5941.45593275


--------------------------------------------------------------------------------------------------------




--------------------------------------- Iteration      1(  20)  ---------------------------------------


    POTLOK:  cpu time    0.0420: real time    0.0421
    SETDIJ:  cpu time    0.0159: real time    0.0159
    TRIAL :  cpu time   12.1447: real time   12.1708
    CORREC:  cpu time    4.4170: real time    4.4267
    CHARGE:  cpu time    0.4220: real time    0.4226
    --------------------------------------------
      LOOP:  cpu time   17.0457: real time   17.0822

 eigenvalue-minimisations  :     0
 total energy-change (2. order) :-0.6599830E+03  (-0.6349546E+04)
 number of electron     258.0000031 magnetization       6.0000001
 augmentation part       74.5573807 magnetization       2.0743094

 Free energy of the ion-electron system (eV)
  ---------------------------------------------------
  alpha Z        PSCENC =       766.25302768
  Ewald energy   TEWEN  =    -14058.12233181
  -Hartree energ DENC   =    -11030.03245637
  -exchange      EXHF   =         0.00000000
  -V(xc)+E(xc)   XCENC  =       867.11994391
  PAW double counting   =     32336.68096473   -33069.69726533
  entropy T*S    EENTRO =        -0.01568578
  eigenvalues    EBANDS =      9300.40942766
  atomic energy  EATOM  =     20168.87094289
  ---------------------------------------------------
  free energy    TOTEN  =      5281.46359275 eV

  energy without entropy =     5281.47927853  energy(sigma->0) =     5281.47143564


--------------------------------------------------------------------------------------------------------




--------------------------------------- Iteration      1(  21)  ---------------------------------------


    POTLOK:  cpu time    0.0421: real time    0.0422
    SETDIJ:  cpu time    0.0120: real time    0.0120
    TRIAL :  cpu time   11.9636: real time   11.9867
    CORREC:  cpu time    4.4910: real time    4.4983
    CHARGE:  cpu time    0.4232: real time    0.4237
    --------------------------------------------
      LOOP:  cpu time   16.9360: real time   16.9671

 eigenvalue-minimisations  :     0
 total energy-change (2. order) : 0.1613262E+04  (-0.8557978E+04)
 number of electron     258.0000026 magnetization       6.0000003
 augmentation part       73.6646539 magnetization       1.6860827

 Free energy of the ion-electron system (eV)
  ---------------------------------------------------
  alpha Z        PSCENC =       766.25302768
  Ewald energy   TEWEN  =    -14058.12233181
  -Hartree energ DENC   =    -13434.88932965
  -exchange      EXHF   =         0.00000000
  -V(xc)+E(xc)   XCENC  =       875.24919594
  PAW double counting   =     32582.34194615   -33405.09954619
  entropy T*S    EENTRO =        -0.01317129
  eigenvalues    EBANDS =     13400.13705382
  atomic energy  EATOM  =     20168.87094289
  ---------------------------------------------------
  free energy    TOTEN  =      6894.72527305 eV

  energy without entropy =     6894.73844434  energy(sigma->0) =     6894.73185870


--------------------------------------------------------------------------------------------------------




--------------------------------------- Iteration      1(  22)  ---------------------------------------


    POTLOK:  cpu time    0.0424: real time    0.0425
    SETDIJ:  cpu time    0.0138: real time    0.0138
    TRIAL :  cpu time   12.1502: real time   12.1940
    CORREC:  cpu time    4.2948: real time    4.2989
    CHARGE:  cpu time    0.4306: real time    0.4309
    --------------------------------------------
      LOOP:  cpu time   16.9361: real time   16.9842

 eigenvalue-minimisations  :     0
 total energy-change (2. order) : 0.1774791E+03  (-0.2572133E+04)
 number of electron     258.0000024 magnetization       6.0000003
 augmentation part       76.1211038 magnetization       3.8590126

 Free energy of the ion-electron system (eV)
  ---------------------------------------------------
  alpha Z        PSCENC =       766.25302768
  Ewald energy   TEWEN  =    -14058.12233181
  -Hartree energ DENC   =    -11973.23930028
  -exchange      EXHF   =         0.00000000
  -V(xc)+E(xc)   XCENC  =       869.74153092
  PAW double counting   =     31731.33193490   -32509.25645062
  entropy T*S    EENTRO =        -0.02014344
  eigenvalues    EBANDS =     12076.63822752
  atomic energy  EATOM  =     20168.87094289
  ---------------------------------------------------
  free energy    TOTEN  =      7072.20440992 eV

  energy without entropy =     7072.22455336  energy(sigma->0) =     7072.21448164


--------------------------------------------------------------------------------------------------------




--------------------------------------- Iteration      1(  23)  ---------------------------------------


    POTLOK:  cpu time    0.0429: real time    0.0429
    SETDIJ:  cpu time    0.0265: real time    0.0265
    TRIAL :  cpu time   12.1265: real time   12.1445
    CORREC:  cpu time    4.2956: real time    4.3038
    CHARGE:  cpu time    0.4345: real time    0.4350
    --------------------------------------------
      LOOP:  cpu time   16.9302: real time   16.9569

 eigenvalue-minimisations  :     0
 total energy-change (2. order) :-0.5417543E+04  (-0.2836984E+04)
 number of electron     258.0000030 magnetization       6.0000000
 augmentation part       74.6314128 magnetization       3.5874223

 Free energy of the ion-electron system (eV)
  ---------------------------------------------------
  alpha Z        PSCENC =       766.25302768
  Ewald energy   TEWEN  =    -14058.12233181
  -Hartree energ DENC   =     -7586.30630040
  -exchange      EXHF   =         0.00000000
  -V(xc)+E(xc)   XCENC  =       833.14091173
  PAW double counting   =     27729.84067097   -28382.42983507
  entropy T*S    EENTRO =        -0.02188425
  eigenvalues    EBANDS =      2183.43397750
  atomic energy  EATOM  =     20168.87094289
  ---------------------------------------------------
  free energy    TOTEN  =      1654.66092006 eV

  energy without entropy =     1654.68280431  energy(sigma->0) =     1654.67186218


--------------------------------------------------------------------------------------------------------




--------------------------------------- Iteration      1(  24)  ---------------------------------------


    POTLOK:  cpu time    0.0423: real time    0.0424
    SETDIJ:  cpu time    0.0121: real time    0.0121
    TRIAL :  cpu time   12.2038: real time   12.2263
    CORREC:  cpu time    4.2902: real time    4.3026
    CHARGE:  cpu time    0.4271: real time    0.4278
    --------------------------------------------
      LOOP:  cpu time   16.9797: real time   17.0154

 eigenvalue-minimisations  :     0
 total energy-change (2. order) : 0.1069138E+04  (-0.5307501E+04)
 number of electron     258.0000030 magnetization       6.0000002
 augmentation part       76.8973363 magnetization       2.9120206

 Free energy of the ion-electron system (eV)
  ---------------------------------------------------
  alpha Z        PSCENC =       766.25302768
  Ewald energy   TEWEN  =    -14058.12233181
  -Hartree energ DENC   =     -8037.36858423
  -exchange      EXHF   =         0.00000000
  -V(xc)+E(xc)   XCENC  =       843.21395390
  PAW double counting   =     28410.70279554   -29063.57582171
  entropy T*S    EENTRO =        -0.01482389
  eigenvalues    EBANDS =      3693.84655828
  atomic energy  EATOM  =     20168.87094289
  ---------------------------------------------------
  free energy    TOTEN  =      2723.79865630 eV

  energy without entropy =     2723.81348019  energy(sigma->0) =     2723.80606824


--------------------------------------------------------------------------------------------------------




--------------------------------------- Iteration      1(  25)  ---------------------------------------


    POTLOK:  cpu time    0.0439: real time    0.0440
    SETDIJ:  cpu time    0.0122: real time    0.0122
    TRIAL :  cpu time   12.1656: real time   12.2607
    CORREC:  cpu time    4.2589: real time    4.3451
    CHARGE:  cpu time    0.4399: real time    0.4405
    --------------------------------------------
      LOOP:  cpu time   16.9247: real time   17.1066

 eigenvalue-minimisations  :     0
 total energy-change (2. order) : 0.1286942E+04  (-0.2007896E+04)
[...]
   20        1.584   3.334   0.000   4.918
   21        1.586   3.345   0.000   4.931
   22        1.576   3.394   0.000   4.970
   23        1.580   3.364   0.000   4.944
   24        1.573   3.420   0.000   4.993
   25        1.577   3.417   0.000   4.994
   26        1.581   3.372   0.000   4.953
   27        1.558   3.473   0.000   5.031
   28        1.562   3.459   0.000   5.021
   29        1.557   3.503   0.000   5.060
   30        1.558   3.486   0.000   5.044
   31        1.587   3.336   0.000   4.923
   32        1.577   3.356   0.000   4.933
   33        1.571   3.432   0.000   5.002
   34        1.578   3.409   0.000   4.987
   35        1.576   3.358   0.000   4.934
   36        1.569   3.427   0.000   4.996
   37        1.574   3.388   0.000   4.962
   38        1.570   3.426   0.000   4.996
   39        1.557   3.506   0.000   5.063
   40        1.558   3.481   0.000   5.039
   41        1.559   3.457   0.000   5.015
   42        1.561   3.485   0.000   5.046
--------------------------------------------------
tot         43.737  91.975  87.788 223.500
 


 magnetization (x)
 
# of ion       s       p       d       tot
------------------------------------------
    1       -0.001  -0.004   0.000  -0.005
    2       -0.001  -0.005   0.000  -0.006
    3       -0.001  -0.003   0.000  -0.004
    4       -0.000  -0.002   0.000  -0.002
    5        0.001   0.001   0.000   0.002
    6        0.000   0.000   0.000   0.001
    7        0.015   0.016   1.559   1.590
    8        0.011   0.015   1.210   1.236
    9        0.012   0.017   1.280   1.309
   10        0.008   0.012  -0.018   0.002
   11        0.004   0.010   0.046   0.060
   12        0.001   0.002   0.085   0.088
   13        0.000   0.005   0.235   0.239
   14        0.008   0.007   1.181   1.196
   15        0.001   0.004   0.030   0.036
   16        0.002   0.003   0.020   0.025
   17        0.001   0.004   0.051   0.057
   18        0.010   0.012   1.355   1.377
   19        0.001  -0.092   0.000  -0.091
   20        0.001  -0.200   0.000  -0.199
   21        0.002  -0.087   0.000  -0.085
   22        0.001  -0.110   0.000  -0.109
   23        0.001  -0.154   0.000  -0.153
   24        0.000  -0.117   0.000  -0.117
   25        0.000  -0.127   0.000  -0.127
   26        0.001  -0.057   0.000  -0.055
   27        0.000  -0.007   0.000  -0.007
   28        0.000  -0.047   0.000  -0.047
   29        0.001   0.036   0.000   0.037
   30        0.000  -0.013   0.000  -0.013
   31        0.000  -0.039   0.000  -0.039
   32        0.003   0.168   0.000   0.171
   33       -0.000  -0.077   0.000  -0.077
   34        0.000  -0.003   0.000  -0.003
   35        0.002   0.115   0.000   0.117
   36       -0.000  -0.062   0.000  -0.062
   37       -0.000  -0.083   0.000  -0.084
   38        0.000  -0.041   0.000  -0.041
   39        0.000  -0.035   0.000  -0.035
   40        0.000  -0.035   0.000  -0.035
   41        0.001   0.032   0.000   0.033
   42        0.001  -0.038   0.000  -0.037
--------------------------------------------------
tot          0.087  -0.979   7.034   6.142
 
    FORLOC:  cpu time    0.0075: real time    0.0075
    FORNL :  cpu time    3.9316: real time    3.9353
    STRESS:  cpu time   11.7290: real time   11.7660
    FORCOR:  cpu time    0.0443: real time    0.0443
    OFIELD:  cpu time    0.0004: real time    0.0004

  DFT-D2 method for vdW energy calculation
  -------------------------------------------------------------------

  Parameters of vdW forcefield:
         C6(Jnm^6/mol)     R0(A)
   -----------------------------
   Li       1.610          0.825
   Co      10.800          1.562
   O        0.700          1.342

  IVDW =   1
  VDW_RADIUS =    50.000 A
  VDW_S6 =     0.750
  VDW_SR =     1.000
  VDW_D =    20.000
  LVDW_EWALD = F

  Number of pair interactions contributing to vdW energy: 1235975
  Edisp (eV):  -10.08610
    FORVDW:  cpu time    0.1783: real time    0.1784

  FORCE on cell =-STRESS in cart. coord.  units (eV):
  Direction    XX          YY          ZZ          XY          YZ          ZX
  --------------------------------------------------------------------------------------
  Alpha Z   766.25303   766.25303   766.25303
  Ewald   -1801.21993 -1671.48178-10585.48708    16.26736   -52.99928    17.48382
  Hartree  4501.02435  4548.35935 -2075.45616     4.99264   -18.07401    12.61531
  E(xc)   -1286.13884 -1286.28991 -1287.86885    -0.00938     0.10418     0.03223
  Local   -7666.82540 -7843.20507  7642.65294   -18.80771    71.94024   -29.52480
  n-local  -595.20921  -591.41468  -601.73757     0.95613    -2.48763     0.44455
  augment  2017.12213  2019.25367  2007.56597    -0.86103    -0.65389    -0.21285
  Kinetic  4072.86269  4071.31396  4150.32625    -1.97008    -2.04030    -0.58011
  Fock        0.00000     0.00000     0.00000     0.00000     0.00000     0.00000
  vdW        -6.80164    -6.90259   -13.98355    -0.05277    -0.22516     0.27752
  -------------------------------------------------------------------------------------
  Total       1.06717     5.88598     2.26498     0.51516    -4.43585     0.53567
  in kB       4.46891    24.64829     9.48489     2.15730   -18.57569     2.24319
  external pressure =       12.87 kB  Pullay stress =        0.00 kB


 VOLUME and BASIS-vectors are now :
 -----------------------------------------------------------------------------
  energy-cutoff  :      600.00
  volume of cell :      382.60
      direct lattice vectors                 reciprocal lattice vectors
     5.622124195  0.000000000  0.000000000     0.177868714  0.103368389 -0.001667108
    -2.826494217  4.863623142  0.000000000     0.000000000  0.205608036 -0.011331267
    -0.316991478  0.771117449 13.992075920     0.000000000  0.000000000  0.071469023

  length of vectors
     5.622124195  5.625291071 14.016893175     0.205730607  0.205920038  0.071469023


 FORCES acting on ions:
    Electron-Ion                     Ewald-Force                    Non-Local-Force
 -----------------------------------------------------------------------------------------------
   -.163E+01 -.934E+00 -.271E+02   0.139E+01 0.627E+00 0.269E+02   0.399E+00 0.563E+00 0.130E+01
   -.399E+01 -.441E+01 0.133E+01   0.359E+01 0.399E+01 -.986E+00   0.628E+00 0.685E+00 0.239E+00
   0.320E+01 -.614E+01 0.152E+01   -.285E+01 0.570E+01 -.183E+01   -.551E+00 0.130E+01 -.659E+00
   0.275E+01 -.389E+01 -.115E+02   -.223E+01 0.375E+01 0.116E+02   -.558E+00 0.862E+00 0.308E+00
   0.977E+00 0.505E+01 -.704E+01   -.992E+00 -.484E+01 0.739E+01   -.374E+00 -.933E+00 -.277E+00
   0.302E+01 -.381E+00 -.292E+01   -.304E+01 0.290E+00 0.297E+01   -.101E+01 -.210E+00 -.532E+00
   -.159E+02 -.818E+01 0.183E+03   0.161E+02 0.830E+01 -.182E+03   -.445E-01 -.985E-01 -.735E+00
   0.212E+02 0.426E+02 0.124E+03   -.212E+02 -.432E+02 -.124E+03   -.226E+00 -.882E+00 0.361E+00
   0.205E+02 -.101E+02 0.118E+03   -.212E+02 0.920E+01 -.117E+03   -.135E+00 -.463E+00 0.438E+00
   -.148E+02 0.230E+02 0.128E+03   0.142E+02 -.239E+02 -.128E+03   0.148E+00 -.403E+00 0.787E+00
   -.369E+02 0.860E+01 0.137E+03   0.381E+02 -.888E+01 -.139E+03   0.222E+00 -.545E+00 0.983E+00
   -.223E+01 -.147E+02 0.496E+02   0.370E+01 0.147E+02 -.527E+02   0.617E+00 0.324E-01 0.135E+01
   0.179E+02 -.194E+02 0.108E+03   -.193E+02 0.184E+02 -.111E+03   0.468E-01 0.829E-01 0.159E+01
   -.169E+02 0.346E+02 0.774E+02   0.181E+02 -.347E+02 -.777E+02   0.756E+00 0.208E+00 0.117E+01
   0.293E+02 0.206E+02 -.189E+03   -.301E+02 -.218E+02 0.192E+03   -.271E+00 -.896E+00 -.211E+01
   -.140E+02 0.417E+02 -.191E+03   0.146E+02 -.421E+02 0.193E+03   0.132E+01 -.379E+00 -.174E+01
   -.104E+02 -.425E+02 -.210E+03   0.107E+02 0.435E+02 0.212E+03   -.407E+00 0.515E+00 -.246E+01
   -.222E+02 -.806E+01 -.309E+03   0.234E+02 0.835E+01 0.311E+03   0.258E+00 -.834E-01 -.674E+00
   0.134E+02 -.274E+02 -.222E+03   -.143E+02 0.330E+02 0.243E+03   0.417E+00 -.424E+01 -.210E+02
   0.427E+00 0.688E+00 -.213E+03   0.116E+01 -.117E+01 0.236E+03   -.259E+01 0.139E+01 -.243E+02
   -.189E+02 -.777E+01 -.239E+03   0.210E+02 0.855E+01 0.264E+03   -.134E+01 -.419E+00 -.254E+02
   0.230E+02 0.871E+01 -.204E+03   -.281E+02 -.109E+02 0.226E+03   0.460E+01 0.196E+01 -.225E+02
   0.197E+02 -.353E+02 0.404E+03   -.196E+02 0.379E+02 -.427E+03   0.548E-01 -.133E+01 0.235E+02
   -.126E+02 0.496E+02 0.403E+03   0.142E+02 -.525E+02 -.425E+03   -.130E+01 0.149E+01 0.208E+02
   -.389E+02 -.159E+02 0.404E+03   0.413E+02 0.164E+02 -.428E+03   -.648E+00 0.241E+00 0.225E+02
   0.103E+02 -.145E+02 0.410E+03   -.110E+02 0.172E+02 -.435E+03   0.793E+00 -.181E+01 0.253E+02
   -.202E+02 0.188E+02 -.251E+03   0.233E+02 -.218E+02 0.265E+03   -.238E+01 0.282E+01 -.143E+02
   0.130E+02 0.123E+02 -.258E+03   -.106E+02 -.128E+02 0.274E+03   -.234E+01 -.691E+00 -.160E+02
   -.613E+00 -.107E+02 -.259E+03   0.141E+01 0.109E+02 0.275E+03   -.146E+01 -.325E+00 -.146E+02
   -.122E+02 0.292E+01 -.242E+03   0.909E+01 -.246E+01 0.253E+03   0.452E+01 -.741E+00 -.123E+02
   0.347E+02 0.207E+02 0.373E+03   -.400E+02 -.214E+02 -.399E+03   0.431E+01 0.357E+00 0.276E+02
   0.186E+02 -.151E+02 0.361E+03   -.187E+02 0.173E+02 -.382E+03   -.144E+01 -.170E+01 0.223E+02
   0.189E+01 0.588E+01 0.355E+03   -.303E+01 -.802E+01 -.375E+03   0.487E+00 0.220E+01 0.201E+02
   -.668E+01 -.379E+02 0.383E+03   0.641E+01 0.415E+02 -.408E+03   -.681E+00 -.140E+01 0.243E+02
   -.736E+01 -.106E+02 -.448E+03   0.823E+01 0.106E+02 0.471E+03   -.925E+00 0.615E+00 -.237E+02
   0.297E+02 -.110E+00 -.444E+03   -.344E+02 0.103E+01 0.464E+03   0.310E+01 -.739E+00 -.208E+02
   -.409E+01 -.192E+02 -.459E+03   0.488E+01 0.211E+02 0.483E+03   -.978E+00 -.140E+01 -.247E+02
   0.472E+01 0.300E+02 -.461E+03   -.476E+01 -.325E+02 0.484E+03   -.527E+00 0.114E+01 -.223E+02
   -.262E+02 -.179E+02 0.152E+03   0.289E+02 0.171E+02 -.163E+03   -.181E+01 0.972E+00 0.116E+02
   -.270E+02 0.107E+02 0.155E+03   0.272E+02 -.125E+02 -.168E+03   0.120E+01 0.155E+01 0.136E+02
   0.114E+02 -.400E+01 0.161E+03   -.115E+02 0.442E+01 -.176E+03   -.493E+00 0.174E+00 0.164E+02
   0.325E+02 0.621E+00 0.160E+03   -.339E+02 0.162E+01 -.176E+03   0.510E+00 -.200E+01 0.164E+02
 -----------------------------------------------------------------------------------------------
   -.190E+01 0.250E+01 -.184E+01   0.213E-13 0.402E-13 0.284E-13   0.191E+01 -.251E+01 0.183E+01
 
 
 POSITION                                       TOTAL-FORCE (eV/Angst)
 -----------------------------------------------------------------------------------
     -0.30557      5.27580     13.75132         0.073702      0.249642      0.911499
      2.67422      3.28269      4.57604         0.210153      0.211838      0.615524
     -0.15625      2.07177      9.47807        -0.245232      0.687426     -0.907439
     -1.65019      4.54004      9.19588        -0.012700      0.576541      0.398105
      2.61197      2.35946      9.21603        -0.307420     -0.503981      0.122026
      1.30149      4.77632      9.34122        -0.743403     -0.210449     -0.364046
      0.04889      1.49458      2.41655         0.046600      0.002118      0.441324
     -1.35770      3.94911      2.45262        -0.160138     -1.224701      0.322773
      2.84659      1.54129      2.45215        -0.756528     -1.231813      1.253539
      1.43072      3.96180      2.44940        -0.458187     -1.107652      0.943914
     -0.28888      0.65321      7.00024         1.243324     -0.769600     -0.918661
     -1.74286      3.12786      7.08606         1.879651      0.069681     -1.607301
      2.65279      0.66090      6.99592        -1.152047     -0.900773     -0.506854
      1.02038      3.00613      6.97804         1.804603      0.193874      0.862268
      1.23836      1.50223     11.49082        -0.870416     -1.910437      0.648270
     -0.31343      3.88214     11.48812         1.682234     -0.596416     -0.410965
      3.96609      1.41051     11.55072        -0.052976      1.265271     -0.617007
      2.51514      3.87699     11.61062         1.209640      0.177804      0.605875
      2.88886      4.66809      3.37859        -0.470830      1.384355      0.058792
      4.34416      2.23019      3.49665        -1.003147      0.906083     -0.980363
     -0.06332      4.75975      3.45661         0.803366      0.357956     -0.385129
      1.48332      2.32496      3.47694        -0.524376     -0.294856     -1.399849
      1.43926      0.60242      1.43571         0.075429      1.266033      0.099341
      0.00936      3.23763      1.52295         0.298443     -1.515699     -0.719176
      4.12389      0.66885      1.56976         1.785132      0.720754     -1.505006
      2.87066      3.06018      1.48416         0.052173      0.913963      0.026297
      1.07258      1.46991      8.03887         0.660185     -0.102389     -0.071206
     -0.26949      3.98222      8.06826        -0.026364     -1.338573     -0.418761
      4.01147      1.49869      7.98726        -0.667784     -0.125880      1.097467
      2.37908      3.90019      8.09306         1.328122     -0.284623     -0.698522
     -0.25437      2.29977      5.96964        -1.031893     -0.399839      1.117851
     -1.54239      4.68073      6.07692        -1.597765      0.438843      0.820561
      2.58807      2.26138      6.05536        -0.634152      0.021357      0.689277
      1.23038      4.49397      6.09563        -0.906985      2.248455     -1.217245
     -0.22936      2.22307     12.44822        -0.043586      0.668333     -0.495889
     -1.56203      4.71464     12.47522        -1.591211      0.148174     -0.210207
      2.58903      2.20864     12.55922        -0.183439      0.643597     -0.641451
      1.14963      4.75268     12.50352        -0.479586     -1.423034      0.189158
      5.34422      0.58752     10.53542         0.919321      0.244152      0.275293
      3.80525      3.09223     10.48932         1.412074     -0.271860      0.683571
      2.62309      0.59382     10.35672        -0.636619      0.588596      1.513748
      1.23776      3.08639     10.49902        -0.927364      0.227728      0.378603
 -----------------------------------------------------------------------------------
    total drift:                                0.007615     -0.017078     -0.012283


--------------------------------------------------------------------------------------------------------



  FREE ENERGIE OF THE ION-ELECTRON SYSTEM (eV)
  ---------------------------------------------------
  free  energy   TOTEN  =      -232.39767669 eV

  energy  without entropy=     -232.38673587  energy(sigma->0) =     -232.39220628
 


--------------------------------------------------------------------------------------------------------


    POTLOK:  cpu time    0.0584: real time    0.0589


--------------------------------------------------------------------------------------------------------


     LOOP+:  cpu time 2570.6268: real time 2584.0043
    4ORBIT:  cpu time    0.0000: real time    0.0000
 


 total charge     
 
# of ion       s       p       d       tot
------------------------------------------
    1        0.080   0.165   0.000   0.245
    2        0.116   0.251   0.000   0.368
    3        0.108   0.236   0.000   0.344
    4        0.111   0.245   0.000   0.357
    5        0.113   0.252   0.000   0.365
    6        0.127   0.285   0.000   0.412
    7        0.424   0.643   7.129   8.196
    8        0.494   0.821   7.285   8.600
    9        0.475   0.775   7.252   8.502
   10        0.448   0.713   7.415   8.576
   11        0.425   0.656   7.368   8.449
   12        0.432   0.670   7.375   8.477
   13        0.437   0.680   7.324   8.441
   14        0.486   0.788   7.297   8.571
   15        0.430   0.656   7.374   8.460
   16        0.425   0.645   7.368   8.438
   17        0.450   0.703   7.410   8.563
   18        0.451   0.720   7.192   8.363
   19        1.573   3.442   0.000   5.016
   20        1.584   3.334   0.000   4.918
   21        1.586   3.345   0.000   4.931
   22        1.576   3.394   0.000   4.970
   23        1.580   3.364   0.000   4.944
   24        1.573   3.420   0.000   4.993
   25        1.577   3.417   0.000   4.994
   26        1.581   3.372   0.000   4.953
   27        1.558   3.473   0.000   5.031
   28        1.562   3.459   0.000   5.021
   29        1.557   3.503   0.000   5.060
   30        1.558   3.486   0.000   5.044
   31        1.587   3.336   0.000   4.923
   32        1.577   3.356   0.000   4.933
   33        1.571   3.432   0.000   5.002
   34        1.578   3.409   0.000   4.987
   35        1.576   3.358   0.000   4.934
   36        1.569   3.427   0.000   4.996
   37        1.574   3.388   0.000   4.962
   38        1.570   3.426   0.000   4.996
   39        1.557   3.506   0.000   5.063
   40        1.558   3.481   0.000   5.039
   41        1.559   3.457   0.000   5.015
   42        1.561   3.485   0.000   5.046
--------------------------------------------------
tot         43.737  91.975  87.788 223.500
 


 magnetization (x)
 
# of ion       s       p       d       tot
------------------------------------------
    1       -0.001  -0.004   0.000  -0.005
    2       -0.001  -0.005   0.000  -0.006
    3       -0.001  -0.003   0.000  -0.004
    4       -0.000  -0.002   0.000  -0.002
    5        0.001   0.001   0.000   0.002
    6        0.000   0.000   0.000   0.001
    7        0.015   0.016   1.559   1.590
    8        0.011   0.015   1.210   1.236
    9        0.012   0.017   1.280   1.309
   10        0.008   0.012  -0.018   0.002
   11        0.004   0.010   0.046   0.060
   12        0.001   0.002   0.085   0.088
   13        0.000   0.005   0.235   0.239
   14        0.008   0.007   1.181   1.196
   15        0.001   0.004   0.030   0.036
   16        0.002   0.003   0.020   0.025
   17        0.001   0.004   0.051   0.057
   18        0.010   0.012   1.355   1.377
   19        0.001  -0.092   0.000  -0.091
   20        0.001  -0.200   0.000  -0.199
   21        0.002  -0.087   0.000  -0.085
   22        0.001  -0.110   0.000  -0.109
   23        0.001  -0.154   0.000  -0.153
   24        0.000  -0.117   0.000  -0.117
   25        0.000  -0.127   0.000  -0.127
   26        0.001  -0.057   0.000  -0.055
   27        0.000  -0.007   0.000  -0.007
   28        0.000  -0.047   0.000  -0.047
   29        0.001   0.036   0.000   0.037
   30        0.000  -0.013   0.000  -0.013
   31        0.000  -0.039   0.000  -0.039
   32        0.003   0.168   0.000   0.171
   33       -0.000  -0.077   0.000  -0.077
   34        0.000  -0.003   0.000  -0.003
   35        0.002   0.115   0.000   0.117
   36       -0.000  -0.062   0.000  -0.062
   37       -0.000  -0.083   0.000  -0.084
   38        0.000  -0.041   0.000  -0.041
   39        0.000  -0.035   0.000  -0.035
   40        0.000  -0.035   0.000  -0.035
   41        0.001   0.032   0.000   0.033
   42        0.001  -0.038   0.000  -0.037
--------------------------------------------------
tot          0.087  -0.979   7.034   6.142
 

 total amount of memory used by VASP MPI-rank0   155402. kBytes
=======================================================================

   base      :      30000. kBytes
   nonlr-proj:       4130. kBytes
   fftplans  :       1579. kBytes
   grid      :       4337. kBytes
   one-center:        342. kBytes
   wavefun   :     115014. kBytes
 
  
  
 General timing and accounting informations for this job:
 ========================================================
  
                  Total CPU time used (sec):     2596.510
                            User time (sec):     2429.991
                          System time (sec):      166.519
                         Elapsed time (sec):     2610.535
  
                   Maximum memory used (kb):      750212.
                   Average memory used (kb):           0.
  
                          Minor page faults:        69850
                          Major page faults:           78
                 Voluntary context switches:          744
