 running on   64 total cores
 distrk:  each k-point on   64 cores,    1 groups
 distr:  one band on    4 cores,   16 groups
 using from now: INCAR     
 vasp.5.4.4.18Apr17-6-g9f103f2a35 (build Nov 22 2021 14:44:17) complex          
  
 POSCAR found type information on POSCAR  Li Co O 
 POSCAR found :  3 types and      42 ions
 scaLAPACK will be used
 LDA part: xc-table for Pade appr. of Perdew
 generate k-points for:    6    6    2
 POSCAR, INCAR and KPOINTS ok, starting setup
 FFT: planning ...
 WAVECAR not read
 entering main loop
       N       E                     dE             d eps       ncg     rms          ort
DAV:   1     0.348209398002E+04    0.34821E+04   -0.13931E+05  5760   0.217E+03
DAV:   2     0.409715172802E+03   -0.30724E+04   -0.28305E+04  5760   0.530E+02
DAV:   3    -0.219861598579E+03   -0.62958E+03   -0.57617E+03  5760   0.253E+02
DAV:   4    -0.270494256725E+03   -0.50633E+02   -0.49540E+02  5760   0.739E+01
DAV:   5    -0.272299476757E+03   -0.18052E+01   -0.18018E+01  5760   0.139E+01
 gam= 0.000 g(H,U,f)=  0.187E+04 0.771E+03 0.229E+04 ort(H,U,f) = 0.000E+00 0.000E+00 0.000E+00
SDA:   6     0.150988886290E+03    0.42329E+03   -0.18018E+01  5760   0.493E+04 0.000E+00
 gam= 0.000 trial= 0.400  step= 0.077 mean= 0.400
 gam= 0.000 g(H,U,f)=  0.103E+04 0.233E+04 0.664E+04 ort(H,U,f) = 0.846E+03-0.483E+03-0.414E+04
CGA:   7     0.507066714517E+02   -0.10028E+03   -0.18980E+03  5760   0.100E+05-0.377E+04
 gam= 0.000 trial= 0.384  step= 0.069 mean= 0.384
 gam= 0.388 g(H,U,f)=  0.457E+03 0.704E+03 0.272E+04 ort(H,U,f) = 0.288E+03-0.282E+03-0.432E+04
CGA:   8    -0.829808803934E+02   -0.13369E+03   -0.34552E+03  5760   0.388E+04-0.432E+04
 gam= 0.388 trial= 0.368  step= 0.148 mean= 0.368
 gam= 0.428 g(H,U,f)=  0.944E+02 0.118E+04 0.386E+03 ort(H,U,f) =-0.925E+02-0.203E+03-0.179E+02
CGA:   9    -0.174341761534E+03   -0.91361E+02   -0.16268E+03  5760   0.166E+04-0.314E+03
 gam= 0.428 trial= 0.357  step= 0.048 mean= 0.357
 gam= 0.283 g(H,U,f)=  0.555E+02 0.223E+03 0.192E+03 ort(H,U,f) =-0.508E+02-0.315E+03-0.363E+03
CGA:  10    -0.198218582005E+03   -0.23877E+02   -0.36743E+02  5760   0.471E+03-0.729E+03
 gam= 0.283 trial= 0.342  step= 0.138 mean= 0.342
 gam= 0.292 g(H,U,f)=  0.428E+02 0.790E+02 0.159E+02 ort(H,U,f) = 0.147E+02-0.517E+02-0.848E+01
CGA:  11    -0.205309132171E+03   -0.70906E+01   -0.18230E+02  5760   0.138E+03-0.455E+02
 gam= 0.292 trial= 0.331  step= 0.083 mean= 0.331
 gam= 0.761 g(H,U,f)=  0.233E+02 0.527E+02 0.287E+02 ort(H,U,f) = 0.307E+02-0.135E+02-0.149E+02
CGA:  12    -0.210224548766E+03   -0.49154E+01   -0.51718E+01  5760   0.105E+03 0.228E+01
 gam= 0.761 trial= 0.319  step= 0.085 mean= 0.319
 gam= 1.134 g(H,U,f)=  0.122E+02 0.775E+02 0.291E+02 ort(H,U,f) = 0.178E+02-0.467E+02-0.159E+02
CGA:  13    -0.212814735528E+03   -0.25902E+01   -0.45444E+01  5760   0.119E+03-0.447E+02
 gam= 1.134 trial= 0.307  step= 0.090 mean= 0.307
 gam= 0.599 g(H,U,f)=  0.107E+02 0.573E+02 0.309E+01 ort(H,U,f) =-0.807E+01-0.646E+01-0.354E+01
CGA:  14    -0.214791780079E+03   -0.19770E+01   -0.30496E+01  5760   0.711E+02-0.181E+02
 gam= 0.599 trial= 0.296  step= 0.130 mean= 0.296
 gam= 0.391 g(H,U,f)=  0.821E+01 0.157E+02 0.385E+01 ort(H,U,f) =-0.158E+02 0.871E+01-0.771E+00
CGA:  15    -0.217656060840E+03   -0.28643E+01   -0.39246E+01  5760   0.278E+02-0.784E+01
 gam= 0.391 trial= 0.288  step= 0.117 mean= 0.288
 gam= 0.783 g(H,U,f)=  0.415E+01 0.122E+02 0.542E+01 ort(H,U,f) = 0.329E-01 0.322E+01-0.281E+01
CGA:  16    -0.219086061614E+03   -0.14300E+01   -0.14484E+01  5760   0.218E+02 0.445E+00
 gam= 0.783 trial= 0.280  step= 0.086 mean= 0.280
 gam= 0.355 g(H,U,f)=  0.148E+01 0.429E+01 0.195E+01 ort(H,U,f) = 0.779E+00-0.132E+01-0.148E+01
CGA:  17    -0.219900150349E+03   -0.81409E+00   -0.94787E+00  5760   0.772E+01-0.202E+01
 gam= 0.355 trial= 0.270  step= 0.087 mean= 0.270
 gam= 0.305 g(H,U,f)=  0.107E+01 0.112E+01 0.157E+00 ort(H,U,f) = 0.732E+00-0.775E+00-0.169E+00
CGA:  18    -0.220181893571E+03   -0.28174E+00   -0.30283E+00  5760   0.235E+01-0.211E+00
 gam= 0.305 trial= 0.261  step= 0.255 mean= 0.261
 gam= 1.241 g(H,U,f)=  0.561E+00 0.165E+01 0.703E+00 ort(H,U,f) = 0.244E+00 0.680E-01-0.249E+00
CGA:  19    -0.220473146784E+03   -0.29125E+00   -0.29162E+00  5760   0.292E+01 0.623E-01
 gam= 1.241 trial= 0.260  step= 0.128 mean= 0.260
 gam= 0.470 g(H,U,f)=  0.366E+00 0.786E+00 0.219E+00 ort(H,U,f) =-0.278E+00 0.337E+00-0.705E-01
CGA:  20    -0.220659630986E+03   -0.18648E+00   -0.19123E+00  5760   0.137E+01-0.109E-01
 gam= 0.470 trial= 0.254  step= 0.168 mean= 0.254
 gam= 1.239 g(H,U,f)=  0.350E+00 0.919E+00 0.429E+00 ort(H,U,f) =-0.153E+00 0.317E+00-0.159E+00
CGA:  21    -0.220770835355E+03   -0.11120E+00   -0.11469E+00  5760   0.170E+01 0.441E-02
 gam= 1.239 trial= 0.250  step= 0.198 mean= 0.250
 gam= 0.728 g(H,U,f)=  0.453E+00 0.666E+00 0.117E+00 ort(H,U,f) =-0.500E+00 0.505E+00 0.520E-01
CGA:  22    -0.220933279605E+03   -0.16244E+00   -0.16832E+00  5760   0.124E+01 0.569E-01
 gam= 0.728 trial= 0.247  step= 0.363 mean= 0.247
 gam= 1.699 g(H,U,f)=  0.679E+00 0.109E+01 0.330E+00 ort(H,U,f) =-0.260E+00 0.345E+00-0.831E-01
CGA:  23    -0.221164481076E+03   -0.23120E+00   -0.23213E+00  5760   0.210E+01 0.221E-02
 gam= 1.699 trial= 0.253  step= 0.227 mean= 0.253
 gam= 0.911 g(H,U,f)=  0.751E+00 0.105E+01 0.115E+00 ort(H,U,f) =-0.328E+00 0.482E+00-0.837E-01
CGA:  24    -0.221401158005E+03   -0.23668E+00   -0.23852E+00  5760   0.191E+01 0.699E-01
 gam= 0.911 trial= 0.251  step= 0.294 mean= 0.251
 gam= 1.160 g(H,U,f)=  0.982E+00 0.119E+01 0.461E-01 ort(H,U,f) =-0.572E+00 0.471E+00 0.263E-01
CGA:  25    -0.221689501774E+03   -0.28834E+00   -0.29077E+00  5760   0.222E+01-0.750E-01
 gam= 1.160 trial= 0.254  step= 0.234 mean= 0.254
 gam= 1.560 g(H,U,f)=  0.129E+01 0.135E+01 0.821E+00 ort(H,U,f) =-0.295E+00 0.674E+00-0.387E+00
CGA:  26    -0.221938688245E+03   -0.24919E+00   -0.24899E+00  5760   0.346E+01-0.789E-02
 gam= 1.560 trial= 0.253  step= 0.161 mean= 0.253
 gam= 0.466 g(H,U,f)=  0.895E+00 0.709E+00 0.998E-02 ort(H,U,f) =-0.406E+00 0.481E+00-0.322E-01
CGA:  27    -0.222221832409E+03   -0.28314E+00   -0.27760E+00  5760   0.161E+01 0.431E-01
 gam= 0.466 trial= 0.248  step= 0.233 mean= 0.248
 gam= 1.017 g(H,U,f)=  0.494E+00 0.608E+00 0.540E+00 ort(H,U,f) =-0.122E+00 0.281E+00-0.109E+00
CGA:  28    -0.222411138431E+03   -0.18931E+00   -0.19017E+00  5760   0.164E+01 0.506E-01
 gam= 1.017 trial= 0.247  step= 0.132 mean= 0.247
 gam= 0.571 g(H,U,f)=  0.421E+00 0.387E+00 0.131E+00 ort(H,U,f) =-0.142E+00 0.323E+00-0.192E+00
CGA:  29    -0.222520319459E+03   -0.10918E+00   -0.11186E+00  5760   0.938E+00-0.113E-01
 gam= 0.571 trial= 0.242  step= 0.325 mean= 0.242
 gam= 0.680 g(H,U,f)=  0.272E+00 0.363E+00 0.325E-02 ort(H,U,f) =-0.154E+00 0.176E+00-0.432E-02
CGA:  30    -0.222672737647E+03   -0.15242E+00   -0.15140E+00  5760   0.638E+00 0.175E-01
 gam= 0.680 trial= 0.246  step= 0.396 mean= 0.246
 gam= 0.768 g(H,U,f)=  0.211E+00 0.228E+00 0.504E-01 ort(H,U,f) =-0.131E+00 0.110E+00-0.310E-02
CGA:  31    -0.222799536942E+03   -0.12680E+00   -0.12878E+00  5760   0.490E+00-0.237E-01
 gam= 0.768 trial= 0.253  step= 0.231 mean= 0.253
 gam= 1.551 g(H,U,f)=  0.175E+00 0.293E+00 0.291E+00 ort(H,U,f) =-0.444E-02 0.112E+00-0.107E+00
CGA:  32    -0.222853844136E+03   -0.54307E-01   -0.54335E-01  5760   0.759E+00 0.112E-02
 gam= 1.551 trial= 0.252  step= 0.140 mean= 0.252
 gam= 0.405 g(H,U,f)=  0.155E+00 0.127E+00 0.251E-01 ort(H,U,f) =-0.539E-01 0.130E+00-0.485E-01
CGA:  33    -0.222911088926E+03   -0.57245E-01   -0.53190E-01  5760   0.307E+00 0.276E-01
 gam= 0.405 trial= 0.246  step= 0.341 mean= 0.246
 gam= 0.598 g(H,U,f)=  0.111E+00 0.715E-01 0.156E-02 ort(H,U,f) =-0.211E-01 0.289E-01-0.411E-03
CGA:  34    -0.222965807939E+03   -0.54719E-01   -0.54255E-01  5760   0.184E+00 0.743E-02
 gam= 0.598 trial= 0.251  step= 0.364 mean= 0.251
 gam= 0.681 g(H,U,f)=  0.633E-01 0.512E-01 0.109E-01 ort(H,U,f) =-0.223E-01 0.238E-01-0.941E-03
CGA:  35    -0.223000129534E+03   -0.34322E-01   -0.34272E-01  5760   0.125E+00 0.567E-03
 gam= 0.681 trial= 0.257  step= 0.179 mean= 0.257
 gam= 1.658 g(H,U,f)=  0.445E-01 0.660E-01 0.974E-01 ort(H,U,f) = 0.912E-02 0.247E-01-0.342E-01
CGA:  36    -0.223011565259E+03   -0.11436E-01   -0.11223E-01  5760   0.208E+00-0.382E-03
 gam= 1.658 trial= 0.253  step= 0.163 mean= 0.253
 gam= 0.443 g(H,U,f)=  0.395E-01 0.524E-01 0.123E-03 ort(H,U,f) =-0.426E-01 0.430E-01-0.543E-03
CGA:  37    -0.223028207009E+03   -0.16642E-01   -0.16843E-01  5760   0.920E-01-0.137E-03
 gam= 0.443 trial= 0.248  step= 0.362 mean= 0.248
 gam= 0.000 g(H,U,f)=  0.371E-01 0.495E-01 0.546E-01 ort(H,U,f) =-0.151E-01 0.270E-01-0.974E-02
SDA:  38    -0.223045002419E+03   -0.16795E-01   -0.16638E-01  5760   0.141E+00 0.223E-02
 gam= 0.000 trial= 0.254  step= 0.076 mean= 0.254
 gam= 0.466 g(H,U,f)=  0.190E-01 0.277E-01 0.191E-01 ort(H,U,f) = 0.186E-01 0.127E-01-0.320E-01
CGA:  39    -0.223050338981E+03   -0.53366E-02   -0.53608E-02  5760   0.658E-01-0.609E-03
 gam= 0.466 trial= 0.245  step= 0.298 mean= 0.245
 gam= 0.695 g(H,U,f)=  0.206E-01 0.250E-01 0.110E-03 ort(H,U,f) =-0.761E-02 0.806E-02-0.207E-03
CGA:  40    -0.223060124945E+03   -0.97860E-02   -0.97764E-02  5760   0.457E-01 0.234E-03
 gam= 0.695 trial= 0.248  step= 0.726 mean= 0.248
 gam= 0.538 g(H,U,f)=  0.152E-01 0.922E-02 0.123E-03 ort(H,U,f) =-0.151E-01 0.155E-01-0.425E-04
CGA:  41    -0.223076871743E+03   -0.16747E-01   -0.16654E-01  5760   0.246E-01 0.437E-03
 gam= 0.538 trial= 0.272  step= 0.545 mean= 0.272
 gam= 2.875 g(H,U,f)=  0.157E-01 0.209E-01 0.340E-01 ort(H,U,f) =-0.388E-02 0.452E-02-0.118E-02
CGA:  42    -0.223083558640E+03   -0.66869E-02   -0.67598E-02  5760   0.707E-01-0.539E-03
 gam= 2.875 trial= 0.285  step= 0.100 mean= 0.285
 gam= 0.541 g(H,U,f)=  0.145E-01 0.164E-01 0.737E-02 ort(H,U,f) =-0.569E-02 0.191E-01-0.140E-01
CGA:  43    -0.223086973050E+03   -0.34144E-02   -0.34455E-02  5760   0.382E-01-0.530E-03
 gam= 0.541 trial= 0.276  step= 0.345 mean= 0.276
 gam= 0.494 g(H,U,f)=  0.996E-02 0.877E-02 0.139E-03 ort(H,U,f) =-0.758E-02 0.757E-02 0.713E-04
CGA:  44    -0.223093514817E+03   -0.65418E-02   -0.65381E-02  5760   0.189E-01 0.605E-04
 gam= 0.494 trial= 0.280  step= 0.620 mean= 0.280
 gam= 1.160 g(H,U,f)=  0.105E-01 0.102E-01 0.120E-02 ort(H,U,f) =-0.386E-02 0.375E-02 0.167E-03
CGA:  45    -0.223099385178E+03   -0.58704E-02   -0.58600E-02  5760   0.219E-01 0.634E-04
 gam= 1.160 trial= 0.297  step= 0.434 mean= 0.297
 gam= 3.385 g(H,U,f)=  0.118E-01 0.261E-01 0.363E-01 ort(H,U,f) =-0.322E-02 0.102E-01-0.762E-02
CGA:  46    -0.223104102084E+03   -0.47169E-02   -0.47684E-02  5760   0.741E-01-0.599E-03
 gam= 3.385 trial= 0.303  step= 0.100 mean= 0.303
 gam= 0.375 g(H,U,f)=  0.136E-01 0.121E-01 0.205E-02 ort(H,U,f) =-0.271E-01 0.284E-01-0.188E-02
CGA:  47    -0.223107657839E+03   -0.35558E-02   -0.35969E-02  5760   0.278E-01-0.553E-03
 gam= 0.375 trial= 0.293  step= 0.654 mean= 0.293
 gam= 1.244 g(H,U,f)=  0.169E-01 0.140E-01 0.359E-02 ort(H,U,f) =-0.915E-02 0.822E-02 0.177E-02
CGA:  48    -0.223116810008E+03   -0.91522E-02   -0.90048E-02  5760   0.345E-01 0.841E-03
 gam= 1.244 trial= 0.311  step= 0.243 mean= 0.311
 gam= 3.222 g(H,U,f)=  0.197E-01 0.269E-01 0.647E-01 ort(H,U,f) = 0.387E-02 0.212E-01-0.253E-01
CGA:  49    -0.223121149610E+03   -0.43396E-02   -0.43136E-02  5760   0.111E+00-0.167E-03
 gam= 3.222 trial= 0.308  step= 0.167 mean= 0.308
 gam= 0.386 g(H,U,f)=  0.190E-01 0.212E-01 0.268E-02 ort(H,U,f) =-0.205E-01 0.255E-01-0.422E-02
CGA:  50    -0.223130496382E+03   -0.93468E-02   -0.92726E-02  5760   0.429E-01 0.758E-03
 gam= 0.386 trial= 0.301  step= 0.191 mean= 0.301
 gam= 2.585 g(H,U,f)=  0.176E-01 0.249E-01 0.683E-01 ort(H,U,f) =-0.261E-02 0.587E-02-0.340E-02
CGA:  51    -0.223134604655E+03   -0.41083E-02   -0.41324E-02  5760   0.111E+00-0.131E-03
 gam= 2.585 trial= 0.295  step= 0.148 mean= 0.295
 gam= 0.260 g(H,U,f)=  0.167E-01 0.108E-01 0.141E-02 ort(H,U,f) =-0.235E-01 0.119E-01 0.952E-02
CGA:  52    -0.223142611761E+03   -0.80071E-02   -0.82068E-02  5760   0.288E-01-0.203E-02
 gam= 0.260 trial= 0.288  step= 0.286 mean= 0.288
 gam= 3.345 g(H,U,f)=  0.144E-01 0.212E-01 0.608E-01 ort(H,U,f) = 0.629E-02 0.204E-01-0.257E-01
CGA:  53    -0.223146662468E+03   -0.40507E-02   -0.40528E-02  5760   0.964E-01 0.976E-03
 gam= 3.345 trial= 0.288  step= 0.019 mean= 0.288
 gam= 0.000 g(H,U,f)=  0.116E-01 0.175E-01 0.412E-01 ort(H,U,f) = 0.273E-01 0.796E-01-0.205E-01
CGA:  54    -0.223148430751E+03   -0.17683E-02   -0.93656E-03  5760   0.703E-01 0.864E-01
 gam= 0.000 trial= 0.274  step= 0.055 mean= 0.274
 gam= 0.190 g(H,U,f)=  0.558E-02 0.616E-02 0.165E-02 ort(H,U,f) = 0.596E-02 0.672E-02-0.830E-02
CGA:  55    -0.223150490643E+03   -0.20599E-02   -0.19219E-02  5760   0.134E-01 0.438E-02
 gam= 0.190 trial= 0.263  step= 0.664 mean= 0.263
 gam= 3.187 g(H,U,f)=  0.709E-02 0.112E-01 0.243E-01 ort(H,U,f) =-0.334E-02 0.301E-02 0.725E-04
CGA:  56    -0.223155162798E+03   -0.46722E-02   -0.47215E-02  5760   0.427E-01-0.260E-03
 gam= 3.187 trial= 0.284  step= 0.086 mean= 0.284
 gam= 0.588 g(H,U,f)=  0.997E-02 0.106E-01 0.451E-02 ort(H,U,f) =-0.127E-01 0.204E-01-0.100E-01
CGA:  57    -0.223156835058E+03   -0.16723E-02   -0.18043E-02  5760   0.251E-01-0.237E-02
 gam= 0.588 trial= 0.274  step= 0.494 mean= 0.274
 gam= 0.861 g(H,U,f)=  0.119E-01 0.863E-02 0.104E-02 ort(H,U,f) =-0.758E-02 0.765E-02-0.370E-03
CGA:  58    -0.223162650461E+03   -0.58154E-02   -0.58417E-02  5760   0.216E-01-0.305E-03
 gam= 0.861 trial= 0.285  step= 0.232 mean= 0.285
 gam= 2.892 g(H,U,f)=  0.932E-02 0.933E-02 0.438E-01 ort(H,U,f) =-0.806E-03 0.490E-02-0.468E-02
CGA:  59    -0.223165179292E+03   -0.25288E-02   -0.24739E-02  5760   0.624E-01-0.580E-03
 gam= 2.892 trial= 0.282  step= 0.170 mean= 0.282
 gam= 0.601 g(H,U,f)=  0.127E-01 0.846E-02 0.164E-01 ort(H,U,f) =-0.208E-01 0.740E-02 0.143E-01
CGA:  60    -0.223170164677E+03   -0.49854E-02   -0.51576E-02  5760   0.375E-01 0.901E-03
 gam= 0.601 trial= 0.276  step= 0.146 mean= 0.276
 gam= 1.759 g(H,U,f)=  0.175E-01 0.226E-01 0.259E-01 ort(H,U,f) =-0.244E-02 0.222E-01-0.188E-01
CGA:  61    -0.223172360160E+03   -0.21955E-02   -0.27792E-02  5760   0.660E-01 0.940E-03
 gam= 1.759 trial= 0.270  step= 0.161 mean= 0.270
 gam= 0.553 g(H,U,f)=  0.138E-01 0.119E-01 0.109E-01 ort(H,U,f) =-0.897E-02 0.197E-01 0.188E-02
CGA:  62    -0.223179960268E+03   -0.76001E-02   -0.54521E-02  5760   0.365E-01 0.126E-01
 gam= 0.553 trial= 0.264  step= 1.009 mean= 0.264
 gam= 0.000 g(H,U,f)=  0.125E+01 0.131E+02 0.984E+01 ort(H,U,f) =-0.910E-01-0.203E+01-0.543E+00
CGA:  63    -0.222658930570E+03    0.52103E+00   -0.21957E-01  5760   0.242E+02-0.266E+01
 gam= 0.000 trial= 0.302  step= 0.142 mean= 0.302
 gam= 0.132 g(H,U,f)=  0.101E+01 0.217E+01 0.789E-02 ort(H,U,f) =-0.942E+00-0.236E+01-0.213E-01
CGA:  64    -0.222860108261E+03   -0.20118E+00   -0.17166E+01  5760   0.319E+01-0.332E+01
 gam= 0.132 trial= 0.294  step= 0.035 mean= 0.294
 gam= 0.000 g(H,U,f)=  0.694E+00 0.167E+01 0.620E-02 ort(H,U,f) = 0.720E+00 0.176E+01 0.451E-02
CGA:  65    -0.222981473785E+03   -0.12137E+00   -0.48061E-01  5760   0.237E+01 0.249E+01
 gam= 0.000 trial= 0.281  step= 0.021 mean= 0.281
 gam= 0.000 g(H,U,f)=  0.495E+00 0.132E+01 0.463E-02 ort(H,U,f) = 0.576E+00 0.159E+01 0.529E-02
CGA:  66    -0.223058928147E+03   -0.77454E-01   -0.25360E-01  5760   0.182E+01 0.218E+01
 gam= 0.000 trial= 0.268  step= 0.026 mean= 0.268
 gam= 0.000 g(H,U,f)=  0.285E+00 0.882E+00 0.329E-02 ort(H,U,f) = 0.370E+00 0.118E+01 0.403E-02
CGA:  67    -0.223137982446E+03   -0.79054E-01   -0.23903E-01  5760   0.117E+01 0.156E+01
 gam= 0.000 trial= 0.256  step= 0.032 mean= 0.256
 gam= 0.000 g(H,U,f)=  0.121E+00 0.437E+00 0.221E-02 ort(H,U,f) = 0.183E+00 0.689E+00 0.297E-02
CGA:  68    -0.223198522218E+03   -0.60540E-01   -0.18489E-01  5760   0.561E+00 0.874E+00
 gam= 0.000 trial= 0.245  step= 0.039 mean= 0.245
 gam= 0.000 g(H,U,f)=  0.381E-01 0.135E+00 0.126E-02 ort(H,U,f) = 0.649E-01 0.263E+00 0.176E-02
CGA:  69    -0.223229731424E+03   -0.31209E-01   -0.10853E-01  5760   0.175E+00 0.330E+00
 gam= 0.000 trial= 0.234  step= 0.054 mean= 0.234
 gam= 0.226 g(H,U,f)=  0.134E-01 0.253E-01 0.768E-03 ort(H,U,f) = 0.183E-01 0.489E-01 0.899E-03
CGA:  70    -0.223239942337E+03   -0.10211E-01   -0.46804E-02  5760   0.395E-01 0.681E-01
 gam= 0.226 trial= 0.225  step= 0.068 mean= 0.225
 gam= 0.948 g(H,U,f)=  0.110E-01 0.258E-01 0.600E-03 ort(H,U,f) = 0.107E-01 0.642E-02 0.762E-03
CGA:  71    -0.223242441159E+03   -0.24988E-02   -0.18780E-02  5760   0.374E-01 0.179E-01
 gam= 0.948 trial= 0.217  step= 0.163 mean= 0.217
 gam= 2.922 g(H,U,f)=  0.171E-01 0.920E-01 0.148E-03 ort(H,U,f) = 0.563E-02 0.754E-02 0.487E-03
CGA:  72    -0.223246762334E+03   -0.43212E-02   -0.44222E-02  5760   0.109E+00 0.137E-01
 gam= 2.922 trial= 0.215  step= 0.107 mean= 0.215
 gam= 0.902 g(H,U,f)=  0.323E-01 0.660E-01 0.253E-03 ort(H,U,f) =-0.522E-01 0.505E-01-0.250E-02
CGA:  73    -0.223255205123E+03   -0.84428E-02   -0.80127E-02  5760   0.985E-01-0.422E-02
 gam= 0.902 trial= 0.209  step= 0.061 mean= 0.209
 gam= 0.691 g(H,U,f)=  0.376E-01 0.302E-01 0.270E-03 ort(H,U,f) =-0.520E-01 0.527E-01-0.193E-02
CGA:  74    -0.223258803177E+03   -0.35981E-02   -0.28992E-02  5760   0.681E-01-0.117E-02
 gam= 0.691 trial= 0.202  step= 0.094 mean= 0.202
 gam= 1.401 g(H,U,f)=  0.396E-01 0.556E-01 0.561E-04 ort(H,U,f) =-0.223E-01 0.337E-01 0.767E-04
CGA:  75    -0.223261755521E+03   -0.29523E-02   -0.31697E-02  5760   0.953E-01 0.115E-01
 gam= 1.401 trial= 0.196  step= 0.142 mean= 0.196
 gam= 0.688 g(H,U,f)=  0.409E-01 0.235E-01 0.125E-02 ort(H,U,f) =-0.502E-01 0.420E-01 0.473E-02
CGA:  76    -0.223269810402E+03   -0.80549E-02   -0.79003E-02  5760   0.656E-01-0.347E-02
 gam= 0.688 trial= 0.194  step= 0.064 mean= 0.194
 gam= 0.789 g(H,U,f)=  0.362E-01 0.146E-01 0.937E-03 ort(H,U,f) =-0.191E-02 0.139E-01 0.388E-02
CGA:  77    -0.223272481073E+03   -0.26707E-02   -0.20107E-02  5760   0.517E-01 0.158E-01
 gam= 0.789 trial= 0.187  step= 0.108 mean= 0.187
 gam= 1.710 g(H,U,f)=  0.257E-01 0.627E-01 0.130E-03 ort(H,U,f) = 0.190E-01-0.779E-02 0.115E-02
CGA:  78    -0.223275965342E+03   -0.34843E-02   -0.34748E-02  5760   0.885E-01 0.124E-01
 gam= 1.710 trial= 0.183  step= 0.105 mean= 0.183
 gam= 0.687 g(H,U,f)=  0.155E-01 0.449E-01 0.464E-03 ort(H,U,f) =-0.490E-02 0.471E-02-0.466E-02
CGA:  79    -0.223281860093E+03   -0.58948E-02   -0.57699E-02  5760   0.608E-01-0.484E-02
 gam= 0.687 trial= 0.179  step= 0.056 mean= 0.179
 gam= 0.467 g(H,U,f)=  0.140E-01 0.139E-01 0.408E-03 ort(H,U,f) =-0.657E-02 0.874E-02-0.247E-02
CGA:  80    -0.223283913501E+03   -0.20534E-02   -0.16091E-02  5760   0.284E-01-0.302E-03
 gam= 0.467 trial= 0.173  step= 0.097 mean= 0.173
 gam= 1.450 g(H,U,f)=  0.131E-01 0.279E-01 0.877E-04 ort(H,U,f) = 0.334E-02 0.112E-02-0.194E-03
CGA:  81    -0.223285284556E+03   -0.13711E-02   -0.13648E-02  5760   0.411E-01 0.427E-02
 gam= 1.450 trial= 0.169  step= 0.147 mean= 0.169
 gam= 0.812 g(H,U,f)=  0.105E-01 0.213E-01 0.157E-02 ort(H,U,f) =-0.921E-02 0.733E-02 0.179E-02
CGA:  82    -0.223288770664E+03   -0.34861E-02   -0.34710E-02  5760   0.334E-01-0.863E-04
 gam= 0.812 trial= 0.168  step= 0.064 mean= 0.168
 gam= 0.564 g(H,U,f)=  0.967E-02 0.880E-02 0.381E-03 ort(H,U,f) =-0.548E-02 0.709E-02 0.726E-03
CGA:  83    -0.223290002486E+03   -0.12318E-02   -0.10738E-02  5760   0.188E-01 0.234E-02
 gam= 0.564 trial= 0.163  step= 0.138 mean= 0.163
 gam= 2.214 g(H,U,f)=  0.100E-01 0.281E-01 0.361E-02 ort(H,U,f) = 0.101E-02 0.362E-02-0.783E-03
CGA:  84    -0.223291379716E+03   -0.13772E-02   -0.13940E-02  5760   0.417E-01 0.385E-02
 gam= 2.214 trial= 0.162  step= 0.176 mean= 0.162
 gam= 0.759 g(H,U,f)=  0.121E-01 0.178E-01 0.171E-02 ort(H,U,f) =-0.166E-01 0.175E-01 0.108E-02
CGA:  85    -0.223295822962E+03   -0.44432E-02   -0.44320E-02  5760   0.317E-01 0.204E-02
 gam= 0.759 trial= 0.163  step= 0.084 mean= 0.163
 gam= 0.579 g(H,U,f)=  0.111E-01 0.698E-02 0.290E-03 ort(H,U,f) =-0.719E-02 0.769E-02 0.107E-02
CGA:  86    -0.223297291279E+03   -0.14683E-02   -0.13878E-02  5760   0.183E-01 0.156E-02
 gam= 0.579 trial= 0.159  step= 0.214 mean= 0.159
 gam= 1.572 g(H,U,f)=  0.865E-02 0.189E-01 0.131E-02 ort(H,U,f) =-0.402E-03 0.294E-02 0.739E-03
CGA:  87    -0.223299439170E+03   -0.21479E-02   -0.20627E-02  5760   0.288E-01 0.327E-02
 gam= 1.572 trial= 0.161  step= 0.136 mean= 0.161
 gam= 0.432 g(H,U,f)=  0.800E-02 0.437E-02 0.784E-04 ort(H,U,f) =-0.572E-02 0.379E-02 0.331E-03
CGA:  88    -0.223301850625E+03   -0.24115E-02   -0.23111E-02  5760   0.124E-01-0.160E-02
 gam= 0.432 trial= 0.160  step= 0.269 mean= 0.160
 gam= 0.913 g(H,U,f)=  0.618E-02 0.503E-02 0.146E-03 ort(H,U,f) =-0.353E-03 0.161E-02 0.158E-03
CGA:  89    -0.223303499839E+03   -0.16492E-02   -0.15832E-02  5760   0.114E-01 0.142E-02
 gam= 0.913 trial= 0.166  step= 0.187 mean= 0.166
 gam= 0.993 g(H,U,f)=  0.483E-02 0.623E-02 0.221E-03 ort(H,U,f) = 0.270E-03 0.578E-04 0.271E-03
CGA:  90    -0.223304681250E+03   -0.11814E-02   -0.11855E-02  5760   0.113E-01 0.599E-03
 gam= 0.993 trial= 0.167  step= 0.376 mean= 0.167
 gam= 0.894 g(H,U,f)=  0.495E-02 0.512E-02 0.177E-04 ort(H,U,f) =-0.377E-02 0.693E-03 0.115E-03
CGA:  91    -0.223306425625E+03   -0.17444E-02   -0.22354E-02  5760   0.101E-01-0.296E-02
 gam= 0.894 trial= 0.177  step= 0.198 mean= 0.177
 gam= 0.702 g(H,U,f)=  0.431E-02 0.276E-02 0.143E-04 ort(H,U,f) =-0.208E-02 0.240E-02 0.118E-03
CGA:  92    -0.223307167015E+03   -0.74139E-03   -0.73571E-03  5760   0.708E-02 0.436E-03
 gam= 0.702 trial= 0.178  step= 0.275 mean= 0.178
 gam= 1.048 g(H,U,f)=  0.385E-02 0.356E-02 0.121E-04 ort(H,U,f) =-0.776E-03 0.931E-03 0.751E-04
CGA:  93    -0.223308198450E+03   -0.10314E-02   -0.10158E-02  5760   0.742E-02 0.230E-03
 gam= 1.048 trial= 0.183  step= 0.332 mean= 0.183
 gam= 1.542 g(H,U,f)=  0.488E-02 0.647E-02 0.904E-04 ort(H,U,f) =-0.170E-02 0.166E-02-0.221E-03
CGA:  94    -0.223309399656E+03   -0.12012E-02   -0.12732E-02  5760   0.114E-01-0.260E-03
 gam= 1.542 trial= 0.191  step= 0.251 mean= 0.191
 gam= 0.869 g(H,U,f)=  0.598E-02 0.390E-02 0.545E-04 ort(H,U,f) =-0.549E-02 0.524E-02-0.293E-04
CGA:  95    -0.223310771890E+03   -0.13722E-02   -0.13835E-02  5760   0.994E-02-0.275E-03
 gam= 0.869 trial= 0.194  step= 0.294 mean= 0.194
 gam= 1.029 g(H,U,f)=  0.663E-02 0.352E-02 0.673E-04 ort(H,U,f) =-0.466E-02 0.432E-02 0.465E-04
CGA:  96    -0.223312192996E+03   -0.14211E-02   -0.14233E-02  5760   0.102E-01-0.290E-03
 gam= 1.029 trial= 0.199  step= 0.279 mean= 0.199
 gam= 1.149 g(H,U,f)=  0.613E-02 0.544E-02 0.177E-03 ort(H,U,f) =-0.382E-02 0.328E-02-0.367E-03
CGA:  97    -0.223313445237E+03   -0.12522E-02   -0.13822E-02  5760   0.117E-01-0.916E-03
 gam= 1.149 trial= 0.203  step= 0.219 mean= 0.203
 gam= 0.936 g(H,U,f)=  0.638E-02 0.458E-02 0.343E-04 ort(H,U,f) =-0.389E-02 0.426E-02-0.247E-03
CGA:  98    -0.223314619714E+03   -0.11745E-02   -0.11717E-02  5760   0.110E-01 0.124E-03
 gam= 0.936 trial= 0.203  step= 0.301 mean= 0.203
 gam= 1.492 g(H,U,f)=  0.766E-02 0.848E-02 0.273E-03 ort(H,U,f) =-0.300E-02 0.280E-02-0.244E-03
CGA:  99    -0.223316277494E+03   -0.16578E-02   -0.16744E-02  5760   0.164E-01-0.443E-03
 gam= 1.492 trial= 0.208  step= 0.228 mean= 0.208
 gam= 0.000 g(H,U,f)=  0.774E-02 0.545E-02 0.261E-03 ort(H,U,f) =-0.571E-02 0.458E-02-0.341E-03
SDA: 100    -0.223318023929E+03   -0.17464E-02   -0.17976E-02  5760   0.135E-01-0.148E-02
 gam= 0.000 trial= 0.209  step= 0.368 mean= 0.209
 gam= 1.391 g(H,U,f)=  0.468E-02 0.122E-01 0.179E-02 ort(H,U,f) = 0.252E-02-0.172E-02-0.625E-03
CGA: 101    -0.223320251980E+03   -0.22281E-02   -0.24726E-02  5760   0.187E-01 0.177E-03
 gam= 1.391 trial= 0.217  step= 0.191 mean= 0.217
 gam= 0.457 g(H,U,f)=  0.348E-02 0.485E-02 0.220E-03 ort(H,U,f) = 0.635E-04-0.124E-02-0.336E-03
CGA: 102    -0.223322136038E+03   -0.18841E-02   -0.18133E-02  5760   0.855E-02-0.151E-02
 gam= 0.457 trial= 0.216  step= 0.495 mean= 0.216
 gam= 0.497 g(H,U,f)=  0.266E-02 0.158E-02 0.100E-04 ort(H,U,f) =-0.159E-02 0.100E-02 0.220E-04
CGA: 103    -0.223323979135E+03   -0.18431E-02   -0.19434E-02  5760   0.425E-02-0.571E-03
 gam= 0.497 trial= 0.230  step= 0.548 mean= 0.230
 gam= 0.774 g(H,U,f)=  0.137E-02 0.192E-02 0.396E-05 ort(H,U,f) =-0.437E-03 0.585E-03-0.208E-04
CGA: 104    -0.223325057329E+03   -0.10782E-02   -0.10862E-02  5760   0.329E-02 0.127E-03
 gam= 0.774 trial= 0.246  step= 0.193 mean= 0.246
 gam= 0.818 g(H,U,f)=  0.932E-03 0.171E-02 0.483E-04 ort(H,U,f) = 0.154E-03 0.137E-03 0.548E-04
CGA: 105    -0.223325414705E+03   -0.35738E-03   -0.32775E-03  5760   0.269E-02 0.345E-03
 gam= 0.818 trial= 0.243  step= 0.428 mean= 0.243
 gam= 0.768 g(H,U,f)=  0.870E-03 0.119E-02 0.720E-05 ort(H,U,f) =-0.639E-03 0.233E-03 0.366E-04
CGA: 106    -0.223325983958E+03   -0.56925E-03   -0.63618E-03  5760   0.207E-02-0.370E-03
 gam= 0.768 trial= 0.252  step= 0.493 mean= 0.252
 gam= 1.022 g(H,U,f)=  0.834E-03 0.125E-02 0.242E-04 ort(H,U,f) =-0.447E-03 0.511E-03 0.641E-04
CGA: 107    -0.223326420004E+03   -0.43605E-03   -0.43887E-03  5760   0.211E-02 0.128E-03
 gam= 1.022 trial= 0.264  step= 0.239 mean= 0.264
 gam= 0.910 g(H,U,f)=  0.711E-03 0.119E-02 0.170E-04 ort(H,U,f) =-0.146E-03 0.357E-03-0.743E-04
CGA: 108    -0.223326696224E+03   -0.27622E-03   -0.26746E-03  5760   0.192E-02 0.137E-03
 gam= 0.910 trial= 0.263  step= 0.471 mean= 0.263
 gam= 1.527 g(H,U,f)=  0.995E-03 0.192E-02 0.153E-04 ort(H,U,f) =-0.661E-03 0.184E-03 0.381E-04
CGA: 109    -0.223327078058E+03   -0.38183E-03   -0.48151E-03  5760   0.293E-02-0.438E-03
 gam= 1.527 trial= 0.273  step= 0.296 mean= 0.273
 gam= 0.975 g(H,U,f)=  0.133E-02 0.150E-02 0.251E-04 ort(H,U,f) =-0.937E-03 0.857E-03-0.848E-04
CGA: 110    -0.223327404618E+03   -0.32656E-03   -0.33465E-03  5760   0.286E-02-0.165E-03
 gam= 0.975 trial= 0.275  step= 0.524 mean= 0.275
 gam= 1.023 g(H,U,f)=  0.162E-02 0.129E-02 0.136E-04 ort(H,U,f) =-0.965E-03 0.584E-03 0.608E-04
CGA: 111    -0.223328022331E+03   -0.61771E-03   -0.70696E-03  5760   0.293E-02-0.321E-03
 gam= 1.023 trial= 0.287  step= 0.305 mean= 0.287
 gam= 1.189 g(H,U,f)=  0.130E-02 0.211E-02 0.659E-04 ort(H,U,f) =-0.295E-03 0.503E-03-0.161E-03
CGA: 112    -0.223328413269E+03   -0.39094E-03   -0.39591E-03  5760   0.348E-02 0.466E-04
 gam= 1.189 trial= 0.288  step= 0.355 mean= 0.288
 gam= 1.066 g(H,U,f)=  0.131E-02 0.237E-02 0.283E-04 ort(H,U,f) =-0.734E-03 0.241E-03-0.252E-04
CGA: 113    -0.223328989851E+03   -0.57658E-03   -0.62720E-03  5760   0.371E-02-0.519E-03
 gam= 1.066 trial= 0.291  step= 0.281 mean= 0.291
 gam= 0.816 g(H,U,f)=  0.153E-02 0.137E-02 0.128E-03 ort(H,U,f) =-0.866E-03 0.805E-03-0.129E-03
CGA: 114    -0.223329436847E+03   -0.44700E-03   -0.44300E-03  5760   0.303E-02-0.190E-03
 gam= 0.816 trial= 0.291  step= 0.476 mean= 0.291
 gam= 1.414 g(H,U,f)=  0.160E-02 0.261E-02 0.693E-04 ort(H,U,f) =-0.781E-03 0.461E-03 0.726E-04
CGA: 115    -0.223330019817E+03   -0.58297E-03   -0.68367E-03  5760   0.428E-02-0.247E-03
 gam= 1.414 trial= 0.300  step= 0.249 mean= 0.300
 gam= 0.944 g(H,U,f)=  0.179E-02 0.215E-02 0.987E-04 ort(H,U,f) =-0.875E-03 0.101E-02 0.449E-04
CGA: 116    -0.223330519164E+03   -0.49935E-03   -0.48904E-03  5760   0.404E-02 0.178E-03
 gam= 0.944 trial= 0.297  step= 0.391 mean= 0.297
 gam= 0.956 g(H,U,f)=  0.216E-02 0.159E-02 0.115E-03 ort(H,U,f) =-0.116E-02 0.105E-02 0.831E-04
CGA: 117    -0.223331322680E+03   -0.80352E-03   -0.82452E-03  5760   0.387E-02-0.300E-04
 gam= 0.956 trial= 0.302  step= 0.533 mean= 0.302
 gam= 1.225 g(H,U,f)=  0.223E-02 0.215E-02 0.363E-03 ort(H,U,f) =-0.509E-03 0.984E-03 0.272E-03
CGA: 118    -0.223332419289E+03   -0.10966E-02   -0.10224E-02  5760   0.474E-02 0.747E-03
 gam= 1.225 trial= 0.314  step= 0.266 mean= 0.314
 gam= 0.918 g(H,U,f)=  0.176E-02 0.247E-02 0.115E-03 ort(H,U,f) =-0.602E-03 0.143E-02 0.371E-03
CGA: 119    -0.223333178113E+03   -0.75882E-03   -0.75161E-03  5760   0.435E-02 0.120E-02
 gam= 0.918 trial= 0.311  step= 0.213 mean= 0.311
 gam= 0.617 g(H,U,f)=  0.130E-02 0.126E-02 0.131E-03 ort(H,U,f) =-0.658E-03 0.856E-03 0.507E-03
CGA: 120    -0.223333743370E+03   -0.56526E-03   -0.57997E-03  5760   0.269E-02 0.705E-03
 gam= 0.617 trial= 0.306  step= 0.479 mean= 0.306
 gam= 0.931 g(H,U,f)=  0.129E-02 0.115E-02 0.564E-04 ort(H,U,f) =-0.565E-03 0.986E-03 0.277E-03
CGA: 121    -0.223334519493E+03   -0.77612E-03   -0.74724E-03  5760   0.250E-02 0.698E-03
 gam= 0.931 trial= 0.315  step= 0.346 mean= 0.315
 gam= 1.034 g(H,U,f)=  0.114E-02 0.131E-02 0.133E-03 ort(H,U,f) =-0.391E-03 0.734E-03 0.387E-03
CGA: 122    -0.223335075606E+03   -0.55611E-03   -0.54487E-03  5760   0.258E-02 0.730E-03
 gam= 1.034 trial= 0.317  step= 0.253 mean= 0.317
 gam= 0.977 g(H,U,f)=  0.970E-03 0.151E-02 0.435E-04 ort(H,U,f) =-0.199E-03 0.834E-03 0.240E-03
CGA: 123    -0.223335505820E+03   -0.43021E-03   -0.42193E-03  5760   0.252E-02 0.876E-03
 gam= 0.977 trial= 0.313  step= 0.299 mean= 0.313
 gam= 0.735 g(H,U,f)=  0.896E-03 0.933E-03 0.270E-04 ort(H,U,f) =-0.594E-03 0.812E-03 0.204E-03
CGA: 124    -0.223336008124E+03   -0.50230E-03   -0.50532E-03  5760   0.186E-02 0.423E-03
 gam= 0.735 trial= 0.313  step= 0.402 mean= 0.313
 gam= 1.226 g(H,U,f)=  0.950E-03 0.130E-02 0.214E-04 ort(H,U,f) =-0.423E-03 0.564E-03 0.142E-04
CGA: 125    -0.223336428109E+03   -0.41999E-03   -0.43508E-03  5760   0.227E-02 0.155E-03
 gam= 1.226 trial= 0.317  step= 0.220 mean= 0.317
 gam= 0.792 g(H,U,f)=  0.896E-03 0.897E-03 0.722E-05 ort(H,U,f) =-0.397E-03 0.399E-03 0.462E-04
CGA: 126    -0.223336702479E+03   -0.27437E-03   -0.27150E-03  5760   0.180E-02 0.482E-04
 gam= 0.792 trial= 0.312  step= 0.552 mean= 0.312
 gam= 1.190 g(H,U,f)=  0.103E-02 0.110E-02 0.748E-05 ort(H,U,f) =-0.668E-03 0.204E-03 0.134E-04
CGA: 127    -0.223337068571E+03   -0.36609E-03   -0.50699E-03  5760   0.214E-02-0.451E-03
 gam= 1.190 trial= 0.324  step= 0.167 mean= 0.324
 gam= 0.794 g(H,U,f)=  0.102E-02 0.678E-03 0.759E-06 ort(H,U,f) =-0.219E-03 0.218E-03 0.105E-04
CGA: 128    -0.223337207342E+03   -0.13877E-03   -0.13428E-03  5760   0.170E-02 0.101E-04
 gam= 0.794 trial= 0.316  step= 0.315 mean= 0.316
 gam= 0.800 g(H,U,f)=  0.620E-03 0.738E-03 0.214E-05 ort(H,U,f) =-0.103E-03-0.235E-04 0.651E-05
CGA: 129    -0.223337476588E+03   -0.26925E-03   -0.26920E-03  5760   0.136E-02-0.120E-03
 gam= 0.800 trial= 0.316  step= 0.154 mean= 0.316
 gam= 0.822 g(H,U,f)=  0.490E-03 0.622E-03 0.571E-05 ort(H,U,f) = 0.129E-03 0.125E-03 0.111E-04
CGA: 130    -0.223337600711E+03   -0.12412E-03   -0.97486E-04  5760   0.112E-02 0.265E-03
 gam= 0.822 trial= 0.308  step= 0.316 mean= 0.308
 gam= 0.000 g(H,U,f)=  0.340E-03 0.467E-03 0.377E-05 ort(H,U,f) =-0.222E-03 0.314E-03 0.980E-05
SDA: 131    -0.223337812067E+03   -0.21136E-03   -0.21092E-03  5760   0.811E-03 0.102E-03
 gam= 0.000 trial= 0.309  step= 0.175 mean= 0.309
 gam= 0.703 g(H,U,f)=  0.173E-03 0.396E-03 0.149E-05 ort(H,U,f) = 0.156E-03-0.232E-04 0.867E-06
CGA: 132    -0.223337890614E+03   -0.78547E-04   -0.70776E-04  5760   0.570E-03 0.134E-03
 gam= 0.703 trial= 0.302  step= 0.348 mean= 0.302
 gam= 0.938 g(H,U,f)=  0.141E-03 0.391E-03 0.246E-05 ort(H,U,f) =-0.995E-04 0.657E-04 0.211E-05
CGA: 133    -0.223338001197E+03   -0.11058E-03   -0.11558E-03  5760   0.534E-03-0.316E-04
 gam= 0.938 trial= 0.304  step= 0.425 mean= 0.304
 gam= 2.138 g(H,U,f)=  0.370E-03 0.770E-03 0.194E-05 ort(H,U,f) =-0.173E-03 0.143E-03-0.123E-05
CGA: 134    -0.223338095320E+03   -0.94123E-04   -0.10722E-03  5760   0.114E-02-0.315E-04
 gam= 2.138 trial= 0.310  step= 0.280 mean= 0.310
 gam= 0.638 g(H,U,f)=  0.473E-03 0.255E-03 0.981E-06 ort(H,U,f) =-0.467E-03 0.431E-03 0.437E-05
CGA: 135    -0.223338248239E+03   -0.15292E-03   -0.15055E-03  5760   0.729E-03-0.316E-04
 gam= 0.638 trial= 0.309  step= 0.633 mean= 0.309
 gam= 0.970 g(H,U,f)=  0.377E-03 0.328E-03 0.182E-05 ort(H,U,f) =-0.195E-03 0.144E-03-0.131E-05
CGA: 136    -0.223338450620E+03   -0.20238E-03   -0.22452E-03  5760   0.707E-03-0.527E-04
 gam= 0.970 trial= 0.325  step= 0.294 mean= 0.325
 gam= 1.490 g(H,U,f)=  0.389E-03 0.660E-03 0.467E-05 ort(H,U,f) =-0.300E-04 0.775E-04 0.524E-06
CGA: 137    -0.223338549161E+03   -0.98541E-04   -0.96416E-04  5760   0.105E-02 0.480E-04
 gam= 1.490 trial= 0.323  step= 0.266 mean= 0.323
 gam= 0.485 g(H,U,f)=  0.253E-03 0.252E-03 0.589E-05 ort(H,U,f) =-0.206E-03 0.187E-03-0.185E-04
CGA: 138    -0.223338703430E+03   -0.15427E-03   -0.14967E-03  5760   0.511E-03-0.377E-04
 gam= 0.485 trial= 0.321  step= 0.599 mean= 0.321
 gam= 1.878 g(H,U,f)=  0.333E-03 0.616E-03 0.107E-04 ort(H,U,f) =-0.146E-03 0.125E-03-0.374E-05
CGA: 139    -0.223338833394E+03   -0.12996E-03   -0.14764E-03  5760   0.960E-03-0.240E-04
 gam= 1.878 trial= 0.334  step= 0.204 mean= 0.334
 gam= 0.966 g(H,U,f)=  0.416E-03 0.503E-03 0.789E-05 ort(H,U,f) =-0.210E-03 0.277E-03-0.680E-05
CGA: 140    -0.223338942650E+03   -0.10926E-03   -0.93585E-04  5760   0.927E-03 0.602E-04
 gam= 0.966 trial= 0.328  step= 0.562 mean= 0.328
 gam= 0.819 g(H,U,f)=  0.472E-03 0.285E-03 0.241E-05 ort(H,U,f) =-0.392E-03 0.374E-03 0.204E-05
CGA: 141    -0.223339217302E+03   -0.27465E-03   -0.27711E-03  5760   0.760E-03-0.159E-04
 gam= 0.819 trial= 0.340  step= 0.609 mean= 0.340
 gam= 2.300 g(H,U,f)=  0.615E-03 0.112E-02 0.118E-04 ort(H,U,f) =-0.191E-03 0.230E-03-0.136E-07
CGA: 142    -0.223339439897E+03   -0.22259E-03   -0.22754E-03  5760   0.175E-02 0.388E-04
 gam= 2.300 trial= 0.353  step= 0.180 mean= 0.353
 gam= 0.688 g(H,U,f)=  0.584E-03 0.607E-03 0.102E-04 ort(H,U,f) =-0.366E-03 0.506E-03 0.690E-05
CGA: 143    -0.223339622767E+03   -0.18287E-03   -0.16535E-03  5760   0.120E-02 0.147E-03
 gam= 0.688 trial= 0.344  step= 0.610 mean= 0.344
 gam= 1.033 g(H,U,f)=  0.722E-03 0.517E-03 0.266E-05 ort(H,U,f) =-0.491E-03 0.276E-03-0.175E-05
CGA: 144    -0.223339969835E+03   -0.34707E-03   -0.39728E-03  5760   0.124E-02-0.217E-03
 gam= 1.033 trial= 0.358  step= 0.478 mean= 0.358
 gam= 1.482 g(H,U,f)=  0.790E-03 0.104E-02 0.125E-04 ort(H,U,f) =-0.199E-03 0.203E-03 0.619E-05
CGA: 145    -0.223340211999E+03   -0.24216E-03   -0.24323E-03  5760   0.184E-02 0.105E-04
 gam= 1.482 trial= 0.364  step= 0.199 mean= 0.364
 gam= 0.681 g(H,U,f)=  0.536E-03 0.709E-03 0.791E-05 ort(H,U,f) =-0.358E-04 0.270E-03-0.104E-04
CGA: 146    -0.223340424068E+03   -0.21207E-03   -0.18468E-03  5760   0.125E-02 0.224E-03
 gam= 0.681 trial= 0.356  step= 0.367 mean= 0.356
 gam= 0.773 g(H,U,f)=  0.434E-03 0.527E-03 0.655E-05 ort(H,U,f) =-0.221E-03 0.211E-03 0.367E-05
CGA: 147    -0.223340681378E+03   -0.25731E-03   -0.25789E-03  5760   0.968E-03-0.606E-05
 gam= 0.773 trial= 0.356  step= 0.306 mean= 0.356
 gam= 1.467 g(H,U,f)=  0.510E-03 0.900E-03 0.106E-04 ort(H,U,f) =-0.907E-04 0.170E-03-0.971E-05
CGA: 148    -0.223340834590E+03   -0.15321E-03   -0.14739E-03  5760   0.142E-02 0.693E-04
 gam= 1.467 trial= 0.354  step= 0.298 mean= 0.354
 gam= 0.694 g(H,U,f)=  0.503E-03 0.481E-03 0.277E-05 ort(H,U,f) =-0.285E-03 0.275E-03 0.195E-05
CGA: 149    -0.223341063121E+03   -0.22853E-03   -0.22700E-03  5760   0.986E-03-0.813E-05
 gam= 0.694 trial= 0.351  step= 0.395 mean= 0.351
 gam= 0.792 g(H,U,f)=  0.360E-03 0.414E-03 0.697E-05 ort(H,U,f) =-0.188E-03 0.198E-03-0.715E-05
CGA: 150    -0.223341253734E+03   -0.19061E-03   -0.19392E-03  5760   0.781E-03 0.265E-05
 gam= 0.792 trial= 0.353  step= 0.192 mean= 0.353
 gam= 0.841 g(H,U,f)=  0.304E-03 0.350E-03 0.349E-05 ort(H,U,f) =-0.151E-04 0.690E-04-0.868E-06
CGA: 151    -0.223341335878E+03   -0.82144E-04   -0.75127E-04  5760   0.657E-03 0.531E-04
 gam= 0.841 trial= 0.345  step= 0.445 mean= 0.345
 gam= 0.765 g(H,U,f)=  0.271E-03 0.230E-03 0.121E-05 ort(H,U,f) =-0.151E-03 0.117E-03-0.148E-05
CGA: 152    -0.223341487636E+03   -0.15176E-03   -0.15615E-03  5760   0.503E-03-0.351E-04
 gam= 0.765 trial= 0.350  step= 0.349 mean= 0.350
 gam= 0.924 g(H,U,f)=  0.208E-03 0.253E-03 0.378E-05 ort(H,U,f) =-0.645E-04 0.737E-04-0.195E-07
CGA: 153    -0.223341570759E+03   -0.83123E-04   -0.83115E-04  5760   0.464E-03 0.922E-05
 gam= 0.924 trial= 0.350  step= 0.188 mean= 0.350
 gam= 0.716 g(H,U,f)=  0.163E-03 0.167E-03 0.191E-05 ort(H,U,f) = 0.136E-04 0.331E-04-0.284E-05
CGA: 154    -0.223341621997E+03   -0.51238E-04   -0.44511E-04  5760   0.332E-03 0.439E-04
 gam= 0.716 trial= 0.342  step= 0.420 mean= 0.342
 gam= 0.839 g(H,U,f)=  0.140E-03 0.138E-03 0.678E-06 ort(H,U,f) =-0.622E-04 0.586E-04-0.973E-09
CGA: 155    -0.223341697794E+03   -0.75797E-04   -0.76284E-04  5760   0.279E-03-0.357E-05
 gam= 0.839 trial= 0.346  step= 0.338 mean= 0.346
 gam= 1.007 g(H,U,f)=  0.115E-03 0.163E-03 0.316E-05 ort(H,U,f) =-0.423E-04 0.589E-04-0.161E-05
CGA: 156    -0.223341744524E+03   -0.46730E-04   -0.46627E-04  5760   0.280E-03 0.149E-04
 gam= 1.007 trial= 0.345  step= 0.200 mean= 0.345
 gam= 0.779 g(H,U,f)=  0.104E-03 0.113E-03 0.953E-06 ort(H,U,f) =-0.251E-04 0.421E-04-0.861E-06
CGA: 157    -0.223341776691E+03   -0.32167E-04   -0.29566E-04  5760   0.219E-03 0.162E-04
 gam= 0.779 trial= 0.338  step= 0.458 mean= 0.338
 gam= 0.904 g(H,U,f)=  0.988E-04 0.983E-04 0.596E-06 ort(H,U,f) =-0.763E-04 0.676E-04-0.235E-06
CGA: 158    -0.223341828204E+03   -0.51513E-04   -0.52896E-04  5760   0.198E-03-0.893E-05
 gam= 0.904 trial= 0.344  step= 0.345 mean= 0.344
 gam= 1.216 g(H,U,f)=  0.103E-03 0.134E-03 0.260E-05 ort(H,U,f) =-0.521E-04 0.580E-04-0.777E-06
CGA: 159    -0.223341860854E+03   -0.32651E-04   -0.32653E-04  5760   0.240E-03 0.509E-05
 gam= 1.216 trial= 0.344  step= 0.251 mean= 0.344
 gam= 1.075 g(H,U,f)=  0.110E-03 0.146E-03 0.198E-05 ort(H,U,f) =-0.472E-04 0.604E-04-0.146E-05
CGA: 160    -0.223341894366E+03   -0.33512E-04   -0.30986E-04  5760   0.258E-03 0.118E-04
 gam= 1.075 trial= 0.340  step= 0.369 mean= 0.340
 gam= 0.875 g(H,U,f)=  0.123E-03 0.103E-03 0.722E-06 ort(H,U,f) =-0.781E-04 0.739E-04-0.227E-06
CGA: 161    -0.223341944150E+03   -0.49784E-04   -0.49928E-04  5760   0.226E-03-0.443E-05
 gam= 0.875 trial= 0.341  step= 0.403 mean= 0.341
 gam= 0.000 g(H,U,f)=  0.123E-03 0.165E-03 0.421E-05 ort(H,U,f) =-0.545E-04 0.602E-04-0.131E-05
SDA: 162    -0.223341987859E+03   -0.43709E-04   -0.44742E-04  5760   0.292E-03 0.432E-05
 gam= 0.000 trial= 0.344  step= 0.124 mean= 0.344
 gam= 0.548 g(H,U,f)=  0.779E-04 0.812E-04 0.117E-05 ort(H,U,f) = 0.787E-04-0.268E-04-0.219E-05
CGA: 163    -0.223342010783E+03   -0.22924E-04   -0.18153E-04  5760   0.160E-03 0.498E-04
 gam= 0.548 trial= 0.333  step= 0.392 mean= 0.333
 gam= 0.587 g(H,U,f)=  0.380E-04 0.560E-04 0.224E-06 ort(H,U,f) =-0.474E-05 0.151E-05-0.124E-07
CGA: 164    -0.223342047449E+03   -0.36666E-04   -0.36784E-04  5760   0.942E-04-0.325E-05
 gam= 0.587 trial= 0.336  step= 0.377 mean= 0.336
 gam= 1.675 g(H,U,f)=  0.403E-04 0.115E-03 0.238E-05 ort(H,U,f) =-0.843E-05 0.171E-04-0.703E-06
CGA: 165    -0.223342064721E+03   -0.17272E-04   -0.17407E-04  5760   0.158E-03 0.799E-05
 gam= 1.675 trial= 0.338  step= 0.159 mean= 0.338
 gam= 0.436 g(H,U,f)=  0.337E-04 0.347E-04 0.238E-06 ort(H,U,f) =-0.302E-04 0.378E-04-0.366E-06
CGA: 166    -0.223342079791E+03   -0.15070E-04   -0.13597E-04  5760   0.687E-04 0.727E-05
 gam= 0.436 trial= 0.329  step= 0.677 mean= 0.329
 gam= 1.084 g(H,U,f)=  0.436E-04 0.309E-04 0.110E-07 ort(H,U,f) =-0.294E-04 0.235E-04 0.117E-07
CGA: 167    -0.223342102893E+03   -0.23102E-04   -0.24335E-04  5760   0.745E-04-0.593E-05
 gam= 1.084 trial= 0.347  step= 0.570 mean= 0.347
 gam= 2.045 g(H,U,f)=  0.456E-04 0.104E-03 0.285E-05 ort(H,U,f) =-0.195E-04 0.248E-04-0.423E-06
CGA: 168    -0.223342121843E+03   -0.18950E-04   -0.19404E-04  5760   0.152E-03 0.481E-05
 gam= 2.045 trial= 0.358  step= 0.155 mean= 0.358
 gam= 0.507 g(H,U,f)=  0.395E-04 0.373E-04 0.417E-06 ort(H,U,f) =-0.315E-04 0.448E-04-0.748E-06
CGA: 169    -0.223342136496E+03   -0.14653E-04   -0.12603E-04  5760   0.772E-04 0.126E-04
 gam= 0.507 trial= 0.348  step= 0.620 mean= 0.348
 gam= 1.117 g(H,U,f)=  0.470E-04 0.393E-04 0.330E-07 ort(H,U,f) =-0.270E-04 0.234E-04-0.109E-07
CGA: 170    -0.223342161545E+03   -0.25049E-04   -0.25943E-04  5760   0.863E-04-0.354E-05
 gam= 1.117 trial= 0.361  step= 0.721 mean= 0.361
 gam= 1.458 g(H,U,f)=  0.597E-04 0.650E-04 0.110E-05 ort(H,U,f) =-0.267E-04 0.263E-04-0.121E-06
CGA: 171    -0.223342191331E+03   -0.29786E-04   -0.29671E-04  5760   0.126E-03-0.563E-06
 gam= 1.458 trial= 0.379  step= 0.241 mean= 0.379
 gam= 1.250 g(H,U,f)=  0.561E-04 0.986E-04 0.257E-05 ort(H,U,f) =-0.773E-05 0.301E-04-0.144E-05
CGA: 172    -0.223342208009E+03   -0.16678E-04   -0.15073E-04  5760   0.157E-03 0.210E-04
 gam= 1.250 trial= 0.372  step= 0.310 mean= 0.372
 gam= 0.701 g(H,U,f)=  0.520E-04 0.578E-04 0.279E-06 ort(H,U,f) =-0.283E-04 0.263E-04-0.258E-06
CGA: 173    -0.223342236622E+03   -0.28613E-04   -0.28418E-04  5760   0.110E-03-0.226E-05
 gam= 0.701 trial= 0.369  step= 0.511 mean= 0.369
 gam= 1.278 g(H,U,f)=  0.489E-04 0.892E-04 0.266E-05 ort(H,U,f) =-0.238E-04 0.270E-04-0.317E-06
CGA: 174    -0.223342263499E+03   -0.26877E-04   -0.27755E-04  5760   0.141E-03 0.291E-05
 gam= 1.278 trial= 0.376  step= 0.163 mean= 0.376
 gam= 0.596 g(H,U,f)=  0.432E-04 0.401E-04 0.585E-06 ort(H,U,f) =-0.144E-04 0.276E-04-0.105E-05
CGA: 175    -0.223342277026E+03   -0.13528E-04   -0.11791E-04  5760   0.839E-04 0.121E-04
 gam= 0.596 trial= 0.366  step= 0.546 mean= 0.366
 gam= 1.077 g(H,U,f)=  0.407E-04 0.496E-04 0.981E-07 ort(H,U,f) =-0.185E-04 0.133E-04 0.109E-07
CGA: 176    -0.223342301061E+03   -0.24034E-04   -0.24887E-04  5760   0.904E-04-0.514E-05
 gam= 1.077 trial= 0.375  step= 0.412 mean= 0.375
 gam= 0.962 g(H,U,f)=  0.348E-04 0.509E-04 0.132E-05 ort(H,U,f) =-0.208E-04 0.203E-04-0.437E-06
CGA: 177    -0.223342318501E+03   -0.17441E-04   -0.17482E-04  5760   0.870E-04-0.915E-06
 gam= 0.962 trial= 0.377  step= 0.202 mean= 0.377
 gam= 0.913 g(H,U,f)=  0.326E-04 0.458E-04 0.101E-05 ort(H,U,f) =-0.654E-05 0.182E-04-0.814E-06
CGA: 178    -0.223342328493E+03   -0.99921E-05   -0.86981E-05  5760   0.795E-04 0.108E-04
 gam= 0.913 trial= 0.368  step= 0.400 mean= 0.368
 gam= 0.863 g(H,U,f)=  0.340E-04 0.343E-04 0.273E-06 ort(H,U,f) =-0.170E-04 0.150E-04-0.141E-06
CGA: 179    -0.223342346281E+03   -0.17788E-04   -0.17853E-04  5760   0.686E-04-0.218E-05
 gam= 0.863 trial= 0.369  step= 0.386 mean= 0.369
 gam= 1.181 g(H,U,f)=  0.308E-04 0.486E-04 0.149E-05 ort(H,U,f) =-0.876E-05 0.111E-04-0.360E-06
CGA: 180    -0.223342359108E+03   -0.12827E-04   -0.12871E-04  5760   0.810E-04 0.200E-05
 gam= 1.181 trial= 0.370  step= 0.216 mean= 0.370
 gam= 0.783 g(H,U,f)=  0.264E-04 0.361E-04 0.955E-06 ort(H,U,f) =-0.308E-05 0.880E-05-0.844E-06
CGA: 181    -0.223342368882E+03   -0.97735E-05   -0.90176E-05  5760   0.634E-04 0.487E-05
 gam= 0.783 trial= 0.363  step= 0.327 mean= 0.363
 gam= 0.607 g(H,U,f)=  0.184E-04 0.197E-04 0.277E-06 ort(H,U,f) =-0.101E-04 0.885E-05-0.158E-06
CGA: 182    -0.223342380021E+03   -0.11140E-04   -0.10987E-04  5760   0.385E-04-0.146E-05
 gam= 0.607 trial= 0.361  step= 0.268 mean= 0.361
 gam= 0.932 g(H,U,f)=  0.134E-04 0.217E-04 0.809E-06 ort(H,U,f) =-0.613E-06 0.261E-05-0.312E-06
CGA: 183    -0.223342385146E+03   -0.51243E-05   -0.50375E-05  5760   0.359E-04 0.168E-05
 gam= 0.932 trial= 0.356  step= 0.282 mean= 0.356
 gam= 0.926 g(H,U,f)=  0.122E-04 0.205E-04 0.487E-06 ort(H,U,f) =-0.480E-06 0.283E-05-0.409E-06
CGA: 184    -0.223342390699E+03   -0.55534E-05   -0.52864E-05  5760   0.332E-04 0.194E-05
 gam= 0.926 trial= 0.352  step= 0.275 mean= 0.352
 gam= 0.775 g(H,U,f)=  0.102E-04 0.152E-04 0.340E-06 ort(H,U,f) =-0.342E-05 0.448E-05-0.886E-07
CGA: 185    -0.223342395562E+03   -0.48627E-05   -0.48191E-05  5760   0.258E-04 0.975E-06
 gam= 0.775 trial= 0.349  step= 0.315 mean= 0.349
 gam= 0.832 g(H,U,f)=  0.793E-05 0.131E-04 0.424E-06 ort(H,U,f) =-0.302E-05 0.473E-05-0.300E-06
CGA: 186    -0.223342399783E+03   -0.42212E-05   -0.41716E-05  5760   0.214E-04 0.141E-05
 gam= 0.832 trial= 0.347  step= 0.247 mean= 0.347
 gam= 0.941 g(H,U,f)=  0.743E-05 0.124E-04 0.314E-06 ort(H,U,f) =-0.229E-05 0.333E-05-0.143E-06
CGA: 187    -0.223342402704E+03   -0.29206E-05   -0.27951E-05  5760   0.202E-04 0.905E-06
 gam= 0.941 trial= 0.342  step= 0.353 mean= 0.342
 gam= 0.994 g(H,U,f)=  0.773E-05 0.121E-04 0.270E-06 ort(H,U,f) =-0.444E-05 0.371E-05-0.161E-06
CGA: 188    -0.223342406396E+03   -0.36927E-05   -0.37131E-05  5760   0.201E-04-0.892E-06
 gam= 0.994 trial= 0.342  step= 0.299 mean= 0.342
 gam= 1.034 g(H,U,f)=  0.751E-05 0.128E-04 0.425E-06 ort(H,U,f) =-0.433E-05 0.444E-05-0.134E-06
CGA: 189    -0.223342409308E+03   -0.29120E-05   -0.28641E-05  5760   0.207E-04-0.258E-07
 gam= 1.034 trial= 0.340  step= 0.318 mean= 0.340
 gam= 1.073 g(H,U,f)=  0.781E-05 0.141E-04 0.356E-06 ort(H,U,f) =-0.442E-05 0.453E-05-0.263E-06
CGA: 190    -0.223342412659E+03   -0.33506E-05   -0.32923E-05  5760   0.223E-04-0.150E-06
 gam= 1.073 trial= 0.339  step= 0.250 mean= 0.339
 gam= 0.748 g(H,U,f)=  0.776E-05 0.870E-05 0.183E-06 ort(H,U,f) =-0.473E-05 0.493E-05-0.532E-07
CGA: 191    -0.223342415477E+03   -0.28175E-05   -0.27669E-05  5760   0.166E-04 0.150E-06
 gam= 0.748 trial= 0.335  step= 0.452 mean= 0.335
 gam= 1.356 g(H,U,f)=  0.791E-05 0.142E-04 0.500E-06 ort(H,U,f) =-0.259E-05 0.261E-05-0.239E-06
CGA: 192    -0.223342419067E+03   -0.35909E-05   -0.37863E-05  5760   0.226E-04-0.224E-06
 gam= 1.356 trial= 0.341  step= 0.263 mean= 0.341
 gam= 0.000 g(H,U,f)=  0.888E-05 0.182E-04 0.335E-06 ort(H,U,f) =-0.390E-05 0.417E-05-0.146E-06
SDA: 193    -0.223342422104E+03   -0.30362E-05   -0.29234E-05  5760   0.275E-04 0.120E-06
 gam= 0.000 trial= 0.337  step= 0.136 mean= 0.337
 gam= 0.527 g(H,U,f)=  0.468E-05 0.945E-05 0.357E-06 ort(H,U,f) = 0.493E-05-0.978E-06-0.347E-06
CGA: 194    -0.223342424240E+03   -0.21365E-05   -0.18664E-05  5760   0.145E-04 0.360E-05
 gam= 0.527 trial= 0.327  step= 0.353 mean= 0.327
 gam= 0.677 g(H,U,f)=  0.313E-05 0.658E-05 0.900E-07 ort(H,U,f) =-0.520E-07-0.943E-06-0.868E-07
CGA: 195    -0.223342427091E+03   -0.28510E-05   -0.28919E-05  5760   0.980E-05-0.108E-05
 gam= 0.677 trial= 0.328  step= 0.507 mean= 0.328
 gam= 1.902 g(H,U,f)=  0.463E-05 0.136E-04 0.415E-06 ort(H,U,f) =-0.124E-05 0.159E-05-0.662E-07
CGA: 196    -0.223342429332E+03   -0.22410E-05   -0.22992E-05  5760   0.187E-04 0.279E-06
 gam= 1.902 trial= 0.337  step= 0.202 mean= 0.337
 gam= 0.624 g(H,U,f)=  0.420E-05 0.725E-05 0.197E-06 ort(H,U,f) =-0.291E-05 0.454E-05-0.198E-06
CGA: 197    -0.223342431437E+03   -0.21052E-05   -0.19373E-05  5760   0.116E-04 0.143E-05
 gam= 0.624 trial= 0.330  step= 0.466 mean= 0.330
 gam= 1.083 g(H,U,f)=  0.382E-05 0.843E-05 0.359E-06 ort(H,U,f) =-0.289E-05 0.289E-05-0.993E-07
CGA: 198    -0.223342434236E+03   -0.27988E-05   -0.29196E-05  5760   0.126E-04-0.933E-07
 gam= 1.083 trial= 0.337  step= 0.193 mean= 0.337
 gam= 0.803 g(H,U,f)=  0.400E-05 0.599E-05 0.133E-06 ort(H,U,f) =-0.199E-05 0.307E-05-0.153E-06
CGA: 199    -0.223342435585E+03   -0.13493E-05   -0.12043E-05  5760   0.101E-04 0.927E-06
 gam= 0.803 trial= 0.330  step= 0.489 mean= 0.330
 gam= 0.996 g(H,U,f)=  0.435E-05 0.567E-05 0.628E-07 ort(H,U,f) =-0.277E-05 0.246E-05-0.678E-08
CGA: 200    -0.223342438190E+03   -0.26047E-05   -0.26593E-05  5760   0.101E-04-0.314E-06
 gam= 0.996 trial= 0.338  step= 0.515 mean= 0.338
 gam= 1.913 g(H,U,f)=  0.500E-05 0.136E-04 0.676E-06 ort(H,U,f) =-0.177E-05 0.249E-05-0.184E-06
CGA: 201    -0.223342440604E+03   -0.24141E-05   -0.25131E-05  5760   0.193E-04 0.542E-06
 gam= 1.913 trial= 0.347  step= 0.182 mean= 0.347
 gam= 0.607 g(H,U,f)=  0.550E-05 0.610E-05 0.105E-06 ort(H,U,f) =-0.395E-05 0.509E-05-0.126E-06
CGA: 202    -0.223342442674E+03   -0.20699E-05   -0.18471E-05  5760   0.117E-04 0.101E-05
 gam= 0.607 trial= 0.338  step= 0.520 mean= 0.338
 gam= 1.062 g(H,U,f)=  0.607E-05 0.629E-05 0.766E-07 ort(H,U,f) =-0.311E-05 0.259E-05-0.226E-07
CGA: 203    -0.223342445801E+03   -0.31269E-05   -0.32057E-05  5760   0.124E-04-0.540E-06
 gam= 1.062 trial= 0.347  step= 0.591 mean= 0.347
 gam= 1.913 g(H,U,f)=  0.714E-05 0.158E-04 0.837E-06 ort(H,U,f) =-0.290E-05 0.281E-05-0.178E-06
CGA: 204    -0.223342449082E+03   -0.32808E-05   -0.35050E-05  5760   0.238E-04-0.273E-06
 gam= 1.913 trial= 0.360  step= 0.159 mean= 0.360
 gam= 0.598 g(H,U,f)=  0.712E-05 0.700E-05 0.113E-06 ort(H,U,f) =-0.372E-05 0.546E-05-0.187E-06
CGA: 205    -0.223342451255E+03   -0.21732E-05   -0.18451E-05  5760   0.142E-04 0.156E-05
 gam= 0.598 trial= 0.350  step= 0.542 mean= 0.350
 gam= 0.836 g(H,U,f)=  0.564E-05 0.618E-05 0.654E-07 ort(H,U,f) =-0.308E-05 0.367E-05 0.195E-08
CGA: 206    -0.223342455418E+03   -0.41631E-05   -0.41108E-05  5760   0.119E-04 0.596E-06
 gam= 0.836 trial= 0.359  step= 0.310 mean= 0.359
 gam= 1.566 g(H,U,f)=  0.520E-05 0.129E-04 0.551E-06 ort(H,U,f) =-0.585E-06 0.192E-05-0.194E-06
CGA: 207    -0.223342457345E+03   -0.19271E-05   -0.19172E-05  5760   0.186E-04 0.114E-05
 gam= 1.566 trial= 0.357  step= 0.210 mean= 0.357
 gam= 0.668 g(H,U,f)=  0.521E-05 0.704E-05 0.179E-06 ort(H,U,f) =-0.315E-05 0.405E-05-0.138E-06
CGA: 208    -0.223342459637E+03   -0.22914E-05   -0.21437E-05  5760   0.124E-04 0.765E-06
 gam= 0.668 trial= 0.349  step= 0.650 mean= 0.349
 gam= 0.849 g(H,U,f)=  0.619E-05 0.432E-05 0.411E-07 ort(H,U,f) =-0.471E-05 0.420E-05-0.451E-07
CGA: 209    -0.223342463685E+03   -0.40485E-05   -0.42036E-05  5760   0.106E-04-0.556E-06
 gam= 0.849 trial= 0.364  step= 0.543 mean= 0.364
 gam= 1.675 g(H,U,f)=  0.645E-05 0.109E-04 0.368E-06 ort(H,U,f) =-0.172E-05 0.214E-05-0.177E-07
CGA: 210    -0.223342466420E+03   -0.27350E-05   -0.27386E-05  5760   0.177E-04 0.405E-06
 gam= 1.675 trial= 0.373  step= 0.216 mean= 0.373
 gam= 0.958 g(H,U,f)=  0.599E-05 0.104E-04 0.550E-06 ort(H,U,f) =-0.112E-05 0.332E-05-0.429E-06
CGA: 211    -0.223342468539E+03   -0.21193E-05   -0.19823E-05  5760   0.169E-04 0.177E-05
 gam= 0.958 trial= 0.365  step= 0.328 mean= 0.365
 gam= 0.569 g(H,U,f)=  0.463E-05 0.486E-05 0.145E-06 ort(H,U,f) =-0.390E-05 0.375E-05-0.736E-07
CGA: 212    -0.223342471628E+03   -0.30884E-05   -0.30570E-05  5760   0.963E-05-0.221E-06
 gam= 0.569 trial= 0.364  step= 0.438 mean= 0.364
 gam= 1.863 g(H,U,f)=  0.522E-05 0.120E-04 0.723E-06 ort(H,U,f) =-0.882E-06 0.137E-05-0.234E-06
CGA: 213    -0.223342473665E+03   -0.20376E-05   -0.20812E-05  5760   0.179E-04 0.257E-06
 gam= 1.863 trial= 0.367  step= 0.207 mean= 0.367
 gam= 0.632 g(H,U,f)=  0.471E-05 0.643E-05 0.193E-06 ort(H,U,f) =-0.257E-05 0.339E-05-0.151E-06
CGA: 214    -0.223342475722E+03   -0.20569E-05   -0.19063E-05  5760   0.113E-04 0.664E-06
 gam= 0.632 trial= 0.359  step= 0.437 mean= 0.359
 gam= 0.759 g(H,U,f)=  0.402E-05 0.437E-05 0.210E-06 ort(H,U,f) =-0.250E-05 0.257E-05-0.107E-06
CGA: 215    -0.223342478259E+03   -0.25372E-05   -0.25700E-05  5760   0.860E-05-0.349E-07
 gam= 0.759 trial= 0.363  step= 0.286 mean= 0.363
 gam= 1.391 g(H,U,f)=  0.405E-05 0.744E-05 0.479E-06 ort(H,U,f) =-0.484E-06 0.126E-05-0.196E-06
CGA: 216    -0.223342479517E+03   -0.12572E-05   -0.12268E-05  5760   0.120E-04 0.583E-06
 gam= 1.391 trial= 0.359  step= 0.281 mean= 0.359
 gam= 0.710 g(H,U,f)=  0.347E-05 0.484E-05 0.191E-06 ort(H,U,f) =-0.171E-05 0.181E-05-0.131E-06
CGA: 217    -0.223342481377E+03   -0.18604E-05   -0.17975E-05  5760   0.850E-05-0.310E-07
 gam= 0.710 trial= 0.355  step= 0.364 mean= 0.355
 gam= 1.058 g(H,U,f)=  0.324E-05 0.537E-05 0.374E-06 ort(H,U,f) =-0.125E-05 0.132E-05-0.137E-06
CGA: 218    -0.223342482918E+03   -0.15407E-05   -0.15447E-05  5760   0.899E-05-0.693E-07
 gam= 1.058 trial= 0.356  step= 0.215 mean= 0.356
 gam= 0.803 g(H,U,f)=  0.295E-05 0.402E-05 0.238E-06 ort(H,U,f) =-0.766E-06 0.134E-05-0.185E-06
CGA: 219    -0.223342483981E+03   -0.10628E-05   -0.95806E-06  5760   0.721E-05 0.394E-06
 gam= 0.803 trial= 0.349  step= 0.374 mean= 0.349
 gam= 0.805 g(H,U,f)=  0.224E-05 0.342E-05 0.149E-06 ort(H,U,f) =-0.131E-05 0.108E-05-0.718E-07
CGA: 220    -0.223342485380E+03   -0.13991E-05   -0.14074E-05  5760   0.581E-05-0.299E-06
 gam= 0.805 trial= 0.350  step= 0.303 mean= 0.350
 gam= 1.301 g(H,U,f)=  0.214E-05 0.504E-05 0.372E-06 ort(H,U,f) =-0.674E-06 0.115E-05-0.146E-06
CGA: 221    -0.223342486241E+03   -0.86180E-06   -0.84213E-06  5760   0.756E-05 0.325E-06
 gam= 1.301 trial= 0.348  step= 0.264 mean= 0.348
 gam= 0.745 g(H,U,f)=  0.230E-05 0.318E-05 0.145E-06 ort(H,U,f) =-0.193E-05 0.214E-05-0.113E-06
CGA: 222    -0.223342487320E+03   -0.10783E-05   -0.10548E-05  5760   0.563E-05 0.101E-06
 gam= 0.745 trial= 0.344  step= 0.430 mean= 0.344
 gam= 1.539 g(H,U,f)=  0.275E-05 0.548E-05 0.432E-06 ort(H,U,f) =-0.161E-05 0.176E-05-0.105E-06
CGA: 223    -0.223342488511E+03   -0.11913E-05   -0.12271E-05  5760   0.866E-05 0.428E-07
 gam= 1.539 trial= 0.348  step= 0.272 mean= 0.348
 gam= 0.000 g(H,U,f)=  0.388E-05 0.637E-05 0.388E-06 ort(H,U,f) =-0.231E-05 0.266E-05-0.256E-06
SDA: 224    -0.223342489735E+03   -0.12240E-05   -0.11884E-05  5760   0.106E-04 0.871E-07
 gam= 0.000 trial= 0.344  step= 0.133 mean= 0.344
 gam= 0.545 g(H,U,f)=  0.206E-05 0.348E-05 0.258E-06 ort(H,U,f) = 0.216E-05-0.597E-06-0.316E-06
CGA: 225    -0.223342490560E+03   -0.82548E-06   -0.70645E-06  5760   0.580E-05 0.124E-05
 gam= 0.545 trial= 0.334  step= 0.320 mean= 0.334
 gam= 0.566 g(H,U,f)=  0.121E-05 0.206E-05 0.132E-07 ort(H,U,f) =-0.912E-07-0.220E-06-0.191E-07
CGA: 226    -0.223342491600E+03   -0.10395E-05   -0.10356E-05  5760   0.328E-05-0.330E-06
 gam= 0.566 trial= 0.333  step= 0.681 mean= 0.333
 gam= 0.937 g(H,U,f)=  0.151E-05 0.156E-05 0.895E-08 ort(H,U,f) =-0.951E-06 0.914E-06-0.177E-08
CGA: 227    -0.223342492644E+03   -0.10437E-05   -0.10537E-05  5760   0.307E-05-0.387E-07
 gam= 0.937 trial= 0.350  step= 0.667 mean= 0.350
 gam= 1.300 g(H,U,f)=  0.166E-05 0.219E-05 0.143E-06 ort(H,U,f) =-0.955E-06 0.941E-06-0.281E-07
CGA: 228    -0.223342493637E+03   -0.99282E-06   -0.10132E-05  5760   0.400E-05-0.423E-07
 gam= 1.300 trial= 0.366  step= 0.199 mean= 0.366
 final diagonalization
   1 F= -.23278497E+03 E0= -.23278038E+03  d E =-.917650E-02  mag=     6.0000
