 vasp.5.4.4.18Apr17-6-g9f103f2a35 (build Nov 22 2021 14:44:17) complex          
  
 executed on             LinuxIFC date 2022.08.08  11:32:36
 running on   64 total cores
 distrk:  each k-point on   64 cores,    1 groups
 distr:  one band on NCORES_PER_BAND=   4 cores,   16 groups


--------------------------------------------------------------------------------------------------------


 INCAR:
 POTCAR:    PAW_PBE Li 17Jan2003                  
 POTCAR:    PAW_PBE Co 02Aug2007                  
 POTCAR:    PAW_PBE O 08Apr2002                   
 POTCAR:    PAW_PBE Li 17Jan2003                  
   VRHFIN =Li: s1p0                                                             
   LEXCH  = PE                                                                  
   EATOM  =     5.3001 eV,    0.3895 Ry                                         
                                                                                
   TITEL  = PAW_PBE Li 17Jan2003                                                
   LULTRA =        F    use ultrasoft PP ?                                      
   IUNSCR =        1    unscreen: 0-lin 1-nonlin 2-no                           
   RPACOR =    1.500    partial core radius                                     
   POMASS =    7.010; ZVAL   =    1.000    mass and valenz                      
   RCORE  =    2.050    outmost cutoff radius                                   
   RWIGS  =    2.600; RWIGS  =    1.376    wigner-seitz radius (au A)           
   ENMAX  =  140.000; ENMIN  =  100.000 eV                                      
   ICORE  =        2    local potential                                         
   LCOR   =        T    correct aug charges                                     
   LPAW   =        T    paw PP                                                  
   EAUG   =  331.638                                                            
   DEXC   =    0.000                                                            
   RMAX   =    2.098    core radius for proj-oper                               
   RAUG   =    1.300    factor for augmentation sphere                          
   RDEP   =    2.094    radius for radial grids                                 
   RDEPT  =    1.810    core radius for aug-charge                              
                                                                                
   Atomic configuration                                                         
    4 entries                                                                   
     n  l   j            E        occ.                                          
     1  0  0.50       -51.8549   2.0000                                         
     2  0  0.50        -2.8742   1.0000                                         
     2  1  0.50        -1.3606   0.0000                                         
     3  2  1.50        -1.3606   0.0000                                         
   Description                                                                  
     l       E           TYP  RCUT    TYP  RCUT                                 
     0     -2.8742052     23  2.050                                             
     0     27.2116520     23  2.050                                             
     1     -1.3605826     23  2.050                                             
     2     -1.3605826     23  2.050                                             
  local pseudopotential read in
  partial core-charges read in
  partial kinetic energy density read in
  atomic valenz-charges read in
  non local Contribution for L=           0  read in
    real space projection operators read in
  non local Contribution for L=           0  read in
    real space projection operators read in
  non local Contribution for L=           1  read in
    real space projection operators read in
    PAW grid and wavefunctions read in
 
   number of l-projection  operators is LMAX  =           3
   number of lm-projection operators is LMMAX =           5
 
 POTCAR:    PAW_PBE Co 02Aug2007                  
   VRHFIN =Co: d8 s1                                                            
   LEXCH  = PE                                                                  
   EATOM  =   813.3670 eV,   59.7808 Ry                                         
                                                                                
   TITEL  = PAW_PBE Co 02Aug2007                                                
   LULTRA =        F    use ultrasoft PP ?                                      
   IUNSCR =        1    unscreen: 0-lin 1-nonlin 2-no                           
   RPACOR =    2.000    partial core radius                                     
   POMASS =   58.933; ZVAL   =    9.000    mass and valenz                      
   RCORE  =    2.300    outmost cutoff radius                                   
   RWIGS  =    2.460; RWIGS  =    1.302    wigner-seitz radius (au A)           
   ENMAX  =  267.968; ENMIN  =  200.976 eV                                      
   RCLOC  =    1.203    cutoff for local pot                                    
   LCOR   =        T    correct aug charges                                     
   LPAW   =        T    paw PP                                                  
   EAUG   =  477.818                                                            
   DEXC   =    0.000                                                            
   RMAX   =    2.360    core radius for proj-oper                               
   RAUG   =    1.300    factor for augmentation sphere                          
   RDEP   =    2.393    radius for radial grids                                 
   RDEPT  =    1.864    core radius for aug-charge                              
                                                                                
   Atomic configuration                                                         
    9 entries                                                                   
     n  l   j            E        occ.                                          
     1  0  0.50     -7587.6674   2.0000                                         
     2  0  0.50      -893.6084   2.0000                                         
     2  1  1.50      -764.5805   6.0000                                         
     3  0  0.50       -97.5973   2.0000                                         
     3  1  1.50       -60.9648   6.0000                                         
     3  2  2.50        -4.2382   8.0000                                         
     4  0  0.50        -4.3746   1.0000                                         
     4  1  1.50        -4.0817   0.0000                                         
     4  3  2.50        -1.3606   0.0000                                         
   Description                                                                  
     l       E           TYP  RCUT    TYP  RCUT                                 
     2     -4.2382362     23  2.300                                             
     2     -5.5988188     23  2.300                                             
     0     -4.3745797     23  2.300                                             
     0      5.7660125     23  2.300                                             
     1     -2.7211652     23  2.300                                             
     1     16.9860234     23  2.300                                             
  local pseudopotential read in
  partial core-charges read in
  partial kinetic energy density read in
  atomic valenz-charges read in
  non local Contribution for L=           2  read in
    real space projection operators read in
  non local Contribution for L=           2  read in
    real space projection operators read in
  non local Contribution for L=           0  read in
    real space projection operators read in
  non local Contribution for L=           0  read in
    real space projection operators read in
  non local Contribution for L=           1  read in
    real space projection operators read in
  non local Contribution for L=           1  read in
    real space projection operators read in
    PAW grid and wavefunctions read in
 
   number of l-projection  operators is LMAX  =           6
   number of lm-projection operators is LMMAX =          18
 
 POTCAR:    PAW_PBE O 08Apr2002                   
   VRHFIN =O: s2p4                                                              
   LEXCH  = PE                                                                  
   EATOM  =   432.3788 eV,   31.7789 Ry                                         
                                                                                
   TITEL  = PAW_PBE O 08Apr2002                                                 
   LULTRA =        F    use ultrasoft PP ?                                      
   IUNSCR =        1    unscreen: 0-lin 1-nonlin 2-no                           
   RPACOR =    1.200    partial core radius                                     
   POMASS =   16.000; ZVAL   =    6.000    mass and valenz                      
   RCORE  =    1.520    outmost cutoff radius                                   
   RWIGS  =    1.550; RWIGS  =    0.820    wigner-seitz radius (au A)           
   ENMAX  =  400.000; ENMIN  =  300.000 eV                                      
   ICORE  =        2    local potential                                         
   LCOR   =        T    correct aug charges                                     
   LPAW   =        T    paw PP                                                  
   EAUG   =  605.392                                                            
   DEXC   =    0.000                                                            
   RMAX   =    1.553    core radius for proj-oper                               
   RAUG   =    1.300    factor for augmentation sphere                          
   RDEP   =    1.550    radius for radial grids                                 
   RDEPT  =    1.329    core radius for aug-charge                              
                                                                                
   Atomic configuration                                                         
    4 entries                                                                   
     n  l   j            E        occ.                                          
     1  0  0.50      -514.6923   2.0000                                         
     2  0  0.50       -23.9615   2.0000                                         
     2  1  0.50        -9.0305   4.0000                                         
     3  2  1.50        -9.5241   0.0000                                         
   Description                                                                  
     l       E           TYP  RCUT    TYP  RCUT                                 
     0    -23.9615318     23  1.200                                             
     0     -9.5240782     23  1.200                                             
     1     -9.0304911     23  1.520                                             
     1      8.1634956     23  1.520                                             
     2     -9.5240782      7  1.500                                             
  local pseudopotential read in
  partial core-charges read in
  partial kinetic energy density read in
  kinetic energy density of atom read in
  atomic valenz-charges read in
  non local Contribution for L=           0  read in
    real space projection operators read in
  non local Contribution for L=           0  read in
    real space projection operators read in
  non local Contribution for L=           1  read in
    real space projection operators read in
  non local Contribution for L=           1  read in
    real space projection operators read in
    PAW grid and wavefunctions read in
 
   number of l-projection  operators is LMAX  =           4
   number of lm-projection operators is LMMAX =           8
 
 Optimization of the real space projectors (new method)

 maximal supplied QI-value         = 18.33
 optimisation between [QCUT,QGAM] = [ 12.46, 24.93] = [ 43.51,174.03] Ry 
 Optimized for a Real-space Cutoff    1.13 Angstroem

   l    n(q)    QCUT    max X(q) W(low)/X(q) W(high)/X(q)  e(spline) 
   0      8    12.465    33.825    0.12E-03    0.29E-03    0.99E-07
   0      8    12.465     8.944    0.86E-04    0.22E-03    0.72E-07
   1      8    12.465     4.214    0.27E-03    0.11E-03    0.82E-07
 Optimization of the real space projectors (new method)

 maximal supplied QI-value         = 16.25
 optimisation between [QCUT,QGAM] = [ 12.51, 25.03] = [ 43.85,175.40] Ry 
 Optimized for a Real-space Cutoff    1.31 Angstroem

   l    n(q)    QCUT    max X(q) W(low)/X(q) W(high)/X(q)  e(spline) 
   2      9    12.514    65.824    0.30E-03    0.46E-03    0.43E-06
   2      9    12.514    61.429    0.31E-03    0.46E-03    0.44E-06
   0     10    12.514    56.174    0.90E-04    0.33E-03    0.30E-06
   0     10    12.514    31.263    0.81E-04    0.30E-03    0.28E-06
   1      9    12.514    19.828    0.38E-03    0.65E-04    0.24E-06
   1      9    12.514    15.139    0.32E-03    0.60E-04    0.20E-06
 Optimization of the real space projectors (new method)

 maximal supplied QI-value         = 24.76
 optimisation between [QCUT,QGAM] = [ 12.38, 25.00] = [ 42.90,175.06] Ry 
 Optimized for a Real-space Cutoff    1.13 Angstroem

   l    n(q)    QCUT    max X(q) W(low)/X(q) W(high)/X(q)  e(spline) 
   0      8    12.378    20.381    0.16E-03    0.54E-05    0.27E-06
   0      8    12.378    15.268    0.17E-03    0.61E-05    0.29E-06
   1      8    12.378     5.964    0.38E-03    0.23E-03    0.28E-06
   1      8    12.378     5.382    0.33E-03    0.20E-03    0.25E-06
  PAW_PBE Li 17Jan2003                  :
 energy of atom  1       EATOM=   -5.3001
 kinetic energy error for atom=    0.0000 (will be added to EATOM!!)
  PAW_PBE Co 02Aug2007                  :
 energy of atom  2       EATOM= -813.3670
 kinetic energy error for atom=    0.0018 (will be added to EATOM!!)
  PAW_PBE O 08Apr2002                   :
 energy of atom  3       EATOM= -432.3788
 kinetic energy error for atom=    0.0168 (will be added to EATOM!!)
 
 
 POSCAR: Li6 Co12 O24                            
  positions in cartesian coordinates
  No initial velocities read in
 exchange correlation table for  LEXCH =        8
   RHO(1)=    0.500       N(1)  =     2000
   RHO(2)=  100.500       N(2)  =     4000
 


--------------------------------------------------------------------------------------------------------


 ion  position               nearest neighbor table
   1  0.295  0.822  0.998-  38 1.90  26 2.00  37 2.10  24 2.24  36 2.30  25 2.53  17 2.85  16 2.95
                             9 3.00   8 3.00  15 3.05
   2  0.939  0.275  0.334-  31 1.82  21 1.95  33 2.09  20 2.11  19 2.12  34 2.40  12 2.56   3 2.66
                             9 2.70   7 2.82  10 2.85   3 2.97  11 2.98  13 3.07
   3  0.960  0.812  0.343-  32 1.69  34 1.86  19 1.94  22 2.18  20 2.32  11 2.46  33 2.59   2 2.66
                             8 2.77  10 2.83  12 2.87   2 2.97   9 3.06  14 3.13
   4  0.932  0.251  0.660-  29 1.71  40 1.78  39 2.04  28 2.06   5 2.48  17 2.51  12 2.53  27 2.58
                             6 2.72  11 2.93   6 3.00  16 3.07  14 3.11
   5  0.132  0.760  0.649-  28 1.73  27 1.90  41 2.03  40 2.10   6 2.19  30 2.23  39 2.42  13 2.46
                             4 2.48  11 2.83  16 2.87  12 2.89  15 3.03  18 3.14
   6  0.500  0.733  0.662-  41 1.88  29 1.90  42 1.95  28 1.97   5 2.19  30 2.25  39 2.45  16 2.60
                             4 2.72  13 2.72  11 2.88  14 2.89   4 3.00  17 3.06  18 3.10
   7  0.378  0.499  0.178-  25 1.82  22 1.85  24 1.88  20 1.88  19 1.91  23 1.99   8 2.73  10 2.82
                             9 2.82   2 2.82   9 2.82  10 2.84   8 2.89
   8  0.383  0.015  0.188-  21 1.81  23 1.82  19 1.84  20 1.84  26 1.95  24 1.99   9 2.73   7 2.73
                             3 2.77  10 2.83  10 2.84   7 2.89   9 2.95   1 3.00
   9  0.878  0.494  0.172-  23 1.74  21 1.90  25 1.90  26 1.91  20 1.93  22 2.06   2 2.70   8 2.73
                            10 2.76   7 2.82   7 2.82  10 2.86   8 2.95   1 3.00   3 3.06
  10  0.884  0.006  0.169-  26 1.83  22 1.86  21 1.88  19 1.90  25 1.90  24 1.96   9 2.76   7 2.82
                             8 2.83   3 2.83   8 2.84   7 2.84   2 2.85   9 2.86
  11  0.944  0.945  0.503-  34 1.80  31 1.80  30 1.84  32 1.85  27 1.86  29 2.08   3 2.46  12 2.79
                            14 2.79  13 2.82  13 2.82   5 2.83  12 2.83  14 2.87   6 2.88   4 2.93
  12  0.929  0.441  0.496-  33 1.83  31 1.87  30 1.91  32 1.97  28 2.01  29 2.02   4 2.53   2 2.56
                            13 2.75  11 2.79  14 2.81  11 2.83  14 2.83   3 2.87   5 2.89  13 2.90
  13  0.448  0.949  0.496-  33 1.89  28 1.90  32 1.91  29 1.95  27 1.96  34 2.00   5 2.46   6 2.72
                            12 2.75  14 2.76  11 2.82  11 2.82  14 2.86  12 2.90   2 3.07
  14  0.431  0.450  0.496-  27 1.91  28 1.92  31 1.94  33 1.95  34 1.98  30 2.15  13 2.76  11 2.79
                            12 2.81  12 2.83  13 2.86  11 2.87   6 2.89   4 3.11   3 3.13
  15  0.189  0.058  0.821-  35 1.77  42 1.89  37 1.90  41 1.93  39 1.94  36 2.07  16 2.75  17 2.78
                            18 2.81  18 2.86  17 2.86  16 2.86   5 3.03   1 3.05
  16  0.184  0.545  0.827-  36 1.87  42 1.90  38 1.91  40 1.92  35 1.93  41 1.99   6 2.60  15 2.75
                            17 2.77  18 2.82  18 2.83  15 2.86   5 2.87  17 2.89   1 2.95   4 3.07
  17  0.692  0.056  0.828-  38 1.79  37 1.85  39 1.88  35 1.90  40 1.93  41 2.07   4 2.51  16 2.77
                            15 2.78  18 2.79  18 2.83   1 2.85  15 2.86  16 2.89   6 3.06
  18  0.688  0.557  0.834-  36 1.81  42 1.94  40 1.94  37 1.96  38 2.05  39 2.06  17 2.79  15 2.81
                            16 2.82  16 2.83  17 2.83  15 2.86   6 3.10   5 3.14
  19  0.161  0.134  0.247-   8 1.84  10 1.90   7 1.91   3 1.94   2 2.12
  20  0.182  0.650  0.241-   8 1.84   7 1.88   9 1.93   2 2.11   3 2.32
  21  0.687  0.136  0.243-   8 1.81  10 1.88   9 1.90   2 1.95
  22  0.671  0.663  0.243-   7 1.85  10 1.86   9 2.06   3 2.18
  23  0.596  0.348  0.114-   9 1.74   8 1.82   7 1.99
  24  0.558  0.850  0.106-   7 1.88  10 1.96   8 1.99   1 2.24
  25  0.106  0.376  0.107-   7 1.82   9 1.90  10 1.90   1 2.53
  26  0.089  0.868  0.112-  10 1.83   9 1.91   8 1.95   1 2.00
  27  0.239  0.090  0.569-  11 1.86   5 1.90  14 1.91  13 1.96   4 2.58
  28  0.240  0.596  0.571-   5 1.73  13 1.90  14 1.92   6 1.97  12 2.01   4 2.06
  29  0.713  0.079  0.583-   4 1.71   6 1.90  13 1.95  12 2.02  11 2.08
  30  0.766  0.603  0.575-  11 1.84  12 1.91  14 2.15   5 2.23   6 2.25
  31  0.113  0.281  0.433-  11 1.80   2 1.82  12 1.87  14 1.94
  32  0.143  0.822  0.429-   3 1.69  11 1.85  13 1.91  12 1.97
  33  0.646  0.310  0.428-  12 1.83  13 1.89  14 1.95   2 2.09   3 2.59
  34  0.688  0.825  0.426-  11 1.80   3 1.86  14 1.98  13 2.00   2 2.40
  35  0.997  0.173  0.893-  15 1.77  17 1.90  16 1.93
  36  0.973  0.665  0.898-  18 1.81  16 1.87  15 2.07   1 2.30
  37  0.475  0.172  0.895-  17 1.85  15 1.90  18 1.96   1 2.10
  38  0.473  0.726  0.898-  17 1.79   1 1.90  16 1.91  18 2.05
  39  0.888  0.932  0.749-  17 1.88  15 1.94   4 2.04  18 2.06   5 2.42   6 2.45
  40  0.887  0.420  0.755-   4 1.78  16 1.92  17 1.93  18 1.94   5 2.10
  41  0.382  0.911  0.747-   6 1.88  15 1.93  16 1.99   5 2.03  17 2.07
  42  0.401  0.422  0.756-  15 1.89  16 1.90  18 1.94   6 1.95
 

IMPORTANT INFORMATION: All symmetrisations will be switched off!
NOSYMM: (Re-)initialisation of all symmetry stuff for point group C_1.

 
 

Automatic generation of k-mesh.
 generate k-points for:    6    6    2
Space group operators:
 irot       det(A)        alpha          n_x          n_y          n_z        tau_x        tau_y        tau_z
    1     1.000000     0.000000     1.000000     0.000000     0.000000     0.000000     0.000000     0.000000
 
 Subroutine IBZKPT returns following result:
 ===========================================
 
 Found     36 irreducible k-points:
 
 Following reciprocal coordinates:
            Coordinates               Weight
  0.083333  0.083333  0.250000      2.000000
  0.250000  0.083333  0.250000      2.000000
  0.416667  0.083333  0.250000      2.000000
 -0.416667  0.083333  0.250000      2.000000
 -0.250000  0.083333  0.250000      2.000000
 -0.083333  0.083333  0.250000      2.000000
  0.083333  0.250000  0.250000      2.000000
  0.250000  0.250000  0.250000      2.000000
  0.416667  0.250000  0.250000      2.000000
 -0.416667  0.250000  0.250000      2.000000
 -0.250000  0.250000  0.250000      2.000000
 -0.083333  0.250000  0.250000      2.000000
  0.083333  0.416667  0.250000      2.000000
  0.250000  0.416667  0.250000      2.000000
  0.416667  0.416667  0.250000      2.000000
 -0.416667  0.416667  0.250000      2.000000
 -0.250000  0.416667  0.250000      2.000000
 -0.083333  0.416667  0.250000      2.000000
  0.083333 -0.416667  0.250000      2.000000
  0.250000 -0.416667  0.250000      2.000000
  0.416667 -0.416667  0.250000      2.000000
 -0.416667 -0.416667  0.250000      2.000000
 -0.250000 -0.416667  0.250000      2.000000
 -0.083333 -0.416667  0.250000      2.000000
  0.083333 -0.250000  0.250000      2.000000
  0.250000 -0.250000  0.250000      2.000000
  0.416667 -0.250000  0.250000      2.000000
 -0.416667 -0.250000  0.250000      2.000000
 -0.250000 -0.250000  0.250000      2.000000
 -0.083333 -0.250000  0.250000      2.000000
  0.083333 -0.083333  0.250000      2.000000
  0.250000 -0.083333  0.250000      2.000000
  0.416667 -0.083333  0.250000      2.000000
 -0.416667 -0.083333  0.250000      2.000000
 -0.250000 -0.083333  0.250000      2.000000
 -0.083333 -0.083333  0.250000      2.000000
 
 Following cartesian coordinates:
            Coordinates               Weight
  0.014773  0.025493  0.012396      2.000000
  0.044320  0.042326  0.006495      2.000000
  0.073866  0.059159  0.000595      2.000000
 -0.073866 -0.025007  0.030098      2.000000
 -0.044320 -0.008174  0.024197      2.000000
 -0.014773  0.008659  0.018297      2.000000
  0.014773  0.059644  0.007718      2.000000
  0.044320  0.076478  0.001817      2.000000
  0.073866  0.093311 -0.004084      2.000000
 -0.073866  0.009145  0.025420      2.000000
 -0.044320  0.025978  0.019519      2.000000
 -0.014773  0.042811  0.013618      2.000000
  0.014773  0.093796  0.003039      2.000000
  0.044320  0.110629 -0.002861      2.000000
  0.073866  0.127463 -0.008762      2.000000
 -0.073866  0.043297  0.020741      2.000000
 -0.044320  0.060130  0.014841      2.000000
 -0.014773  0.076963  0.008940      2.000000
  0.014773 -0.076963  0.026431      2.000000
  0.044320 -0.060130  0.020530      2.000000
  0.073866 -0.043297  0.014630      2.000000
 -0.073866 -0.127463  0.044133      2.000000
 -0.044320 -0.110629  0.038232      2.000000
 -0.014773 -0.093796  0.032332      2.000000
  0.014773 -0.042811  0.021753      2.000000
  0.044320 -0.025978  0.015852      2.000000
  0.073866 -0.009145  0.009951      2.000000
 -0.073866 -0.093311  0.039455      2.000000
 -0.044320 -0.076478  0.033554      2.000000
 -0.014773 -0.059644  0.027653      2.000000
  0.014773 -0.008659  0.017074      2.000000
  0.044320  0.008174  0.011174      2.000000
  0.073866  0.025007  0.005273      2.000000
 -0.073866 -0.059159  0.034776      2.000000
 -0.044320 -0.042326  0.028876      2.000000
 -0.014773 -0.025493  0.022975      2.000000
 


--------------------------------------------------------------------------------------------------------




 Dimension of arrays:
   k-points           NKPTS =     36   k-points in BZ     NKDIM =     36   number of bands    NBANDS=    160
   number of dos      NEDOS =    301   number of ions     NIONS =     42
   non local maximal  LDIM  =      6   non local SUM 2l+1 LMDIM =     18
   total plane-waves  NPLWV = 116640
   max r-space proj   IRMAX =   2851   max aug-charges    IRDMAX=  12020
   dimension x,y,z NGX =    36 NGY =   36 NGZ =   90
   dimension x,y,z NGXF=    72 NGYF=   72 NGZF=  180
   support grid    NGXF=    72 NGYF=   72 NGZF=  180
   ions per type =               6  12  24
   NGX,Y,Z   is equivalent  to a cutoff of  10.61, 10.66, 10.41 a.u.
   NGXF,Y,Z  is equivalent  to a cutoff of  21.22, 21.31, 20.82 a.u.

 SYSTEM =  LiCoO2                                  
 POSCAR =  Li6 Co12 O24                            

 Startparameter for this run:
   NWRITE =      2    write-flag & timer
   PREC   = normal    normal or accurate (medium, high low for compatibility)
   ISTART =      0    job   : 0-new  1-cont  2-samecut
   ICHARG =      2    charge: 1-file 2-atom 10-const
   ISPIN  =      2    spin polarized calculation?
   LNONCOLLINEAR =      F non collinear calculations
   LSORBIT =      F    spin-orbit coupling
   INIWAV =      1    electr: 0-lowe 1-rand  2-diag
   LASPH  =      F    aspherical Exc in radial PAW
   METAGGA=      F    non-selfconsistent MetaGGA calc.

 Electronic Relaxation 1
   ENCUT  =  600.0 eV  44.10 Ry    6.64 a.u.  11.27 11.22 28.70*2*pi/ulx,y,z
   ENINI  =  600.0     initial cutoff
   ENAUG  =  605.4 eV  augmentation charge cutoff
   NELM   =    600;   NELMIN=  2; NELMDL= -5     # of ELM steps 
   EDIFF  = 0.1E-05   stopping-criterion for ELM
   LREAL  =      T    real-space projection
   NLSPLINE    = F    spline interpolate recip. space projectors
   LCOMPAT=      F    compatible to vasp.4.4
   GGA_COMPAT  = T    GGA compatible to vasp.4.4-vasp.4.6
   LMAXPAW     = -100 max onsite density
   LMAXMIX     =    2 max onsite mixed and CHGCAR
   VOSKOWN=      0    Vosko Wilk Nusair interpolation
   ROPT   =   -0.00050  -0.00050  -0.00050
 Ionic relaxation
   EDIFFG = 0.1E-04   stopping-criterion for IOM
   NSW    =      0    number of steps for IOM
   NBLOCK =      1;   KBLOCK =      1    inner block; outer block 
   IBRION =     -1    ionic relax: 0-MD 1-quasi-New 2-CG
   NFREE  =      0    steps in history (QN), initial steepest desc. (CG)
   ISIF   =      2    stress and relaxation
   IWAVPR =     10    prediction:  0-non 1-charg 2-wave 3-comb
   ISYM   =      0    0-nonsym 1-usesym 2-fastsym
   LCORR  =      T    Harris-Foulkes like correction to forces

   POTIM  = 0.5000    time-step for ionic-motion
   TEIN   =    0.0    initial temperature
   TEBEG  =    0.0;   TEEND  =   0.0 temperature during run
   SMASS  =  -3.00    Nose mass-parameter (am)
   estimated Nose-frequenzy (Omega)   =  0.10E-29 period in steps =****** mass=  -0.727E-27a.u.
   SCALEE = 1.0000    scale energy and forces
   NPACO  =    256;   APACO  = 16.0  distance and # of slots for P.C.
   PSTRESS=    0.0 pullay stress

  Mass of Ions in am
   POMASS =   7.01 58.93 16.00
  Ionic Valenz
   ZVAL   =   1.00  9.00  6.00
  Atomic Wigner-Seitz radii
   RWIGS  =  -1.00 -1.00 -1.00
  virtual crystal weights 
   VCA    =   1.00  1.00  1.00
   NELECT =     258.0000    total number of electrons
   NUPDOWN=       6.0000    fix difference up-down

 DOS related values:
   EMIN   =  10.00;   EMAX   =-10.00  energy-range for DOS
   EFERMI =   0.00
   ISMEAR =     0;   SIGMA  =   0.05  broadening in eV -4-tet -1-fermi 0-gaus

 Electronic relaxation 2 (details)
   IALGO  =     58    algorithm
   LDIAG  =      T    sub-space diagonalisation (order eigenvalues)
   LSUBROT=      F    optimize rotation matrix (better conditioning)
   TURBO    =      0    0=normal 1=particle mesh
   IRESTART =      0    0=no restart 2=restart with 2 vectors
   NREBOOT  =      0    no. of reboots
   NMIN     =      0    reboot dimension
   EREF     =   0.00    reference energy to select bands
   IMIX   =      4    mixing-type and parameters
     AMIX     =   0.40;   BMIX     =  1.00
     AMIX_MAG =   1.60;   BMIX_MAG =  1.00
     AMIN     =   0.10
     WC   =   100.;   INIMIX=   1;  MIXPRE=   1;  MAXMIX= -45

 Intra band minimization:
   WEIMIN = 0.0000     energy-eigenvalue tresh-hold
   EBREAK =  0.16E-08  absolut break condition
   DEPER  =   0.30     relativ break condition  

   TIME   =   0.40     timestep for ELM

  volume/ion in A,a.u.               =       9.27        62.52
  Fermi-wavevector in a.u.,A,eV,Ry     =   1.427518  2.697619 27.726070  2.037809
  Thomas-Fermi vector in A             =   2.547679
 
 Write flags
   LWAVE        =      F    write WAVECAR
   LDOWNSAMPLE  =      F    k-point downsampling of WAVECAR
   LCHARG       =      F    write CHGCAR
   LVTOT        =      F    write LOCPOT, total local potential
   LVHAR        =      F    write LOCPOT, Hartree potential only
   LELF         =      F    write electronic localiz. function (ELF)
   LORBIT       =     11    0 simple, 1 ext, 2 COOP (PROOUT), +10 PAW based schemes


 Dipole corrections
   LMONO  =      F    monopole corrections only (constant potential shift)
   LDIPOL =      F    correct potential (dipole corrections)
   IDIPOL =      0    1-x, 2-y, 3-z, 4-all directions 
   EPSILON=  1.0000000 bulk dielectric constant

 LDA+U is selected, type is set to LDAUTYPE =  2
   angular momentum for each species LDAUL =    -1    2   -1
   U (eV)           for each species LDAUU =   0.0  5.1  0.0
   J (eV)           for each species LDAUJ =   0.0  0.0  0.0
 Exchange correlation treatment:
   GGA     =    --    GGA type
   LEXCH   =     8    internal setting for exchange type
   VOSKOWN=      0    Vosko Wilk Nusair interpolation
   LHFCALC =     F    Hartree Fock is set to
   LHFONE  =     F    Hartree Fock one center treatment
   AEXX    =    0.0000 exact exchange contribution

 Linear response parameters
   LEPSILON=     F    determine dielectric tensor
   LRPA    =     F    only Hartree local field effects (RPA)
   LNABLA  =     F    use nabla operator in PAW spheres
   LVEL    =     F    velocity operator in full k-point grid
   LINTERFAST=   F  fast interpolation
   KINTER  =     0    interpolate to denser k-point grid
   CSHIFT  =0.1000    complex shift for real part using Kramers Kronig
   OMEGAMAX=  -1.0    maximum frequency
   DEG_THRESHOLD= 0.2000000E-02 threshold for treating states as degnerate
   RTIME   =   -0.100 relaxation time in fs
  (WPLASMAI=    0.000 imaginary part of plasma frequency in eV, 0.658/RTIME)
   DFIELD  = 0.0000000 0.0000000 0.0000000 field for delta impulse in time
 
 Orbital magnetization related:
   ORBITALMAG=     F  switch on orbital magnetization
   LCHIMAG   =     F  perturbation theory with respect to B field
   DQ        =  0.001000  dq finite difference perturbation B field
   LLRAUG    =     F  two centre corrections for induced B field



--------------------------------------------------------------------------------------------------------


 Static calculation
 charge density and potential will be updated during run
 spin polarized calculation
 Conjugate gradient for all bands (Freysoldt, et al. PRB 79, 241103 (2009))
 preconditioned conjugated gradient                                        
 perform sub-space diagonalisation
    before iterative eigenvector-optimisation
 modified Broyden-mixing scheme, WC =      100.0
 initial mixing is a Kerker type mixing with AMIX =  0.4000 and BMIX =      1.0000
 Hartree-type preconditioning will be used
 using additional bands           31
 real space projection scheme for non local part
 use partial core corrections
 no Harris-corrections to forces 
 use gradient corrections 
 use of overlap-Matrix (Vanderbilt PP)
 Gauss-broadening in eV      SIGMA  =   0.05


--------------------------------------------------------------------------------------------------------


  energy-cutoff  :      600.00
  volume of cell :      389.13
      direct lattice vectors                 reciprocal lattice vectors
     5.640840054  0.000000000  0.000000000     0.177278560  0.100999122 -0.035404070
    -2.780324697  4.880160809  0.000000000     0.000000000  0.204911280 -0.028070157
     1.719828725  1.936422586 14.135825157     0.000000000  0.000000000  0.070742245

  length of vectors
     5.640840054  5.616598164 14.371120212     0.207079595  0.206824966  0.070742245


 
 k-points in units of 2pi/SCALE and weight: read from INCAR                         
   0.01477321  0.02549253  0.01239604       0.028
   0.04431964  0.04232572  0.00649536       0.028
   0.07386607  0.05915891  0.00059469       0.028
  -0.07386607 -0.02500703  0.03009808       0.028
  -0.04431964 -0.00817384  0.02419740       0.028
  -0.01477321  0.00865935  0.01829672       0.028
   0.01477321  0.05964441  0.00771768       0.028
   0.04431964  0.07647760  0.00181700       0.028
   0.07386607  0.09331079 -0.00408367       0.028
  -0.07386607  0.00914485  0.02541972       0.028
  -0.04431964  0.02597804  0.01951904       0.028
  -0.01477321  0.04281123  0.01361836       0.028
   0.01477321  0.09379629  0.00303932       0.028
   0.04431964  0.11062948 -0.00286136       0.028
   0.07386607  0.12746267 -0.00876203       0.028
  -0.07386607  0.04329673  0.02074136       0.028
  -0.04431964  0.06012992  0.01484068       0.028
  -0.01477321  0.07696311  0.00894000       0.028
   0.01477321 -0.07696311  0.02643112       0.028
   0.04431964 -0.06012992  0.02053044       0.028
   0.07386607 -0.04329673  0.01462976       0.028
  -0.07386607 -0.12746267  0.04413316       0.028
  -0.04431964 -0.11062948  0.03823248       0.028
  -0.01477321 -0.09379629  0.03233180       0.028
   0.01477321 -0.04281123  0.02175276       0.028
   0.04431964 -0.02597804  0.01585208       0.028
   0.07386607 -0.00914485  0.00995140       0.028
  -0.07386607 -0.09331079  0.03945480       0.028
  -0.04431964 -0.07647760  0.03355412       0.028
  -0.01477321 -0.05964441  0.02765344       0.028
   0.01477321 -0.00865935  0.01707440       0.028
   0.04431964  0.00817384  0.01117372       0.028
   0.07386607  0.02500703  0.00527305       0.028
  -0.07386607 -0.05915891  0.03477644       0.028
  -0.04431964 -0.04232572  0.02887576       0.028
  -0.01477321 -0.02549253  0.02297508       0.028
 
 k-points in reciprocal lattice and weights: read from INCAR                         
   0.08333333  0.08333333  0.25000000       0.028
   0.25000000  0.08333333  0.25000000       0.028
   0.41666667  0.08333333  0.25000000       0.028
  -0.41666667  0.08333333  0.25000000       0.028
  -0.25000000  0.08333333  0.25000000       0.028
  -0.08333333  0.08333333  0.25000000       0.028
   0.08333333  0.25000000  0.25000000       0.028
   0.25000000  0.25000000  0.25000000       0.028
   0.41666667  0.25000000  0.25000000       0.028
  -0.41666667  0.25000000  0.25000000       0.028
  -0.25000000  0.25000000  0.25000000       0.028
  -0.08333333  0.25000000  0.25000000       0.028
   0.08333333  0.41666667  0.25000000       0.028
   0.25000000  0.41666667  0.25000000       0.028
   0.41666667  0.41666667  0.25000000       0.028
  -0.41666667  0.41666667  0.25000000       0.028
  -0.25000000  0.41666667  0.25000000       0.028
  -0.08333333  0.41666667  0.25000000       0.028
   0.08333333 -0.41666667  0.25000000       0.028
   0.25000000 -0.41666667  0.25000000       0.028
   0.41666667 -0.41666667  0.25000000       0.028
  -0.41666667 -0.41666667  0.25000000       0.028
  -0.25000000 -0.41666667  0.25000000       0.028
  -0.08333333 -0.41666667  0.25000000       0.028
   0.08333333 -0.25000000  0.25000000       0.028
   0.25000000 -0.25000000  0.25000000       0.028
   0.41666667 -0.25000000  0.25000000       0.028
  -0.41666667 -0.25000000  0.25000000       0.028
  -0.25000000 -0.25000000  0.25000000       0.028
  -0.08333333 -0.25000000  0.25000000       0.028
   0.08333333 -0.08333333  0.25000000       0.028
   0.25000000 -0.08333333  0.25000000       0.028
   0.41666667 -0.08333333  0.25000000       0.028
  -0.41666667 -0.08333333  0.25000000       0.028
  -0.25000000 -0.08333333  0.25000000       0.028
  -0.08333333 -0.08333333  0.25000000       0.028
 
 position of ions in fractional coordinates (direct lattice) 
   0.29476677  0.82162410  0.99750028
   0.93882931  0.27548704  0.33385740
   0.95981326  0.81204496  0.34278155
   0.93229136  0.25134277  0.65957029
   0.13152075  0.75982329  0.64915065
   0.49994516  0.73252191  0.66168687
   0.37808354  0.49897475  0.17849046
   0.38267839  0.01457525  0.18769686
   0.87777768  0.49381811  0.17205858
   0.88372987  0.00622526  0.16888861
   0.94405690  0.94450180  0.50283940
   0.92930672  0.44149106  0.49601916
   0.44835535  0.94903951  0.49616984
   0.43143526  0.44992408  0.49636792
   0.18856732  0.05804459  0.82125307
   0.18374576  0.54517448  0.82656581
   0.69243993  0.05567698  0.82772601
   0.68822412  0.55664207  0.83378862
   0.16087078  0.13360704  0.24664355
   0.18184318  0.65020424  0.24094879
   0.68670964  0.13624908  0.24324368
   0.67113529  0.66254539  0.24343963
   0.59596596  0.34762685  0.11361417
   0.55841466  0.85027316  0.10638714
   0.10623428  0.37569656  0.10693964
   0.08938344  0.86753004  0.11185269
   0.23904381  0.09049517  0.56876481
   0.24019999  0.59556056  0.57133132
   0.71341720  0.07897998  0.58342895
   0.76642420  0.60339140  0.57529435
   0.11252603  0.28088586  0.43343418
   0.14318119  0.82240143  0.42904322
   0.64648280  0.30968851  0.42758240
   0.68844123  0.82532265  0.42639606
   0.99735699  0.17338129  0.89266740
   0.97295826  0.66538559  0.89815697
   0.47491626  0.17174969  0.89471888
   0.47315604  0.72582339  0.89802966
   0.88842622  0.93207666  0.74896156
   0.88680893  0.42041459  0.75508786
   0.38222513  0.91119035  0.74660588
   0.40110152  0.42197528  0.75631876
 
 position of ions in cartesian coordinates  (Angst):
   1.09388006  5.94123983 14.10048962
   5.10402012  1.99091005  4.71934986
   3.74592996  4.62667990  4.84549999
   5.69443989  2.50379992  9.32357025
  -0.25424001  4.96508980  9.17628002
   1.92145002  4.85613012  9.35348988
   1.05236995  2.78070998  2.52310991
   2.44091010  0.43459001  2.65324998
   3.87434006  2.74308991  2.43218994
   5.25813007  0.35742000  2.38737988
   3.56404996  5.58303022  7.10804987
   4.86765003  3.11505008  7.01164007
   0.74378997  5.59225988  7.01377010
   2.03639007  3.15687990  7.01657009
   2.31470990  1.87355995 11.60908985
   0.94226998  4.26111984 11.68418980
   5.17468977  1.87453997 11.70059013
   3.76849008  4.33106995 11.78629017
   0.96016002  1.12962997  3.48651004
  -0.36763999  3.63967991  3.40600991
   3.91314006  1.13593996  3.43845010
   2.36234999  3.70473003  3.44122005
   2.59063005  1.91647995  1.60602999
   0.96885997  4.35548019  1.50387001
  -0.26139000  2.04053998  1.51168001
  -1.71545005  4.45028019  1.58113003
   2.07498002  1.54299998  8.03995991
   0.68167001  4.01277018  8.07623959
   4.80808020  1.51520002  8.24724960
   3.63506007  4.05866003  8.13226032
   0.59921998  2.21007991  6.12694979
  -0.74100000  4.84426022  6.06487989
   3.52103996  2.33930993  6.04422998
   2.32205009  4.85339022  6.02746010
   6.67911005  2.57470989 12.61859035
   5.18299007  4.98640013 12.69618988
   3.74017000  2.57071996 12.64758968
   2.19543004  5.28109980 12.69439030
   3.70808005  5.99899006 10.58718967
   5.13208008  3.51385999 10.67378998
   0.90670002  5.89249992 10.55389023
   2.39005995  3.52385998 10.69118977
 


--------------------------------------------------------------------------------------------------------


 k-point  1 :   0.0833 0.0833 0.2500  plane waves:   12991
 k-point  2 :   0.2500 0.0833 0.2500  plane waves:   12961
 k-point  3 :   0.4167 0.0833 0.2500  plane waves:   12981
 k-point  4 :  -0.4167 0.0833 0.2500  plane waves:   12972
 k-point  5 :  -0.2500 0.0833 0.2500  plane waves:   12988
 k-point  6 :  -0.0833 0.0833 0.2500  plane waves:   12987
 k-point  7 :   0.0833 0.2500 0.2500  plane waves:   12970
 k-point  8 :   0.2500 0.2500 0.2500  plane waves:   12979
 k-point  9 :   0.4167 0.2500 0.2500  plane waves:   12997
 k-point 10 :  -0.4167 0.2500 0.2500  plane waves:   12985
 k-point 11 :  -0.2500 0.2500 0.2500  plane waves:   12971
 k-point 12 :  -0.0833 0.2500 0.2500  plane waves:   12990
 k-point 13 :   0.0833 0.4167 0.2500  plane waves:   13002
 k-point 14 :   0.2500 0.4167 0.2500  plane waves:   12996
 k-point 15 :   0.4167 0.4167 0.2500  plane waves:   13000
 k-point 16 :  -0.4167 0.4167 0.2500  plane waves:   12987
 k-point 17 :  -0.2500 0.4167 0.2500  plane waves:   12981
 k-point 18 :  -0.0833 0.4167 0.2500  plane waves:   12965
 k-point 19 :   0.0833-0.4167 0.2500  plane waves:   12997
 k-point 20 :   0.2500-0.4167 0.2500  plane waves:   12982
 k-point 21 :   0.4167-0.4167 0.2500  plane waves:   12988
 k-point 22 :  -0.4167-0.4167 0.2500  plane waves:   12997
 k-point 23 :  -0.2500-0.4167 0.2500  plane waves:   12982
 k-point 24 :  -0.0833-0.4167 0.2500  plane waves:   12985
 k-point 25 :   0.0833-0.2500 0.2500  plane waves:   12978
 k-point 26 :   0.2500-0.2500 0.2500  plane waves:   12992
 k-point 27 :   0.4167-0.2500 0.2500  plane waves:   12975
 k-point 28 :  -0.4167-0.2500 0.2500  plane waves:   12980
 k-point 29 :  -0.2500-0.2500 0.2500  plane waves:   12974
 k-point 30 :  -0.0833-0.2500 0.2500  plane waves:   12979
 k-point 31 :   0.0833-0.0833 0.2500  plane waves:   13007
 k-point 32 :   0.2500-0.0833 0.2500  plane waves:   12968
 k-point 33 :   0.4167-0.0833 0.2500  plane waves:   12984
 k-point 34 :  -0.4167-0.0833 0.2500  plane waves:   12986
 k-point 35 :  -0.2500-0.0833 0.2500  plane waves:   12971
 k-point 36 :  -0.0833-0.0833 0.2500  plane waves:   13011

 maximum and minimum number of plane-waves per node :      3269     3226

 maximum number of plane-waves:     13011
 maximum index in each direction: 
   IXMAX=   11   IYMAX=   11   IZMAX=   28
   IXMIN=  -11   IYMIN=  -11   IZMIN=  -28


 real space projection operators:
  total allocation   :       7619.83 KBytes
  max/ min on nodes  :       1910.21       1902.38


 parallel 3D FFT for wavefunctions:
    minimum data exchange during FFTs selected (reduces bandwidth)
 parallel 3D FFT for charge:
    minimum data exchange during FFTs selected (reduces bandwidth)


 total amount of memory used by VASP MPI-rank0   157700. kBytes
=======================================================================

   base      :      30000. kBytes
   nonlr-proj:       4354. kBytes
   fftplans  :       1687. kBytes
   grid      :       4644. kBytes
   one-center:        342. kBytes
   wavefun   :     116673. kBytes
 
     INWAV:  cpu time    0.0000: real time    0.0003
 Broyden mixing: mesh for mixing (old mesh)
   NGX = 23   NGY = 23   NGZ = 57
  (NGX  = 72   NGY  = 72   NGZ  =180)
  gives a total of  30153 points

 initial charge density was supplied:
 charge density of overlapping atoms calculated
 number of electron     258.0000000 magnetization       6.0000000
 keeping initial charge density in first step


--------------------------------------------------------------------------------------------------------


 Maximum index for non-local projection operator          699
 Maximum index for augmentation-charges         1027 (set IRDMAX)


--------------------------------------------------------------------------------------------------------


 First call to EWALD:  gamma=   0.243
 Maximum number of real-space cells 4x 4x 2
 Maximum number of reciprocal cells 2x 2x 5

    FEWALD:  cpu time    0.0039: real time    0.0039


--------------------------------------- Iteration      1(   1)  ---------------------------------------


    POTLOK:  cpu time    0.0544: real time    0.0665
    SETDIJ:  cpu time    0.0159: real time    0.0179
    TRIAL :  cpu time   21.9262: real time   22.1079
    CORREC:  cpu time    0.0041: real time    0.0041
    --------------------------------------------
      LOOP:  cpu time   22.1610: real time   22.3593

 eigenvalue-minimisations  : 23040
 total energy-change (2. order) : 0.3498401E+04  (-0.1398634E+05)
 number of electron     258.0000000 magnetization       6.0000000
 augmentation part      258.0000000 magnetization       6.0000000

 Free energy of the ion-electron system (eV)
  ---------------------------------------------------
  alpha Z        PSCENC =       753.38266784
  Ewald energy   TEWEN  =    -13967.09299745
  -Hartree energ DENC   =     -7063.51436006
  -exchange      EXHF   =         0.00000000
  -V(xc)+E(xc)   XCENC  =       843.04083692
  PAW double counting   =     17015.18481625   -17491.61297812
  entropy T*S    EENTRO =        -0.00788229
  eigenvalues    EBANDS =      3240.15005789
  atomic energy  EATOM  =     20168.87094289
  ---------------------------------------------------
  free energy    TOTEN  =      3498.40110387 eV

  energy without entropy =     3498.40898616  energy(sigma->0) =     3498.40504501


--------------------------------------------------------------------------------------------------------




--------------------------------------- Iteration      1(   2)  ---------------------------------------


    TRIAL :  cpu time   22.9864: real time   23.0996
    CORREC:  cpu time    0.0044: real time    0.0044
    --------------------------------------------
      LOOP:  cpu time   22.9947: real time   23.1079

 eigenvalue-minimisations  : 25008
 total energy-change (2. order) :-0.3096018E+04  (-0.2849893E+04)
 number of electron     258.0000000 magnetization       6.0000000
 augmentation part      258.0000000 magnetization       6.0000000

 Free energy of the ion-electron system (eV)
  ---------------------------------------------------
  alpha Z        PSCENC =       753.38266784
  Ewald energy   TEWEN  =    -13967.09299745
  -Hartree energ DENC   =     -7063.51436006
  -exchange      EXHF   =         0.00000000
  -V(xc)+E(xc)   XCENC  =       843.04083692
  PAW double counting   =     17015.18481625   -17491.61297812
  entropy T*S    EENTRO =        -0.02432130
  eigenvalues    EBANDS =       144.14819920
  atomic energy  EATOM  =     20168.87094289
  ---------------------------------------------------
  free energy    TOTEN  =       402.38280617 eV

  energy without entropy =      402.40712747  energy(sigma->0) =      402.39496682


--------------------------------------------------------------------------------------------------------




--------------------------------------- Iteration      1(   3)  ---------------------------------------


    TRIAL :  cpu time   23.5553: real time   23.7995
    CORREC:  cpu time    0.0043: real time    0.0043
    --------------------------------------------
      LOOP:  cpu time   23.5633: real time   23.8075

 eigenvalue-minimisations  : 25648
 total energy-change (2. order) :-0.6250328E+03  (-0.5709244E+03)
 number of electron     258.0000000 magnetization       6.0000000
 augmentation part      258.0000000 magnetization       6.0000000

 Free energy of the ion-electron system (eV)
  ---------------------------------------------------
  alpha Z        PSCENC =       753.38266784
  Ewald energy   TEWEN  =    -13967.09299745
  -Hartree energ DENC   =     -7063.51436006
  -exchange      EXHF   =         0.00000000
  -V(xc)+E(xc)   XCENC  =       843.04083692
  PAW double counting   =     17015.18481625   -17491.61297812
  entropy T*S    EENTRO =        -0.03960892
  eigenvalues    EBANDS =      -480.86927940
  atomic energy  EATOM  =     20168.87094289
  ---------------------------------------------------
  free energy    TOTEN  =      -222.64996004 eV

  energy without entropy =     -222.61035113  energy(sigma->0) =     -222.63015559


--------------------------------------------------------------------------------------------------------




--------------------------------------- Iteration      1(   4)  ---------------------------------------


    TRIAL :  cpu time   23.3708: real time   23.4388
    CORREC:  cpu time    0.0040: real time    0.0041
    --------------------------------------------
      LOOP:  cpu time   23.3787: real time   23.4468

 eigenvalue-minimisations  : 25344
 total energy-change (2. order) :-0.4953534E+02  (-0.4843675E+02)
 number of electron     258.0000000 magnetization       6.0000000
 augmentation part      258.0000000 magnetization       6.0000000

 Free energy of the ion-electron system (eV)
  ---------------------------------------------------
  alpha Z        PSCENC =       753.38266784
  Ewald energy   TEWEN  =    -13967.09299745
  -Hartree energ DENC   =     -7063.51436006
  -exchange      EXHF   =         0.00000000
  -V(xc)+E(xc)   XCENC  =       843.04083692
  PAW double counting   =     17015.18481625   -17491.61297812
  entropy T*S    EENTRO =        -0.04083278
  eigenvalues    EBANDS =      -530.40339168
  atomic energy  EATOM  =     20168.87094289
  ---------------------------------------------------
  free energy    TOTEN  =      -272.18529620 eV

  energy without entropy =     -272.14446341  energy(sigma->0) =     -272.16487980


--------------------------------------------------------------------------------------------------------




--------------------------------------- Iteration      1(   5)  ---------------------------------------


    TRIAL :  cpu time   25.5948: real time   25.6745
    CORREC:  cpu time    0.0047: real time    0.0048
    CHARGE:  cpu time    0.4999: real time    0.5034
    --------------------------------------------
      LOOP:  cpu time   26.1035: real time   26.1866

 eigenvalue-minimisations  : 28192
 total energy-change (2. order) :-0.1697338E+01  (-0.1694240E+01)
 number of electron     258.0000029 magnetization       6.0000009
 augmentation part       67.9876007 magnetization       4.2972213

 Free energy of the ion-electron system (eV)
  ---------------------------------------------------
  alpha Z        PSCENC =       753.38266784
  Ewald energy   TEWEN  =    -13967.09299745
  -Hartree energ DENC   =     -7063.51436006
  -exchange      EXHF   =         0.00000000
  -V(xc)+E(xc)   XCENC  =       843.04083692
  PAW double counting   =     17015.18481625   -17491.61297812
  entropy T*S    EENTRO =        -0.04123195
  eigenvalues    EBANDS =      -532.10033091
  atomic energy  EATOM  =     20168.87094289
  ---------------------------------------------------
  free energy    TOTEN  =      -273.88263459 eV

  energy without entropy =     -273.84140264  energy(sigma->0) =     -273.86201862


--------------------------------------------------------------------------------------------------------




--------------------------------------- Iteration      1(   6)  ---------------------------------------


    POTLOK:  cpu time    0.0459: real time    0.0460
    SETDIJ:  cpu time    0.0126: real time    0.0126
    TRIAL :  cpu time   12.8086: real time   12.8488
    CORREC:  cpu time    4.2999: real time    4.3130
    CHARGE:  cpu time    0.4824: real time    0.4863
    --------------------------------------------
      LOOP:  cpu time   17.6535: real time   17.7108

 eigenvalue-minimisations  :     0
 total energy-change (2. order) : 0.3786190E+03  (-0.1207417E+03)
 number of electron     258.0000044 magnetization       5.9999995
 augmentation part       70.2506786 magnetization       4.4070911

 Free energy of the ion-electron system (eV)
  ---------------------------------------------------
  alpha Z        PSCENC =       753.38266784
  Ewald energy   TEWEN  =    -13967.09299745
  -Hartree energ DENC   =     -6818.38380923
  -exchange      EXHF   =         0.00000000
  -V(xc)+E(xc)   XCENC  =       877.42602110
  PAW double counting   =     23640.88492477   -23847.03776197
  entropy T*S    EENTRO =        -0.04126189
  eigenvalues    EBANDS =      -703.27242056
  atomic energy  EATOM  =     20168.87094289
  ---------------------------------------------------
  free energy    TOTEN  =       104.73633543 eV

  energy without entropy =      104.77759733  energy(sigma->0) =      104.75696638


--------------------------------------------------------------------------------------------------------




--------------------------------------- Iteration      1(   7)  ---------------------------------------


    POTLOK:  cpu time    0.0447: real time    0.0447
    SETDIJ:  cpu time    0.0125: real time    0.0125
    TRIAL :  cpu time   12.7059: real time   12.7622
    CORREC:  cpu time    4.4767: real time    4.4882
    CHARGE:  cpu time    0.4965: real time    0.4974
    --------------------------------------------
      LOOP:  cpu time   17.7404: real time   17.8090

 eigenvalue-minimisations  :     0
 total energy-change (2. order) :-0.8587204E+02  (-0.7754239E+03)
 number of electron     258.0000024 magnetization       6.0000007
 augmentation part       72.8170185 magnetization       4.4649137

 Free energy of the ion-electron system (eV)
  ---------------------------------------------------
  alpha Z        PSCENC =       753.38266784
  Ewald energy   TEWEN  =    -13967.09299745
  -Hartree energ DENC   =     -6689.84358125
  -exchange      EXHF   =         0.00000000
  -V(xc)+E(xc)   XCENC  =       869.13249801
  PAW double counting   =     23621.28422963   -23916.58791663
  entropy T*S    EENTRO =        -0.08170577
  eigenvalues    EBANDS =      -820.24028984
  atomic energy  EATOM  =     20168.87094289
  ---------------------------------------------------
  free energy    TOTEN  =        18.86429131 eV

  energy without entropy =       18.94599709  energy(sigma->0) =       18.90514420


--------------------------------------------------------------------------------------------------------




--------------------------------------- Iteration      1(   8)  ---------------------------------------


    POTLOK:  cpu time    0.0447: real time    0.0447
    SETDIJ:  cpu time    0.0125: real time    0.0125
    TRIAL :  cpu time   12.4682: real time   12.5051
    CORREC:  cpu time    4.2763: real time    4.4244
    CHARGE:  cpu time    0.4706: real time    0.4709
    --------------------------------------------
      LOOP:  cpu time   17.2764: real time   17.4618

 eigenvalue-minimisations  :     0
 total energy-change (2. order) : 0.8135531E+03  (-0.7919281E+04)
 number of electron     258.0000068 magnetization       6.0000001
 augmentation part       75.6165171 magnetization       3.2451268

 Free energy of the ion-electron system (eV)
  ---------------------------------------------------
  alpha Z        PSCENC =       753.38266784
  Ewald energy   TEWEN  =    -13967.09299745
  -Hartree energ DENC   =     -8089.34867238
  -exchange      EXHF   =         0.00000000
  -V(xc)+E(xc)   XCENC  =       868.67646750
  PAW double counting   =     24927.10433318   -25401.52621136
  entropy T*S    EENTRO =        -0.01909864
  eigenvalues    EBANDS =      1572.43261020
  atomic energy  EATOM  =     20168.87094289
  ---------------------------------------------------
  free energy    TOTEN  =       832.41743464 eV

  energy without entropy =      832.43653328  energy(sigma->0) =      832.42698396


--------------------------------------------------------------------------------------------------------




--------------------------------------- Iteration      1(   9)  ---------------------------------------


    POTLOK:  cpu time    0.0469: real time    0.0470
    SETDIJ:  cpu time    0.0126: real time    0.0126
    TRIAL :  cpu time   12.5657: real time   12.5997
    CORREC:  cpu time    4.7827: real time    4.7975
    CHARGE:  cpu time    0.5776: real time    0.5817
    --------------------------------------------
      LOOP:  cpu time   17.9895: real time   18.0425

 eigenvalue-minimisations  :     0
 total energy-change (2. order) : 0.4494136E+04  (-0.1267602E+04)
 number of electron     258.0000026 magnetization       6.0000009
 augmentation part       73.7682554 magnetization       4.4637203

 Free energy of the ion-electron system (eV)
  ---------------------------------------------------
  alpha Z        PSCENC =       753.38266784
  Ewald energy   TEWEN  =    -13967.09299745
  -Hartree energ DENC   =    -11056.28688653
  -exchange      EXHF   =         0.00000000
  -V(xc)+E(xc)   XCENC  =       911.68222052
  PAW double counting   =     30220.72332475   -31038.04299554
  entropy T*S    EENTRO =        -0.02032454
  eigenvalues    EBANDS =      9333.33661488
  atomic energy  EATOM  =     20168.87094289
  ---------------------------------------------------
  free energy    TOTEN  =      5326.55379274 eV

  energy without entropy =     5326.57411728  energy(sigma->0) =     5326.56395501


--------------------------------------------------------------------------------------------------------




--------------------------------------- Iteration      1(  10)  ---------------------------------------


    POTLOK:  cpu time    0.0615: real time    0.0615
    SETDIJ:  cpu time    0.0138: real time    0.0138
    TRIAL :  cpu time   13.7284: real time   13.7897
    CORREC:  cpu time    4.3247: real time    4.3422
    CHARGE:  cpu time    0.4749: real time    0.4761
    --------------------------------------------
      LOOP:  cpu time   18.6074: real time   18.6874

 eigenvalue-minimisations  :     0
 total energy-change (2. order) :-0.2268156E+04  (-0.4434914E+03)
 number of electron     258.0000037 magnetization       6.0000003
 augmentation part       75.3590757 magnetization       3.8339864

 Free energy of the ion-electron system (eV)
  ---------------------------------------------------
  alpha Z        PSCENC =       753.38266784
  Ewald energy   TEWEN  =    -13967.09299745
  -Hartree energ DENC   =    -10623.78351852
  -exchange      EXHF   =         0.00000000
  -V(xc)+E(xc)   XCENC  =       881.96515895
  PAW double counting   =     27334.33288647   -27939.43853134
  entropy T*S    EENTRO =        -0.02100738
  eigenvalues    EBANDS =      6450.18136334
  atomic energy  EATOM  =     20168.87094289
  ---------------------------------------------------
  free energy    TOTEN  =      3058.39764764 eV

  energy without entropy =     3058.41865503  energy(sigma->0) =     3058.40815133


--------------------------------------------------------------------------------------------------------




--------------------------------------- Iteration      1(  11)  ---------------------------------------


    POTLOK:  cpu time    0.0447: real time    0.0447
    SETDIJ:  cpu time    0.0127: real time    0.0127
    TRIAL :  cpu time   12.6533: real time   12.6999
    CORREC:  cpu time    4.2666: real time    4.2898
    CHARGE:  cpu time    0.4780: real time    0.4785
    --------------------------------------------
      LOOP:  cpu time   17.4593: real time   17.5296

 eigenvalue-minimisations  :     0
 total energy-change (2. order) : 0.7805334E+03  (-0.2829374E+04)
 number of electron     258.0000045 magnetization       6.0000004
 augmentation part       78.5550940 magnetization       1.6642079

 Free energy of the ion-electron system (eV)
  ---------------------------------------------------
  alpha Z        PSCENC =       753.38266784
  Ewald energy   TEWEN  =    -13967.09299745
  -Hartree energ DENC   =    -11158.12276481
  -exchange      EXHF   =         0.00000000
  -V(xc)+E(xc)   XCENC  =       884.98540681
  PAW double counting   =     28370.23187864   -29096.97138015
  entropy T*S    EENTRO =        -0.01178212
  eigenvalues    EBANDS =      7883.66833020
  atomic energy  EATOM  =     20168.87094289
  ---------------------------------------------------
  free energy    TOTEN  =      3838.93107660 eV

  energy without entropy =     3838.94285872  energy(sigma->0) =     3838.93696766


--------------------------------------------------------------------------------------------------------




--------------------------------------- Iteration      1(  12)  ---------------------------------------


    POTLOK:  cpu time    0.0447: real time    0.0447
    SETDIJ:  cpu time    0.0128: real time    0.0128
    TRIAL :  cpu time   12.4554: real time   12.6877
    CORREC:  cpu time    4.2764: real time    4.2916
    CHARGE:  cpu time    0.5790: real time    0.5848
    --------------------------------------------
      LOOP:  cpu time   17.3725: real time   17.6257

 eigenvalue-minimisations  :     0
 total energy-change (2. order) : 0.4163063E+04  (-0.7157748E+04)
 number of electron     258.0000040 magnetization       6.0000003
 augmentation part       77.0763881 magnetization       2.1258411

 Free energy of the ion-electron system (eV)
  ---------------------------------------------------
  alpha Z        PSCENC =       753.38266784
  Ewald energy   TEWEN  =    -13967.09299745
  -Hartree energ DENC   =    -12333.64095835
  -exchange      EXHF   =         0.00000000
  -V(xc)+E(xc)   XCENC  =       866.27028430
  PAW double counting   =     45138.17358753   -46163.10051775
  entropy T*S    EENTRO =        -0.00864611
  eigenvalues    EBANDS =     13539.14293838
  atomic energy  EATOM  =     20168.87094289
  ---------------------------------------------------
  free energy    TOTEN  =      8001.99416527 eV

  energy without entropy =     8002.00281138  energy(sigma->0) =     8001.99848832


--------------------------------------------------------------------------------------------------------




--------------------------------------- Iteration      1(  13)  ---------------------------------------


    POTLOK:  cpu time    0.0446: real time    0.0447
    SETDIJ:  cpu time    0.0126: real time    0.0126
    TRIAL :  cpu time   12.5352: real time   12.5771
    CORREC:  cpu time    4.4878: real time    4.5023
    CHARGE:  cpu time    0.4645: real time    0.4650
    --------------------------------------------
      LOOP:  cpu time   17.5488: real time   17.6057

 eigenvalue-minimisations  :     0
 total energy-change (2. order) :-0.1689134E+04  (-0.1034013E+05)
 number of electron     258.0000036 magnetization       6.0000002
 augmentation part       73.9439489 magnetization       1.7341020

 Free energy of the ion-electron system (eV)
  ---------------------------------------------------
  alpha Z        PSCENC =       753.38266784
  Ewald energy   TEWEN  =    -13967.09299745
  -Hartree energ DENC   =     -9400.24869429
  -exchange      EXHF   =         0.00000000
  -V(xc)+E(xc)   XCENC  =       800.23899723
  PAW double counting   =     79261.72226203   -80311.05843712
  entropy T*S    EENTRO =        -0.00462751
  eigenvalues    EBANDS =      9007.05372608
  atomic energy  EATOM  =     20168.87094289
  ---------------------------------------------------
  free energy    TOTEN  =      6312.85982110 eV

  energy without entropy =     6312.86444861  energy(sigma->0) =     6312.86213486


--------------------------------------------------------------------------------------------------------




--------------------------------------- Iteration      1(  14)  ---------------------------------------


    POTLOK:  cpu time    0.0444: real time    0.0445
    SETDIJ:  cpu time    0.0125: real time    0.0125
    TRIAL :  cpu time   12.6266: real time   12.6725
    CORREC:  cpu time    4.2613: real time    4.2720
    CHARGE:  cpu time    0.4595: real time    0.4652
    --------------------------------------------
      LOOP:  cpu time   17.4085: real time   17.4709

 eigenvalue-minimisations  :     0
 total energy-change (2. order) :-0.2451532E+04  (-0.3135107E+04)
 number of electron     258.0000034 magnetization       6.0000002
 augmentation part       73.4143674 magnetization       1.7066060

 Free energy of the ion-electron system (eV)
  ---------------------------------------------------
  alpha Z        PSCENC =       753.38266784
  Ewald energy   TEWEN  =    -13967.09299745
  -Hartree energ DENC   =     -6179.60821061
  -exchange      EXHF   =         0.00000000
  -V(xc)+E(xc)   XCENC  =       747.93518211
  PAW double counting   =     96828.89996695   -97767.53877884
  entropy T*S    EENTRO =        -0.00450555
  eigenvalues    EBANDS =      3276.48406175
  atomic energy  EATOM  =     20168.87094289
  ---------------------------------------------------
  free energy    TOTEN  =      3861.32820713 eV

  energy without entropy =     3861.33271268  energy(sigma->0) =     3861.33045991


--------------------------------------------------------------------------------------------------------




--------------------------------------- Iteration      1(  15)  ---------------------------------------


    POTLOK:  cpu time    0.0446: real time    0.0446
    SETDIJ:  cpu time    0.0126: real time    0.0126
    TRIAL :  cpu time   12.7074: real time   12.7538
    CORREC:  cpu time    4.2610: real time    4.2784
    CHARGE:  cpu time    0.4624: real time    0.4629
    --------------------------------------------
      LOOP:  cpu time   17.4922: real time   17.5563

 eigenvalue-minimisations  :     0
 total energy-change (2. order) :-0.1258100E+04  (-0.3746456E+03)
 number of electron     258.0000030 magnetization       6.0000003
 augmentation part       73.2290945 magnetization       1.8037432

 Free energy of the ion-electron system (eV)
  ---------------------------------------------------
  alpha Z        PSCENC =       753.38266784
  Ewald energy   TEWEN  =    -13967.09299745
  -Hartree energ DENC   =     -5328.35916380
  -exchange      EXHF   =         0.00000000
  -V(xc)+E(xc)   XCENC  =       738.41582172
  PAW double counting   =     98640.39512689   -99542.84406428
  entropy T*S    EENTRO =        -0.00510024
  eigenvalues    EBANDS =      1140.46408744
  atomic energy  EATOM  =     20168.87094289
  ---------------------------------------------------
  free energy    TOTEN  =      2603.22791571 eV

  energy without entropy =     2603.23301595  energy(sigma->0) =     2603.23046583


--------------------------------------------------------------------------------------------------------




--------------------------------------- Iteration      1(  16)  ---------------------------------------


    POTLOK:  cpu time    0.0447: real time    0.0447
    SETDIJ:  cpu time    0.0126: real time    0.0126
    TRIAL :  cpu time   12.6694: real time   12.7198
    CORREC:  cpu time    4.2712: real time    4.2930
    CHARGE:  cpu time    0.4626: real time    0.4633
    --------------------------------------------
      LOOP:  cpu time   17.4644: real time   17.5375

 eigenvalue-minimisations  :     0
 total energy-change (2. order) :-0.3534034E+03  (-0.7315404E+03)
 number of electron     258.0000024 magnetization       6.0000003
 augmentation part       71.6467768 magnetization       2.1100449

 Free energy of the ion-electron system (eV)
  ---------------------------------------------------
  alpha Z        PSCENC =       753.38266784
  Ewald energy   TEWEN  =    -13967.09299745
  -Hartree energ DENC   =     -5596.49706341
  -exchange      EXHF   =         0.00000000
  -V(xc)+E(xc)   XCENC  =       744.67403615
  PAW double counting   =     88365.42452005   -89204.40175279
  entropy T*S    EENTRO =        -0.00463938
  eigenvalues    EBANDS =       985.46929758
  atomic energy  EATOM  =     20168.87094289
  ---------------------------------------------------
  free energy    TOTEN  =      2249.82455062 eV

  energy without entropy =     2249.82919000  energy(sigma->0) =     2249.82687031


--------------------------------------------------------------------------------------------------------




--------------------------------------- Iteration      1(  17)  ---------------------------------------


    POTLOK:  cpu time    0.0445: real time    0.0445
    SETDIJ:  cpu time    0.0126: real time    0.0126
    TRIAL :  cpu time   12.6277: real time   12.6669
    CORREC:  cpu time    4.2551: real time    4.2627
    CHARGE:  cpu time    0.4611: real time    0.4644
    --------------------------------------------
      LOOP:  cpu time   17.4055: real time   17.4555

 eigenvalue-minimisations  :     0
 total energy-change (2. order) :-0.6803456E+03  (-0.5233673E+03)
 number of electron     258.0000028 magnetization       6.0000002
 augmentation part       72.8416466 magnetization       2.4149227

 Free energy of the ion-electron system (eV)
  ---------------------------------------------------
  alpha Z        PSCENC =       753.38266784
  Ewald energy   TEWEN  =    -13967.09299745
  -Hartree energ DENC   =     -5976.30393670
  -exchange      EXHF   =         0.00000000
  -V(xc)+E(xc)   XCENC  =       777.96336934
  PAW double counting   =     59019.84770010   -59716.46108691
  entropy T*S    EENTRO =        -0.00512682
  eigenvalues    EBANDS =       509.27697636
  atomic energy  EATOM  =     20168.87094289
  ---------------------------------------------------
  free energy    TOTEN  =      1569.47899610 eV

  energy without entropy =     1569.48412293  energy(sigma->0) =     1569.48155951


--------------------------------------------------------------------------------------------------------




--------------------------------------- Iteration      1(  18)  ---------------------------------------


    POTLOK:  cpu time    0.0445: real time    0.0445
    SETDIJ:  cpu time    0.0125: real time    0.0125
    TRIAL :  cpu time   12.5817: real time   12.6140
    CORREC:  cpu time    4.4427: real time    4.4481
    CHARGE:  cpu time    0.4764: real time    0.4767
    --------------------------------------------
      LOOP:  cpu time   17.5619: real time   17.5998

 eigenvalue-minimisations  :     0
 total energy-change (2. order) :-0.4018364E+03  (-0.3373897E+03)
 number of electron     258.0000033 magnetization       6.0000001
 augmentation part       74.5281456 magnetization       3.0207649

 Free energy of the ion-electron system (eV)
  ---------------------------------------------------
  alpha Z        PSCENC =       753.38266784
  Ewald energy   TEWEN  =    -13967.09299745
  -Hartree energ DENC   =     -6096.32138676
  -exchange      EXHF   =         0.00000000
  -V(xc)+E(xc)   XCENC  =       802.27985265
  PAW double counting   =     46931.49027288   -47585.22008412
  entropy T*S    EENTRO =        -0.00656741
  eigenvalues    EBANDS =       160.25843872
  atomic energy  EATOM  =     20168.87094289
  ---------------------------------------------------
  free energy    TOTEN  =      1167.64257983 eV

  energy without entropy =     1167.64914725  energy(sigma->0) =     1167.64586354


--------------------------------------------------------------------------------------------------------




--------------------------------------- Iteration      1(  19)  ---------------------------------------


    POTLOK:  cpu time    0.0446: real time    0.0447
    SETDIJ:  cpu time    0.0126: real time    0.0126
    TRIAL :  cpu time   12.4547: real time   12.4700
    CORREC:  cpu time    4.4011: real time    4.4076
    CHARGE:  cpu time    0.4635: real time    0.4639
    --------------------------------------------
      LOOP:  cpu time   17.3805: real time   17.4030

 eigenvalue-minimisations  :     0
 total energy-change (2. order) :-0.3696374E+03  (-0.1703450E+03)
 number of electron     258.0000035 magnetization       6.0000001
 augmentation part       75.3841750 magnetization       3.3268677

 Free energy of the ion-electron system (eV)
  ---------------------------------------------------
  alpha Z        PSCENC =       753.38266784
  Ewald energy   TEWEN  =    -13967.09299745
  -Hartree energ DENC   =     -6507.93347579
  -exchange      EXHF   =         0.00000000
  -V(xc)+E(xc)   XCENC  =       820.37234895
  PAW double counting   =     39409.77618511   -40036.51617587
  entropy T*S    EENTRO =        -0.00766202
  eigenvalues    EBANDS =       157.15225678
  atomic energy  EATOM  =     20168.87094289
  ---------------------------------------------------
  free energy    TOTEN  =       798.00518506 eV

  energy without entropy =      798.01284707  energy(sigma->0) =      798.00901607


--------------------------------------------------------------------------------------------------------




--------------------------------------- Iteration      1(  20)  ---------------------------------------


    POTLOK:  cpu time    0.0444: real time    0.0444
    SETDIJ:  cpu time    0.0127: real time    0.0127
    TRIAL :  cpu time   12.6756: real time   12.6975
    CORREC:  cpu time    4.3261: real time    4.3322
    CHARGE:  cpu time    0.4636: real time    0.4640
    --------------------------------------------
      LOOP:  cpu time   17.5266: real time   17.5550

 eigenvalue-minimisations  :     0
 total energy-change (2. order) :-0.1718460E+03  (-0.1161480E+03)
 number of electron     258.0000037 magnetization       6.0000001
 augmentation part       76.4640036 magnetization       3.5121094

 Free energy of the ion-electron system (eV)
  ---------------------------------------------------
  alpha Z        PSCENC =       753.38266784
  Ewald energy   TEWEN  =    -13967.09299745
  -Hartree energ DENC   =     -6584.76271123
  -exchange      EXHF   =         0.00000000
  -V(xc)+E(xc)   XCENC  =       831.33682851
  PAW double counting   =     36144.80694351   -36763.79447544
  entropy T*S    EENTRO =        -0.01126542
  eigenvalues    EBANDS =        43.41961288
  atomic energy  EATOM  =     20168.87094289
  ---------------------------------------------------
  free energy    TOTEN  =       626.15914950 eV

  energy without entropy =      626.17041492  energy(sigma->0) =      626.16478221


--------------------------------------------------------------------------------------------------------




--------------------------------------- Iteration      1(  21)  ---------------------------------------


    POTLOK:  cpu time    0.0447: real time    0.0447
    SETDIJ:  cpu time    0.0124: real time    0.0125
    TRIAL :  cpu time   12.6299: real time   12.6469
    CORREC:  cpu time    4.3513: real time    4.3568
    CHARGE:  cpu time    0.4687: real time    0.4692
    --------------------------------------------
      LOOP:  cpu time   17.5112: real time   17.5343

 eigenvalue-minimisations  :     0
 total energy-change (2. order) :-0.1116634E+03  (-0.1582328E+03)
 number of electron     258.0000039 magnetization       6.0000001
 augmentation part       77.7534910 magnetization       3.8692215

 Free energy of the ion-electron system (eV)
  ---------------------------------------------------
  alpha Z        PSCENC =       753.38266784
  Ewald energy   TEWEN  =    -13967.09299745
  -Hartree energ DENC   =     -6650.71533098
  -exchange      EXHF   =         0.00000000
  -V(xc)+E(xc)   XCENC  =       840.88454565
  PAW double counting   =     33470.98874360   -34094.87977871
  entropy T*S    EENTRO =        -0.01125638
  eigenvalues    EBANDS =        -6.93174272
  atomic energy  EATOM  =     20168.87094289
  ---------------------------------------------------
  free energy    TOTEN  =       514.49578469 eV

  energy without entropy =      514.50704106  energy(sigma->0) =      514.50141288


--------------------------------------------------------------------------------------------------------




--------------------------------------- Iteration      1(  22)  ---------------------------------------


    POTLOK:  cpu time    0.0451: real time    0.0451
    SETDIJ:  cpu time    0.0126: real time    0.0126
    TRIAL :  cpu time   12.6704: real time   12.6879
    CORREC:  cpu time    4.3694: real time    4.3744
    CHARGE:  cpu time    0.4697: real time    0.4701
    --------------------------------------------
      LOOP:  cpu time   17.5712: real time   17.5941

 eigenvalue-minimisations  :     0
 total energy-change (2. order) :-0.1872700E+03  (-0.1827743E+03)
 number of electron     258.0000040 magnetization       6.0000001
 augmentation part       78.8502755 magnetization       3.8444915

 Free energy of the ion-electron system (eV)
  ---------------------------------------------------
  alpha Z        PSCENC =       753.38266784
  Ewald energy   TEWEN  =    -13967.09299745
  -Hartree energ DENC   =     -6957.95986321
  -exchange      EXHF   =         0.00000000
  -V(xc)+E(xc)   XCENC  =       855.96991028
  PAW double counting   =     30290.09471208   -30907.57232603
  entropy T*S    EENTRO =        -0.00930481
  eigenvalues    EBANDS =        91.54397809
  atomic energy  EATOM  =     20168.87094289
  ---------------------------------------------------
  free energy    TOTEN  =       327.22576812 eV

  energy without entropy =      327.23507293  energy(sigma->0) =      327.23042052


--------------------------------------------------------------------------------------------------------




--------------------------------------- Iteration      1(  23)  ---------------------------------------


    POTLOK:  cpu time    0.0449: real time    0.0449
    SETDIJ:  cpu time    0.0127: real time    0.0126
    TRIAL :  cpu time   12.6252: real time   12.6433
    CORREC:  cpu time    4.2454: real time    4.2511
    CHARGE:  cpu time    0.4612: real time    0.4615
    --------------------------------------------
      LOOP:  cpu time   17.3935: real time   17.4177

 eigenvalue-minimisations  :     0
 total energy-change (2. order) :-0.6012818E+02  (-0.1174832E+03)
 number of electron     258.0000037 magnetization       6.0000002
 augmentation part       78.1304051 magnetization       3.5453422

 Free energy of the ion-electron system (eV)
  ---------------------------------------------------
  alpha Z        PSCENC =       753.38266784
  Ewald energy   TEWEN  =    -13967.09299745
  -Hartree energ DENC   =     -7170.24081057
  -exchange      EXHF   =         0.00000000
  -V(xc)+E(xc)   XCENC  =       861.94599425
  PAW double counting   =     29040.74651048   -29665.06189716
  entropy T*S    EENTRO =        -0.00729982
  eigenvalues    EBANDS =       244.55648510
  atomic energy  EATOM  =     20168.87094289
  ---------------------------------------------------
  free energy    TOTEN  =       267.09759057 eV

  energy without entropy =      267.10489039  energy(sigma->0) =      267.10124048


--------------------------------------------------------------------------------------------------------




--------------------------------------- Iteration      1(  24)  ---------------------------------------


    POTLOK:  cpu time    0.0445: real time    0.0445
    SETDIJ:  cpu time    0.0127: real time    0.0127
    TRIAL :  cpu time   12.7119: real time   12.7260
    CORREC:  cpu time    4.4489: real time    4.4540
    CHARGE:  cpu time    0.4675: real time    0.4678
    --------------------------------------------
      LOOP:  cpu time   17.6896: real time   17.7092

 eigenvalue-minimisations  :     0
 total energy-change (2. order) : 0.1283723E+02  (-0.9376038E+02)
 number of electron     258.0000035 magnetization       6.0000002
 augmentation part       77.7212909 magnetization       3.4014888

 Free energy of the ion-electron system (eV)
  ---------------------------------------------------
  alpha Z        PSCENC =       753.38266784
  Ewald energy   TEWEN  =    -13967.09299745
  -Hartree energ DENC   =     -7040.88980807
  -exchange      EXHF   =         0.00000000
  -V(xc)+E(xc)   XCENC  =       851.25807187
  PAW double counting   =     29209.75823924   -29835.70031579
  entropy T*S    EENTRO =        -0.00726634
  eigenvalues    EBANDS =       140.35532393
  atomic energy  EATOM  =     20168.87094289
  ---------------------------------------------------
  free energy    TOTEN  =       279.93482465 eV

  energy without entropy =      279.94209099  energy(sigma->0) =      279.93845782


--------------------------------------------------------------------------------------------------------




--------------------------------------- Iteration      1(  25)  ---------------------------------------


    POTLOK:  cpu time    0.0445: real time    0.0446
    SETDIJ:  cpu time    0.0128: real time    0.0128
    TRIAL :  cpu time   12.4448: real time   12.4602
    CORREC:  cpu time    4.4516: real time    4.4566
    CHARGE:  cpu time    0.4720: real time    0.4725
    --------------------------------------------
      LOOP:  cpu time   17.4299: real time   17.4507

 eigenvalue-minimisations  :     0
 total energy-change (2. order) :-0.3107388E+02  (-0.4233981E+02)
 number of electron     258.0000035 magnetization       6.0000002
[...]
   20        1.571   3.430   0.000   5.001
   21        1.576   3.436   0.000   5.012
   22        1.579   3.378   0.000   4.957
   23        1.586   3.395   0.000   4.981
   24        1.582   3.339   0.000   4.921
   25        1.580   3.386   0.000   4.966
   26        1.573   3.411   0.000   4.983
   27        1.569   3.425   0.000   4.995
   28        1.553   3.516   0.000   5.069
   29        1.567   3.437   0.000   5.003
   30        1.572   3.393   0.000   4.965
   31        1.566   3.475   0.000   5.041
   32        1.567   3.450   0.000   5.017
   33        1.564   3.429   0.000   4.993
   34        1.566   3.440   0.000   5.006
   35        1.579   3.387   0.000   4.966
   36        1.575   3.381   0.000   4.957
   37        1.573   3.388   0.000   4.961
   38        1.569   3.419   0.000   4.988
   39        1.571   3.394   0.000   4.965
   40        1.565   3.451   0.000   5.016
   41        1.565   3.422   0.000   4.986
   42        1.573   3.404   0.000   4.977
--------------------------------------------------
tot         43.739  91.957  87.498 223.193
 


 magnetization (x)
 
# of ion       s       p       d       tot
------------------------------------------
    1        0.000  -0.002   0.000  -0.002
    2        0.001  -0.000   0.000   0.001
    3        0.001  -0.001   0.000   0.000
    4       -0.001  -0.004   0.000  -0.006
    5        0.001   0.001   0.000   0.002
    6       -0.000  -0.002   0.000  -0.002
    7        0.013   0.017   1.395   1.425
    8        0.013   0.021   1.382   1.416
    9        0.017   0.019   1.473   1.509
   10        0.005   0.009  -0.016  -0.002
   11        0.008   0.009   1.176   1.192
   12        0.001   0.001  -0.027  -0.026
   13        0.001   0.000  -0.022  -0.021
   14        0.004   0.003  -0.004   0.003
   15        0.012   0.014   1.393   1.419
   16        0.004   0.005  -0.056  -0.047
   17        0.004   0.005  -0.057  -0.048
   18        0.016   0.016   1.668   1.700
   19        0.002  -0.050   0.000  -0.048
   20        0.001  -0.123   0.000  -0.122
   21        0.001  -0.095   0.000  -0.093
   22        0.001  -0.132   0.000  -0.131
   23        0.002  -0.146   0.000  -0.145
   24        0.000  -0.225   0.000  -0.225
   25        0.002  -0.123   0.000  -0.121
   26        0.000  -0.146   0.000  -0.145
   27       -0.000  -0.029   0.000  -0.029
   28       -0.000  -0.010   0.000  -0.011
   29       -0.000  -0.060   0.000  -0.060
   30        0.000  -0.034   0.000  -0.034
   31        0.000  -0.022   0.000  -0.022
   32       -0.000  -0.066   0.000  -0.066
   33       -0.001  -0.011   0.000  -0.012
   34        0.000  -0.031   0.000  -0.031
   35        0.001  -0.063   0.000  -0.062
   36        0.000  -0.133   0.000  -0.133
   37       -0.000  -0.176   0.000  -0.176
   38       -0.001  -0.126   0.000  -0.127
   39        0.001  -0.141   0.000  -0.140
   40       -0.000  -0.112   0.000  -0.112
   41        0.000  -0.032   0.000  -0.031
   42        0.001  -0.135   0.000  -0.135
--------------------------------------------------
tot          0.109  -2.113   8.306   6.301
 
    FORLOC:  cpu time    0.0079: real time    0.0079
    FORNL :  cpu time    4.1954: real time    4.1973
    STRESS:  cpu time   12.6128: real time   12.7308
    FORCOR:  cpu time    0.0473: real time    0.0473
    OFIELD:  cpu time    0.0004: real time    0.0004

  DFT-D2 method for vdW energy calculation
  -------------------------------------------------------------------

  Parameters of vdW forcefield:
         C6(Jnm^6/mol)     R0(A)
   -----------------------------
   Li       1.610          0.825
   Co      10.800          1.562
   O        0.700          1.342

  IVDW =   1
  VDW_RADIUS =    50.000 A
  VDW_S6 =     0.750
  VDW_SR =     1.000
  VDW_D =    20.000
  LVDW_EWALD = F

  Number of pair interactions contributing to vdW energy: 1216002
  Edisp (eV):   -9.63110
    FORVDW:  cpu time    0.1756: real time    0.1784

  FORCE on cell =-STRESS in cart. coord.  units (eV):
  Direction    XX          YY          ZZ          XY          YZ          ZX
  --------------------------------------------------------------------------------------
  Alpha Z   753.38267   753.38267   753.38267
  Ewald   -1698.59988 -1734.79058-10533.76959    70.76274     8.84574    19.49418
  Hartree  4552.60127  4535.02917 -2067.91245    27.10533     1.98538     2.45429
  E(xc)   -1286.02240 -1286.00257 -1287.29740     0.30982    -0.17109     0.03693
  Local   -7810.93707 -7760.90486  7608.13449   -85.30129   -12.14511   -16.14196
  n-local  -591.20771  -592.55465  -598.69350     2.46566     0.89706     1.46256
  augment  2020.95848  2023.48879  2002.25574    -7.78718     1.16061    -3.86201
  Kinetic  4070.51481  4071.89159  4139.96235    -9.10318     1.39654     0.54326
  Fock        0.00000     0.00000     0.00000     0.00000     0.00000     0.00000
  vdW        -7.12885    -6.86771   -12.54686     0.17135    -0.17991    -0.31274
  -------------------------------------------------------------------------------------
  Total       3.56132     2.67187     3.51544    -1.37676     1.78924     3.67452
  in kB      14.66298    11.00086    14.47410    -5.66851     7.36681    15.12908
  external pressure =       13.38 kB  Pullay stress =        0.00 kB


 VOLUME and BASIS-vectors are now :
 -----------------------------------------------------------------------------
  energy-cutoff  :      600.00
  volume of cell :      389.13
      direct lattice vectors                 reciprocal lattice vectors
     5.640840054  0.000000000  0.000000000     0.177278560  0.100999122 -0.035404070
    -2.780324697  4.880160809  0.000000000     0.000000000  0.204911280 -0.028070157
     1.719828725  1.936422586 14.135825157     0.000000000  0.000000000  0.070742245

  length of vectors
     5.640840054  5.616598164 14.371120212     0.207079595  0.206824966  0.070742245


 FORCES acting on ions:
    Electron-Ion                     Ewald-Force                    Non-Local-Force
 -----------------------------------------------------------------------------------------------
   0.321E+01 -.126E+00 -.680E+01   -.292E+01 0.222E+00 0.641E+01   -.346E+00 -.481E-01 0.544E+00
   0.242E+01 -.286E+01 0.884E+01   -.234E+01 0.273E+01 -.795E+01   -.497E+00 -.568E-01 -.713E+00
   0.181E+01 0.985E+01 0.213E+02   -.171E+01 -.944E+01 -.203E+02   -.105E+01 -.127E+01 -.236E+01
   -.913E+01 -.321E+01 -.101E+02   0.836E+01 0.288E+01 0.991E+01   0.193E+01 0.424E+00 0.261E+00
   0.653E+01 -.124E+01 -.255E+02   -.674E+01 0.136E+01 0.253E+02   -.166E+01 0.691E+00 0.170E+01
   -.610E+01 0.652E+01 -.917E+01   0.630E+01 -.623E+01 0.903E+01   0.111E+01 -.616E+00 -.785E-01
   -.440E+02 0.118E+02 0.140E+03   0.444E+02 -.104E+02 -.141E+03   -.223E-01 -.407E+00 0.301E-02
   0.479E+01 0.108E+02 0.914E+02   -.449E+01 -.129E+02 -.930E+02   -.506E-01 -.724E+00 -.741E+00
   0.995E+01 -.412E+02 0.157E+03   -.901E+01 0.433E+02 -.157E+03   0.473E+00 0.464E+00 0.156E+01
   0.147E+02 0.129E+02 0.255E+03   -.151E+02 -.139E+02 -.256E+03   -.378E+00 0.745E+00 0.117E+01
   0.267E+02 -.102E+02 -.688E+02   -.266E+02 0.102E+02 0.704E+02   -.449E+00 0.241E+00 0.325E+00
   -.201E+02 -.110E+02 0.141E+02   0.192E+02 0.119E+02 -.130E+02   0.135E+01 0.410E+00 0.111E+01
   -.181E+02 0.203E+02 0.541E+02   0.175E+02 -.188E+02 -.552E+02   0.192E+00 -.465E+00 0.928E+00
   -.109E+02 -.306E+02 0.282E+02   0.120E+02 0.296E+02 -.285E+02   0.962E+00 0.102E+01 0.569E+00
   -.241E+02 0.399E+02 -.125E+03   0.255E+02 -.405E+02 0.124E+03   -.261E+00 -.105E+01 0.416E+00
   -.120E+02 0.809E+00 -.167E+03   0.117E+02 -.180E-01 0.168E+03   0.865E-01 -.790E-01 -.104E+01
   0.818E+01 -.165E+02 -.150E+03   -.882E+01 0.165E+02 0.150E+03   -.475E+00 0.477E+00 -.191E+01
   0.403E+02 -.144E+02 -.220E+03   -.407E+02 0.134E+02 0.219E+03   -.108E+01 0.398E+00 -.509E+00
   0.605E+01 -.151E+02 -.215E+03   -.844E+01 0.168E+02 0.234E+03   0.237E+01 -.869E+00 -.184E+02
   0.989E+01 0.150E+02 -.218E+03   -.953E+01 -.154E+02 0.237E+03   -.849E+00 -.739E+00 -.172E+02
   -.820E+01 -.102E+02 -.229E+03   0.106E+02 0.831E+01 0.251E+03   -.210E+01 0.280E+01 -.219E+02
   -.195E+02 0.236E+02 -.215E+03   0.205E+02 -.234E+02 0.237E+03   0.293E+00 -.129E+01 -.221E+02
   0.368E+02 -.734E+01 0.445E+03   -.418E+02 0.582E+01 -.473E+03   0.259E+01 0.165E+01 0.268E+02
   -.695E+01 -.112E+02 0.425E+03   0.601E+01 0.131E+02 -.446E+03   0.129E+01 -.122E+01 0.214E+02
   0.248E+00 0.101E+02 0.440E+03   -.127E+00 -.116E+02 -.465E+03   -.894E+00 0.863E+00 0.240E+02
   -.674E+01 0.165E+01 0.419E+03   0.815E+01 -.145E-01 -.438E+03   -.103E+01 -.193E+01 0.182E+02
   -.212E+02 -.330E+02 -.307E+03   0.242E+02 0.370E+02 0.326E+03   -.285E+01 -.393E+01 -.200E+02
   -.894E+01 0.217E+02 -.280E+03   0.843E+01 -.248E+02 0.291E+03   0.119E+01 0.193E+01 -.117E+02
   -.185E+01 -.104E+02 -.281E+03   -.162E+01 0.112E+02 0.294E+03   0.392E+01 -.131E+01 -.167E+02
   0.323E+02 0.417E+02 -.311E+03   -.341E+02 -.475E+02 0.331E+03   0.836E+00 0.537E+01 -.207E+02
   -.207E+02 -.480E+02 0.310E+03   0.248E+02 0.499E+02 -.328E+03   -.345E+01 -.237E+00 0.181E+02
   -.441E+02 0.188E+02 0.312E+03   0.500E+02 -.182E+02 -.329E+03   -.442E+01 -.143E+01 0.174E+02
   0.315E+02 -.518E+01 0.313E+03   -.369E+02 0.425E+01 -.333E+03   0.503E+01 0.102E+01 0.200E+02
   0.510E+02 0.351E+02 0.302E+03   -.563E+02 -.372E+02 -.321E+03   0.316E+01 0.151E+01 0.189E+02
   0.546E+01 -.111E+02 -.434E+03   -.706E+01 0.127E+02 0.460E+03   0.571E+00 -.591E+00 -.258E+02
   0.397E+01 -.236E+02 -.412E+03   -.214E+01 0.263E+02 0.434E+03   -.162E+01 -.113E+01 -.221E+02
   0.186E+02 -.253E+02 -.408E+03   -.196E+02 0.268E+02 0.428E+03   0.703E+00 -.585E+00 -.202E+02
   -.232E+02 0.428E+02 -.405E+03   0.242E+02 -.460E+02 0.424E+03   0.390E+00 0.101E+01 -.190E+02
   -.115E+02 0.307E+02 0.192E+03   0.123E+02 -.345E+02 -.210E+03   -.531E-01 0.302E+01 0.197E+02
   0.204E+02 -.713E+01 0.191E+03   -.241E+02 0.790E+01 -.206E+03   0.393E+01 -.390E+00 0.160E+02
   -.360E+00 -.740E+01 0.175E+03   0.242E+01 0.120E+02 -.190E+03   -.224E+01 -.464E+01 0.160E+02
   -.196E+02 -.752E+01 0.200E+03   0.235E+02 0.675E+01 -.220E+03   -.403E+01 0.920E+00 0.210E+02
 -----------------------------------------------------------------------------------------------
   -.266E+01 0.909E-01 -.287E+01   -.249E-13 -.355E-13 -.881E-12   0.259E+01 -.545E-01 0.290E+01
 
 
 POSITION                                       TOTAL-FORCE (eV/Angst)
 -----------------------------------------------------------------------------------
      1.09388      5.94124     14.10049         0.005133     -0.076826      0.074128
      5.10402      1.99091      4.71935        -0.283778     -0.294521      0.285389
      3.74593      4.62668      4.84550        -0.729380     -0.783690     -1.128322
      5.69444      2.50380      9.32357         0.913500      0.085107     -0.001815
     -0.25424      4.96509      9.17628        -1.452348      0.576183      1.284238
      1.92145      4.85613      9.35349         0.964441     -0.141609     -0.276985
      1.05237      2.78071      2.52311         0.135681      1.079164     -0.573325
      2.44091      0.43459      2.65325         0.190994     -2.585814     -2.109756
      3.87434      2.74309      2.43219         1.384861      2.307917      1.319748
      5.25813      0.35742      2.38738        -0.576468     -0.310587      0.424534
      3.56405      5.58303      7.10805        -0.210148      0.223027      1.813976
      4.86765      3.11505      7.01164         0.279676      1.212305      1.957853
      0.74379      5.59226      7.01377        -0.335222      1.089587     -0.083554
      2.03639      3.15688      7.01657         1.896052     -0.077778      0.338615
      2.31471      1.87356     11.60909         0.948903     -1.369114     -0.481968
      0.94227      4.26112     11.68419        -0.178410      0.728542     -0.142307
      5.17469      1.87454     11.70059        -1.046979      0.265814     -1.394709
      3.76849      4.33107     11.78629        -1.143607     -0.671769     -1.013248
      0.96016      1.12963      3.48651         0.078505      0.819375      0.294008
     -0.36764      3.63968      3.40601        -0.508651     -0.974742      1.198926
      3.91314      1.13594      3.43845         0.195796      0.895801      0.273963
      2.36235      3.70473      3.44122         1.251434     -1.176558     -0.301176
      2.59063      1.91648      1.60603        -2.412714      0.133174     -0.995453
      0.96886      4.35548      1.50387         0.398856      0.702289      0.330695
     -0.26139      2.04054      1.51168        -0.780404     -0.538002     -0.578000
     -1.71545      4.45028      1.58113         0.306915     -0.268762     -0.662831
      2.07498      1.54300      8.03996         0.091176      0.209102     -0.512113
      0.68167      4.01277      8.07624         0.691003     -1.210180     -1.072162
      4.80808      1.51520      8.24725         0.447702     -0.538424     -3.193079
      3.63506      4.05866      8.13226        -1.039407     -0.453552     -0.974450
      0.59922      2.21008      6.12695         0.687348      1.592128     -0.407226
     -0.74100      4.84426      6.06488         1.507662     -0.866979      0.692119
      3.52104      2.33931      6.04423        -0.492215      0.156568      0.043670
      2.32205      4.85339      6.02746        -2.264446     -0.622584      0.524202
      6.67911      2.57471     12.61859        -1.039832      0.982011      0.353318
      5.18299      4.98640     12.69619         0.203036      1.595379     -0.221959
      3.74017      2.57072     12.64759        -0.355671      1.036821      0.059816
      2.19543      5.28110     12.69439         1.522522     -2.263522     -0.057253
      3.70808      5.99899     10.58719         0.846241     -0.932168      1.181913
      5.13208      3.51386     10.67379         0.189104      0.341080      1.144118
      0.90670      5.89250     10.55389        -0.142101      0.047794      1.786106
      2.39006      3.52386     10.69119        -0.144760      0.078017      0.800356
 -----------------------------------------------------------------------------------
    total drift:                               -0.068132      0.036392      0.038189


--------------------------------------------------------------------------------------------------------



  FREE ENERGIE OF THE ION-ELECTRON SYSTEM (eV)
  ---------------------------------------------------
  free  energy   TOTEN  =      -232.02351433 eV

  energy  without entropy=     -232.01970834  energy(sigma->0) =     -232.02161134
 


--------------------------------------------------------------------------------------------------------


    POTLOK:  cpu time    0.0610: real time    0.0610


--------------------------------------------------------------------------------------------------------


     LOOP+:  cpu time 3312.4192: real time 3319.7576
    4ORBIT:  cpu time    0.0000: real time    0.0000
 


 total charge     
 
# of ion       s       p       d       tot
------------------------------------------
    1        0.082   0.161   0.000   0.243
    2        0.107   0.226   0.000   0.333
    3        0.134   0.300   0.000   0.434
    4        0.138   0.311   0.000   0.449
    5        0.126   0.283   0.000   0.409
    6        0.117   0.255   0.000   0.372
    7        0.462   0.750   7.228   8.440
    8        0.481   0.785   7.259   8.525
    9        0.469   0.737   7.254   8.461
   10        0.446   0.716   7.399   8.561
   11        0.497   0.829   7.305   8.631
   12        0.426   0.650   7.364   8.440
   13        0.412   0.631   7.321   8.365
   14        0.388   0.566   7.254   8.208
   15        0.449   0.706   7.201   8.355
   16        0.430   0.671   7.369   8.470
   17        0.450   0.713   7.409   8.572
   18        0.417   0.622   7.134   8.173
   19        1.568   3.461   0.000   5.028
   20        1.571   3.430   0.000   5.001
   21        1.576   3.436   0.000   5.012
   22        1.579   3.378   0.000   4.957
   23        1.586   3.395   0.000   4.981
   24        1.582   3.339   0.000   4.921
   25        1.580   3.386   0.000   4.966
   26        1.573   3.411   0.000   4.983
   27        1.569   3.425   0.000   4.995
   28        1.553   3.516   0.000   5.069
   29        1.567   3.437   0.000   5.003
   30        1.572   3.393   0.000   4.965
   31        1.566   3.475   0.000   5.041
   32        1.567   3.450   0.000   5.017
   33        1.564   3.429   0.000   4.993
   34        1.566   3.440   0.000   5.006
   35        1.579   3.387   0.000   4.966
   36        1.575   3.381   0.000   4.957
   37        1.573   3.388   0.000   4.961
   38        1.569   3.419   0.000   4.988
   39        1.571   3.394   0.000   4.965
   40        1.565   3.451   0.000   5.016
   41        1.565   3.422   0.000   4.986
   42        1.573   3.404   0.000   4.977
--------------------------------------------------
tot         43.739  91.957  87.498 223.193
 


 magnetization (x)
 
# of ion       s       p       d       tot
------------------------------------------
    1        0.000  -0.002   0.000  -0.002
    2        0.001  -0.000   0.000   0.001
    3        0.001  -0.001   0.000   0.000
    4       -0.001  -0.004   0.000  -0.006
    5        0.001   0.001   0.000   0.002
    6       -0.000  -0.002   0.000  -0.002
    7        0.013   0.017   1.395   1.425
    8        0.013   0.021   1.382   1.416
    9        0.017   0.019   1.473   1.509
   10        0.005   0.009  -0.016  -0.002
   11        0.008   0.009   1.176   1.192
   12        0.001   0.001  -0.027  -0.026
   13        0.001   0.000  -0.022  -0.021
   14        0.004   0.003  -0.004   0.003
   15        0.012   0.014   1.393   1.419
   16        0.004   0.005  -0.056  -0.047
   17        0.004   0.005  -0.057  -0.048
   18        0.016   0.016   1.668   1.700
   19        0.002  -0.050   0.000  -0.048
   20        0.001  -0.123   0.000  -0.122
   21        0.001  -0.095   0.000  -0.093
   22        0.001  -0.132   0.000  -0.131
   23        0.002  -0.146   0.000  -0.145
   24        0.000  -0.225   0.000  -0.225
   25        0.002  -0.123   0.000  -0.121
   26        0.000  -0.146   0.000  -0.145
   27       -0.000  -0.029   0.000  -0.029
   28       -0.000  -0.010   0.000  -0.011
   29       -0.000  -0.060   0.000  -0.060
   30        0.000  -0.034   0.000  -0.034
   31        0.000  -0.022   0.000  -0.022
   32       -0.000  -0.066   0.000  -0.066
   33       -0.001  -0.011   0.000  -0.012
   34        0.000  -0.031   0.000  -0.031
   35        0.001  -0.063   0.000  -0.062
   36        0.000  -0.133   0.000  -0.133
   37       -0.000  -0.176   0.000  -0.176
   38       -0.001  -0.126   0.000  -0.127
   39        0.001  -0.141   0.000  -0.140
   40       -0.000  -0.112   0.000  -0.112
   41        0.000  -0.032   0.000  -0.031
   42        0.001  -0.135   0.000  -0.135
--------------------------------------------------
tot          0.109  -2.113   8.306   6.301
 

 total amount of memory used by VASP MPI-rank0   157700. kBytes
=======================================================================

   base      :      30000. kBytes
   nonlr-proj:       4354. kBytes
   fftplans  :       1687. kBytes
   grid      :       4644. kBytes
   one-center:        342. kBytes
   wavefun   :     116673. kBytes
 
  
  
 General timing and accounting informations for this job:
 ========================================================
  
                  Total CPU time used (sec):     3338.500
                            User time (sec):     3129.591
                          System time (sec):      208.910
                         Elapsed time (sec):     3346.358
  
                   Maximum memory used (kb):      844632.
                   Average memory used (kb):           0.
  
                          Minor page faults:        70530
                          Major page faults:           69
                 Voluntary context switches:          593
