 running on   64 total cores
 distrk:  each k-point on   64 cores,    1 groups
 distr:  one band on    4 cores,   16 groups
 using from now: INCAR     
 vasp.5.4.4.18Apr17-6-g9f103f2a35 (build Nov 22 2021 14:44:17) complex          
  
 POSCAR found type information on POSCAR  Li Co O 
 POSCAR found :  3 types and      42 ions
 scaLAPACK will be used
 LDA part: xc-table for Pade appr. of Perdew
 generate k-points for:    6    6    2
 POSCAR, INCAR and KPOINTS ok, starting setup
 FFT: planning ...
 WAVECAR not read
 entering main loop
       N       E                     dE             d eps       ncg     rms          ort
DAV:   1     0.348979877194E+04    0.34898E+04   -0.13936E+05  5760   0.219E+03
DAV:   2     0.401814286757E+03   -0.30880E+04   -0.28445E+04  5760   0.537E+02
DAV:   3    -0.221894506475E+03   -0.62371E+03   -0.56843E+03  5760   0.254E+02
DAV:   4    -0.271219837004E+03   -0.49325E+02   -0.48267E+02  5760   0.733E+01
DAV:   5    -0.272880767415E+03   -0.16609E+01   -0.16578E+01  5760   0.135E+01
 gam= 0.000 g(H,U,f)=  0.172E+04 0.759E+03 0.379E+03 ort(H,U,f) = 0.000E+00 0.000E+00 0.000E+00
SDA:   6     0.792530768881E+02    0.35213E+03   -0.16578E+01  5760   0.286E+04 0.000E+00
 gam= 0.000 trial= 0.400  step= 0.128 mean= 0.400
 gam= 4.550 g(H,U,f)=  0.597E+03 0.322E+04 0.918E+04 ort(H,U,f) = 0.555E+03-0.183E+02-0.103E+04
CGA:   7    -0.146094070961E+02   -0.93862E+02   -0.18351E+03  5760   0.130E+05-0.498E+03
 gam= 4.550 trial= 0.386  step= 0.079 mean= 0.386
 gam= 0.000 g(H,U,f)=  0.408E+04 0.113E+04 0.249E+02 ort(H,U,f) = 0.658E+04 0.353E+04-0.364E+02
CGA:   8     0.719631066432E+03    0.73424E+03   -0.42188E+03  5760   0.524E+04 0.101E+05
 gam= 0.000 trial= 0.371  step= 0.073 mean= 0.371
 gam= 0.000 g(H,U,f)=  0.246E+04 0.635E+03 0.729E+02 ort(H,U,f) = 0.301E+04 0.344E+03-0.123E+03
CGA:   9     0.563073846917E+03   -0.15656E+03   -0.19180E+03  5760   0.317E+04 0.323E+04
 gam= 0.000 trial= 0.356  step= 0.153 mean= 0.356
 gam= 0.805 g(H,U,f)=  0.134E+04 0.107E+04 0.144E+03 ort(H,U,f) = 0.118E+04-0.120E+03-0.436E+02
CGA:  10     0.276678474521E+03   -0.28640E+03   -0.24282E+03  5760   0.255E+04 0.102E+04
 gam= 0.805 trial= 0.346  step= 0.088 mean= 0.346
 gam= 1.469 g(H,U,f)=  0.117E+04 0.239E+04 0.191E+03 ort(H,U,f) = 0.121E+04-0.112E+04-0.114E+03
CGA:  11     0.197183423815E+03   -0.79495E+02   -0.14880E+03  5760   0.375E+04-0.176E+02
 gam= 1.469 trial= 0.333  step= 0.132 mean= 0.333
 gam= 0.683 g(H,U,f)=  0.120E+04 0.129E+04 0.667E+02 ort(H,U,f) = 0.174E+02 0.158E+03 0.571E+01
CGA:  12     0.820015413296E+02   -0.11518E+03   -0.24649E+03  5760   0.256E+04 0.181E+03
 gam= 0.683 trial= 0.323  step= 0.098 mean= 0.323
 gam= 1.629 g(H,U,f)=  0.116E+04 0.281E+04 0.200E+03 ort(H,U,f) = 0.775E+02-0.964E+03-0.844E+02
CGA:  13     0.584012912414E+02   -0.23600E+02   -0.13168E+03  5760   0.417E+04-0.971E+03
 gam= 1.629 trial= 0.312  step= 0.088 mean= 0.312
 gam= 0.297 g(H,U,f)=  0.511E+03 0.678E+03 0.486E+02 ort(H,U,f) = 0.290E+03 0.329E+03 0.280E+02
CGA:  14     0.427835929267E+02   -0.15618E+02   -0.11377E+03  5760   0.124E+04 0.646E+03
 gam= 0.297 trial= 0.301  step= 0.084 mean= 0.301
 gam= 0.883 g(H,U,f)=  0.417E+03 0.628E+03 0.478E+02 ort(H,U,f) = 0.679E+02-0.395E+03-0.513E+02
CGA:  15     0.488778578937E+01   -0.37896E+02   -0.60072E+02  5760   0.109E+04-0.378E+03
 gam= 0.883 trial= 0.290  step= 0.134 mean= 0.290
 gam= 0.690 g(H,U,f)=  0.341E+03 0.348E+03 0.653E+02 ort(H,U,f) = 0.179E+02 0.276E+01-0.169E+02
CGA:  16    -0.343290764251E+02   -0.39217E+02   -0.50917E+02  5760   0.754E+03 0.377E+01
 gam= 0.690 trial= 0.282  step= 0.098 mean= 0.282
 gam= 0.739 g(H,U,f)=  0.280E+03 0.247E+03 0.309E+02 ort(H,U,f) = 0.175E+02-0.145E+03-0.256E+02
CGA:  17    -0.516077881441E+02   -0.17279E+02   -0.37127E+02  5760   0.558E+03-0.153E+03
 gam= 0.739 trial= 0.273  step= 0.150 mean= 0.273
 gam= 0.458 g(H,U,f)=  0.168E+03 0.759E+02 0.113E+02 ort(H,U,f) = 0.592E+01 0.133E+02-0.130E+01
CGA:  18    -0.808095469806E+02   -0.29202E+02   -0.33393E+02  5760   0.256E+03 0.179E+02
 gam= 0.458 trial= 0.267  step= 0.127 mean= 0.267
 gam= 0.853 g(H,U,f)=  0.992E+02 0.102E+03 0.171E+02 ort(H,U,f) = 0.542E+02-0.369E+02-0.263E+01
CGA:  19    -0.966695276537E+02   -0.15860E+02   -0.16694E+02  5760   0.218E+03 0.147E+02
 gam= 0.853 trial= 0.260  step= 0.164 mean= 0.260
 gam= 0.562 g(H,U,f)=  0.682E+02 0.501E+02 0.413E+01 ort(H,U,f) = 0.156E+02 0.222E+01-0.251E+01
CGA:  20    -0.113822536157E+03   -0.17153E+02   -0.18880E+02  5760   0.122E+03 0.153E+02
 gam= 0.562 trial= 0.255  step= 0.185 mean= 0.255
 gam= 0.913 g(H,U,f)=  0.395E+02 0.657E+02 0.654E+01 ort(H,U,f) = 0.123E+02-0.232E+01-0.496E+00
CGA:  21    -0.125414377150E+03   -0.11592E+02   -0.12121E+02  5760   0.112E+03 0.951E+01
 gam= 0.913 trial= 0.251  step= 0.127 mean= 0.251
 gam= 0.438 g(H,U,f)=  0.259E+02 0.210E+02 0.208E+01 ort(H,U,f) = 0.131E+01 0.246E+01 0.147E+01
CGA:  22    -0.132764179166E+03   -0.73498E+01   -0.76710E+01  5760   0.490E+02 0.525E+01
 gam= 0.438 trial= 0.245  step= 0.338 mean= 0.245
 gam= 1.112 g(H,U,f)=  0.214E+02 0.318E+02 0.124E+01 ort(H,U,f) =-0.729E+01 0.110E+02 0.515E+00
CGA:  23    -0.141793721747E+03   -0.90295E+01   -0.86750E+01  5760   0.545E+02 0.426E+01
 gam= 1.112 trial= 0.250  step= 0.173 mean= 0.250
 gam= 1.810 g(H,U,f)=  0.240E+02 0.698E+02 0.477E+01 ort(H,U,f) =-0.935E+01 0.736E+01 0.178E+01
CGA:  24    -0.147630644141E+03   -0.58369E+01   -0.51180E+01  5760   0.986E+02-0.208E+00
 gam= 1.810 trial= 0.246  step= 0.136 mean= 0.246
 gam= 3.133 g(H,U,f)=  0.427E+02 0.250E+03 0.166E+02 ort(H,U,f) =-0.470E+02 0.437E+02 0.136E+01
CGA:  25    -0.157759180609E+03   -0.10129E+02   -0.66888E+01  5760   0.309E+03-0.193E+01
 gam= 3.133 trial= 0.241  step= 0.019 mean= 0.241
 gam= 0.741 g(H,U,f)=  0.115E+03 0.108E+03 0.536E+01 ort(H,U,f) = 0.830E+02-0.145E+02 0.190E+02
CGA:  26    -0.121827732944E+03    0.35931E+02   -0.28077E+01  5760   0.229E+03 0.875E+02
 gam= 0.741 trial= 0.229  step= 0.033 mean= 0.229
 gam= 0.000 g(H,U,f)=  0.155E+03 0.871E+02 0.208E+01 ort(H,U,f) = 0.367E+03-0.658E+03-0.260E+02
CGA:  27    -0.102141825203E+03    0.19686E+02   -0.48019E+01  5760   0.244E+03-0.317E+03
 gam= 0.000 trial= 0.220  step= 0.224 mean= 0.220
 gam= 1.417 g(H,U,f)=  0.128E+03 0.208E+03 0.935E+01 ort(H,U,f) = 0.495E+02-0.385E+02-0.156E+01
CGA:  28    -0.129506174127E+03   -0.27364E+02   -0.27330E+02  5760   0.345E+03 0.943E+01
 gam= 1.417 trial= 0.220  step= 0.091 mean= 0.220
 gam= 0.894 g(H,U,f)=  0.107E+03 0.190E+03 0.127E+02 ort(H,U,f) = 0.914E+02-0.111E+03-0.884E+01
CGA:  29    -0.143825915944E+03   -0.14320E+02   -0.16396E+02  5760   0.309E+03-0.284E+02
 gam= 0.894 trial= 0.213  step= 0.136 mean= 0.213
 gam= 0.268 g(H,U,f)=  0.287E+02 0.507E+02 0.333E+01 ort(H,U,f) = 0.198E+02-0.245E+02-0.205E+01
CGA:  30    -0.162429884037E+03   -0.18604E+02   -0.19241E+02  5760   0.827E+02-0.674E+01
 gam= 0.268 trial= 0.210  step= 0.076 mean= 0.210
 gam= 0.676 g(H,U,f)=  0.209E+02 0.331E+02 0.190E+01 ort(H,U,f) = 0.162E+02-0.156E+02-0.193E+01
CGA:  31    -0.165650858304E+03   -0.32210E+01   -0.30648E+01  5760   0.559E+02-0.133E+01
 gam= 0.676 trial= 0.203  step= 0.234 mean= 0.203
 gam= 1.020 g(H,U,f)=  0.220E+02 0.337E+02 0.138E+01 ort(H,U,f) =-0.423E+01-0.900E+00-0.459E+00
CGA:  32    -0.172021114424E+03   -0.63703E+01   -0.64514E+01  5760   0.571E+02-0.559E+01
 gam= 1.020 trial= 0.204  step= 0.207 mean= 0.204
 gam= 1.782 g(H,U,f)=  0.230E+02 0.731E+02 0.550E+01 ort(H,U,f) =-0.632E+01 0.532E+00-0.841E+00
CGA:  33    -0.177322588635E+03   -0.53015E+01   -0.53066E+01  5760   0.102E+03-0.663E+01
 gam= 1.782 trial= 0.205  step= 0.078 mean= 0.205
 gam= 0.479 g(H,U,f)=  0.224E+02 0.255E+02 0.863E+00 ort(H,U,f) =-0.175E+02 0.110E+02-0.123E+01
CGA:  34    -0.181426217604E+03   -0.41036E+01   -0.35076E+01  5760   0.487E+02-0.770E+01
 gam= 0.479 trial= 0.198  step= 0.337 mean= 0.198
 gam= 1.124 g(H,U,f)=  0.354E+02 0.187E+02 0.755E+00 ort(H,U,f) =-0.265E+02 0.299E+01 0.288E+00
CGA:  35    -0.187341560777E+03   -0.59153E+01   -0.75894E+01  5760   0.548E+02-0.232E+02
 gam= 1.124 trial= 0.205  step= 0.137 mean= 0.205
 gam= 1.028 g(H,U,f)=  0.411E+02 0.145E+02 0.669E+00 ort(H,U,f) =-0.879E+01 0.389E+01 0.111E+01
CGA:  36    -0.189667200794E+03   -0.23256E+01   -0.19602E+01  5760   0.563E+02-0.379E+01
 gam= 1.028 trial= 0.202  step= 0.146 mean= 0.202
 gam= 1.189 g(H,U,f)=  0.386E+02 0.271E+02 0.121E+01 ort(H,U,f) = 0.918E+01-0.103E+02 0.764E+00
CGA:  37    -0.193715016364E+03   -0.40478E+01   -0.38211E+01  5760   0.669E+02-0.360E+00
 gam= 1.189 trial= 0.199  step= 0.117 mean= 0.199
 gam= 0.952 g(H,U,f)=  0.336E+02 0.276E+02 0.245E+01 ort(H,U,f) = 0.141E+02-0.623E+01 0.145E+01
CGA:  38    -0.197514617428E+03   -0.37996E+01   -0.38939E+01  5760   0.637E+02 0.936E+01
 gam= 0.952 trial= 0.195  step= 0.081 mean= 0.195
 gam= 0.719 g(H,U,f)=  0.279E+02 0.170E+02 0.813E+00 ort(H,U,f) = 0.176E+02-0.343E+01 0.649E+00
CGA:  39    -0.200151327370E+03   -0.26367E+01   -0.29238E+01  5760   0.458E+02 0.148E+02
 gam= 0.719 trial= 0.189  step= 0.081 mean= 0.189
 gam= 0.878 g(H,U,f)=  0.238E+02 0.149E+02 0.155E+01 ort(H,U,f) = 0.176E+02-0.740E+01-0.205E+01
CGA:  40    -0.202259883045E+03   -0.21086E+01   -0.22893E+01  5760   0.402E+02 0.814E+01
 gam= 0.878 trial= 0.184  step= 0.076 mean= 0.184
 gam= 1.047 g(H,U,f)=  0.224E+02 0.161E+02 0.358E+01 ort(H,U,f) = 0.189E+02-0.107E+02-0.356E+01
CGA:  41    -0.203791900396E+03   -0.15320E+01   -0.17914E+01  5760   0.421E+02 0.461E+01
 gam= 1.047 trial= 0.178  step= 0.066 mean= 0.178
 gam= 1.163 g(H,U,f)=  0.216E+02 0.219E+02 0.544E+01 ort(H,U,f) = 0.214E+02-0.110E+02-0.219E+01
CGA:  42    -0.205015580417E+03   -0.12237E+01   -0.15545E+01  5760   0.490E+02 0.822E+01
 gam= 1.163 trial= 0.173  step= 0.059 mean= 0.173
 gam= 0.976 g(H,U,f)=  0.197E+02 0.230E+02 0.511E+01 ort(H,U,f) = 0.200E+02-0.807E+01 0.282E+01
CGA:  43    -0.206181051115E+03   -0.11655E+01   -0.17271E+01  5760   0.478E+02 0.148E+02
 gam= 0.976 trial= 0.167  step= 0.058 mean= 0.167
 gam= 0.757 g(H,U,f)=  0.168E+02 0.167E+02 0.265E+01 ort(H,U,f) = 0.103E+02-0.547E+01 0.592E+01
CGA:  44    -0.207085286190E+03   -0.90424E+00   -0.18186E+01  5760   0.362E+02 0.107E+02
 gam= 0.757 trial= 0.162  step= 0.063 mean= 0.162
 gam= 0.769 g(H,U,f)=  0.140E+02 0.130E+02 0.830E+00 ort(H,U,f) = 0.303E+01 0.181E+01 0.280E+01
CGA:  45    -0.207832112071E+03   -0.74683E+00   -0.13880E+01  5760   0.278E+02 0.765E+01
 gam= 0.769 trial= 0.157  step= 0.074 mean= 0.157
 gam= 0.844 g(H,U,f)=  0.117E+02 0.113E+02 0.455E+00 ort(H,U,f) =-0.130E+01 0.681E+01 0.631E+00
CGA:  46    -0.208704345017E+03   -0.87223E+00   -0.12439E+01  5760   0.235E+02 0.615E+01
 gam= 0.844 trial= 0.153  step= 0.079 mean= 0.153
 gam= 0.810 g(H,U,f)=  0.107E+02 0.819E+01 0.122E+00 ort(H,U,f) =-0.375E+01 0.904E+01-0.898E-01
CGA:  47    -0.209615099739E+03   -0.91075E+00   -0.11298E+01  5760   0.190E+02 0.521E+01
 gam= 0.810 trial= 0.149  step= 0.085 mean= 0.149
 gam= 1.008 g(H,U,f)=  0.107E+02 0.829E+01 0.226E+00 ort(H,U,f) =-0.256E+01 0.737E+01-0.248E+00
CGA:  48    -0.210470869707E+03   -0.85577E+00   -0.98895E+00  5760   0.192E+02 0.456E+01
 gam= 1.008 trial= 0.146  step= 0.085 mean= 0.146
 gam= 1.078 g(H,U,f)=  0.108E+02 0.950E+01 0.368E+00 ort(H,U,f) =-0.225E+01 0.730E+01-0.432E+00
CGA:  49    -0.211361277413E+03   -0.89041E+00   -0.10150E+01  5760   0.207E+02 0.462E+01
 gam= 1.078 trial= 0.143  step= 0.079 mean= 0.143
 gam= 1.142 g(H,U,f)=  0.107E+02 0.115E+02 0.136E+01 ort(H,U,f) =-0.289E+01 0.819E+01-0.367E+00
CGA:  50    -0.212240990828E+03   -0.87971E+00   -0.10140E+01  5760   0.236E+02 0.493E+01
 gam= 1.142 trial= 0.139  step= 0.070 mean= 0.139
 gam= 1.025 g(H,U,f)=  0.103E+02 0.124E+02 0.150E+01 ort(H,U,f) =-0.590E+01 0.113E+02 0.121E+01
CGA:  51    -0.213083649162E+03   -0.84266E+00   -0.10294E+01  5760   0.242E+02 0.657E+01
 gam= 1.025 trial= 0.136  step= 0.060 mean= 0.136
 gam= 0.812 g(H,U,f)=  0.982E+01 0.931E+01 0.517E+00 ort(H,U,f) =-0.797E+01 0.123E+02 0.157E+01
CGA:  52    -0.213784937007E+03   -0.70129E+00   -0.93111E+00  5760   0.196E+02 0.594E+01
 gam= 0.812 trial= 0.132  step= 0.060 mean= 0.132
 gam= 0.861 g(H,U,f)=  0.952E+01 0.721E+01 0.191E+00 ort(H,U,f) =-0.502E+01 0.840E+01 0.542E+00
CGA:  53    -0.214332113166E+03   -0.54718E+00   -0.73585E+00  5760   0.169E+02 0.393E+01
 gam= 0.861 trial= 0.129  step= 0.064 mean= 0.129
 gam= 0.919 g(H,U,f)=  0.929E+01 0.608E+01 0.186E+00 ort(H,U,f) =-0.157E+01 0.462E+01 0.484E-01
CGA:  54    -0.214841762166E+03   -0.50965E+00   -0.65355E+00  5760   0.156E+02 0.310E+01
 gam= 0.919 trial= 0.125  step= 0.068 mean= 0.125
 gam= 0.902 g(H,U,f)=  0.871E+01 0.527E+01 0.586E-01 ort(H,U,f) = 0.147E+01 0.134E+01 0.355E-01
CGA:  55    -0.215355204175E+03   -0.51344E+00   -0.63004E+00  5760   0.140E+02 0.285E+01
 gam= 0.902 trial= 0.123  step= 0.075 mean= 0.123
 gam= 0.927 g(H,U,f)=  0.752E+01 0.543E+01 0.567E-01 ort(H,U,f) = 0.354E+01-0.797E+00 0.160E-01
CGA:  56    -0.215891444094E+03   -0.53624E+00   -0.62441E+00  5760   0.130E+02 0.276E+01
 gam= 0.927 trial= 0.120  step= 0.081 mean= 0.120
 gam= 0.894 g(H,U,f)=  0.584E+01 0.554E+01 0.233E+00 ort(H,U,f) = 0.351E+01-0.988E+00 0.932E-01
CGA:  57    -0.216462435471E+03   -0.57099E+00   -0.63368E+00  5760   0.116E+02 0.261E+01
 gam= 0.894 trial= 0.118  step= 0.083 mean= 0.118
 gam= 0.000 g(H,U,f)=  0.437E+01 0.506E+01 0.121E+00 ort(H,U,f) = 0.191E+01 0.610E-01 0.197E+00
SDA:  58    -0.216992346746E+03   -0.52991E+00   -0.57614E+00  5760   0.955E+01 0.216E+01
 gam= 0.000 trial= 0.116  step= 0.522 mean= 0.116
 gam= 0.890 g(H,U,f)=  0.333E+01 0.507E+01 0.954E-01 ort(H,U,f) =-0.351E+00 0.125E+01-0.442E-01
CGA:  59    -0.219625403512E+03   -0.26331E+01   -0.24935E+01  5760   0.850E+01 0.857E+00
 gam= 0.890 trial= 0.137  step= 0.423 mean= 0.137
 gam= 1.918 g(H,U,f)=  0.296E+01 0.601E+01 0.734E+01 ort(H,U,f) =-0.133E+01 0.110E+01-0.204E+01
CGA:  60    -0.221333268132E+03   -0.17079E+01   -0.19612E+01  5760   0.163E+02-0.228E+01
 gam= 1.918 trial= 0.151  step= 0.148 mean= 0.151
 gam= 0.300 g(H,U,f)=  0.257E+01 0.187E+01 0.447E+00 ort(H,U,f) =-0.308E+01 0.313E+01 0.615E+00
CGA:  61    -0.222215431108E+03   -0.88216E+00   -0.88423E+00  5760   0.489E+01 0.668E+00
 gam= 0.300 trial= 0.151  step= 0.201 mean= 0.151
 gam= 0.326 g(H,U,f)=  0.111E+01 0.482E+00 0.598E-03 ort(H,U,f) = 0.246E+00 0.741E+00-0.257E-02
CGA:  62    -0.222763674306E+03   -0.54824E+00   -0.51189E+00  5760   0.160E+01 0.984E+00
 gam= 0.326 trial= 0.153  step= 0.366 mean= 0.153
 gam= 0.715 g(H,U,f)=  0.632E+00 0.508E+00 0.287E-04 ort(H,U,f) =-0.336E-01 0.226E-01 0.266E-04
CGA:  63    -0.223113569106E+03   -0.34989E+00   -0.35094E+00  5760   0.114E+01-0.109E-01
 gam= 0.715 trial= 0.164  step= 0.393 mean= 0.164
 gam= 0.538 g(H,U,f)=  0.327E+00 0.287E+00 0.635E-04 ort(H,U,f) =-0.178E+00 0.174E+00 0.197E-04
CGA:  64    -0.223336045749E+03   -0.22248E+00   -0.22279E+00  5760   0.614E+00-0.360E-02
 gam= 0.538 trial= 0.176  step= 0.287 mean= 0.176
 gam= 0.568 g(H,U,f)=  0.199E+00 0.150E+00 0.717E-09 ort(H,U,f) =-0.852E-01 0.114E+00 0.214E-08
CGA:  65    -0.223425890407E+03   -0.89845E-01   -0.87953E-01  5760   0.349E+00 0.287E-01
 gam= 0.568 trial= 0.181  step= 0.509 mean= 0.181
 gam= 1.073 g(H,U,f)=  0.215E+00 0.159E+00 0.690E-13 ort(H,U,f) =-0.104E+00 0.101E+00-0.290E-13
CGA:  66    -0.223518572755E+03   -0.92682E-01   -0.93032E-01  5760   0.374E+00-0.345E-02
 gam= 1.073 trial= 0.198  step= 0.476 mean= 0.198
 gam= 1.122 g(H,U,f)=  0.230E+00 0.190E+00 0.197E-09 ort(H,U,f) =-0.119E+00 0.845E-01 0.875E-11
CGA:  67    -0.223602246350E+03   -0.83674E-01   -0.88209E-01  5760   0.420E+00-0.347E-01
 gam= 1.122 trial= 0.211  step= 0.319 mean= 0.211
 gam= 0.719 g(H,U,f)=  0.179E+00 0.122E+00 0.900E-13 ort(H,U,f) =-0.880E-01 0.103E+00 0.302E-13
CGA:  68    -0.223664101256E+03   -0.61855E-01   -0.60820E-01  5760   0.302E+00 0.149E-01
 gam= 0.719 trial= 0.217  step= 0.318 mean= 0.217
 gam= 0.685 g(H,U,f)=  0.138E+00 0.687E-01 0.438E-15 ort(H,U,f) =-0.440E-01 0.599E-01-0.165E-13
CGA:  69    -0.223714888931E+03   -0.50788E-01   -0.49752E-01  5760   0.207E+00 0.159E-01
 gam= 0.685 trial= 0.222  step= 0.439 mean= 0.222
 gam= 0.777 g(H,U,f)=  0.102E+00 0.590E-01 0.125E-15 ort(H,U,f) =-0.207E-01 0.240E-01 0.582E-15
CGA:  70    -0.223763038347E+03   -0.48149E-01   -0.47757E-01  5760   0.161E+00 0.323E-02
 gam= 0.777 trial= 0.233  step= 0.321 mean= 0.233
 gam= 0.449 g(H,U,f)=  0.468E-01 0.254E-01 0.235E-15 ort(H,U,f) =-0.214E-01 0.210E-01 0.603E-16
CGA:  71    -0.223789261461E+03   -0.26223E-01   -0.26245E-01  5760   0.722E-01-0.351E-03
 gam= 0.449 trial= 0.237  step= 0.402 mean= 0.237
 gam= 0.933 g(H,U,f)=  0.394E-01 0.281E-01 0.154E-13 ort(H,U,f) =-0.568E-02 0.609E-02 0.293E-13
CGA:  72    -0.223803798190E+03   -0.14537E-01   -0.14499E-01  5760   0.674E-01 0.414E-03
 gam= 0.933 trial= 0.245  step= 0.427 mean= 0.245
 gam= 0.577 g(H,U,f)=  0.233E-01 0.156E-01 0.343E-11 ort(H,U,f) =-0.109E-01 0.112E-01 0.281E-11
CGA:  73    -0.223818310073E+03   -0.14512E-01   -0.14484E-01  5760   0.389E-01 0.248E-03
 gam= 0.577 trial= 0.255  step= 0.343 mean= 0.255
 gam= 0.714 g(H,U,f)=  0.166E-01 0.111E-01 0.461E-11 ort(H,U,f) =-0.589E-02 0.587E-02 0.729E-11
CGA:  74    -0.223824993991E+03   -0.66839E-02   -0.66850E-02  5760   0.278E-01-0.239E-04
 gam= 0.714 trial= 0.259  step= 0.538 mean= 0.259
 gam= 1.046 g(H,U,f)=  0.172E-01 0.118E-01 0.143E-17 ort(H,U,f) =-0.727E-02 0.725E-02 0.316E-17
CGA:  75    -0.223832453279E+03   -0.74593E-02   -0.74630E-02  5760   0.290E-01-0.209E-04
 gam= 1.046 trial= 0.273  step= 0.368 mean= 0.273
 gam= 0.660 g(H,U,f)=  0.126E-01 0.659E-02 0.123E-16 ort(H,U,f) =-0.837E-02 0.836E-02-0.737E-17
CGA:  76    -0.223837788699E+03   -0.53354E-02   -0.53372E-02  5760   0.192E-01-0.165E-04
 gam= 0.660 trial= 0.278  step= 0.494 mean= 0.278
 gam= 1.145 g(H,U,f)=  0.131E-01 0.881E-02 0.817E-17 ort(H,U,f) =-0.494E-02 0.497E-02-0.393E-16
CGA:  77    -0.223842527393E+03   -0.47387E-02   -0.47344E-02  5760   0.219E-01 0.319E-04
 gam= 1.145 trial= 0.288  step= 0.448 mean= 0.288
 gam= 0.799 g(H,U,f)=  0.113E-01 0.624E-02 0.263E-14 ort(H,U,f) =-0.590E-02 0.585E-02-0.841E-14
CGA:  78    -0.223847451235E+03   -0.49238E-02   -0.49284E-02  5760   0.175E-01-0.509E-04
 gam= 0.799 trial= 0.296  step= 0.437 mean= 0.296
 gam= 0.874 g(H,U,f)=  0.861E-02 0.672E-02 0.554E-15 ort(H,U,f) =-0.333E-02 0.328E-02-0.585E-15
CGA:  79    -0.223851265035E+03   -0.38138E-02   -0.38185E-02  5760   0.153E-01-0.520E-04
 gam= 0.874 trial= 0.303  step= 0.417 mean= 0.303
 gam= 0.815 g(H,U,f)=  0.722E-02 0.527E-02 0.402E-14 ort(H,U,f) =-0.404E-02 0.405E-02 0.161E-14
CGA:  80    -0.223854455363E+03   -0.31903E-02   -0.31898E-02  5760   0.125E-01 0.767E-05
 gam= 0.815 trial= 0.309  step= 0.540 mean= 0.309
 gam= 1.364 g(H,U,f)=  0.933E-02 0.771E-02 0.142E-13 ort(H,U,f) =-0.386E-02 0.385E-02 0.249E-13
CGA:  81    -0.223857830350E+03   -0.33750E-02   -0.33753E-02  5760   0.170E-01-0.641E-05
 gam= 1.364 trial= 0.321  step= 0.483 mean= 0.321
 gam= 0.957 g(H,U,f)=  0.105E-01 0.584E-02 0.246E-14 ort(H,U,f) =-0.681E-02 0.677E-02 0.219E-13
CGA:  82    -0.223861941642E+03   -0.41113E-02   -0.41148E-02  5760   0.163E-01-0.389E-04
 gam= 0.957 trial= 0.329  step= 0.501 mean= 0.329
 gam= 1.268 g(H,U,f)=  0.126E-01 0.806E-02 0.226E-15 ort(H,U,f) =-0.609E-02 0.604E-02-0.201E-14
CGA:  83    -0.223866011947E+03   -0.40703E-02   -0.40756E-02  5760   0.207E-01-0.505E-04
 gam= 1.268 trial= 0.337  step= 0.562 mean= 0.337
 gam= 1.229 g(H,U,f)=  0.161E-01 0.927E-02 0.493E-15 ort(H,U,f) =-0.780E-02 0.771E-02-0.202E-15
CGA:  84    -0.223871788716E+03   -0.57768E-02   -0.57870E-02  5760   0.254E-01-0.823E-04
 gam= 1.229 trial= 0.349  step= 0.427 mean= 0.349
 gam= 0.839 g(H,U,f)=  0.138E-01 0.747E-02 0.698E-15 ort(H,U,f) =-0.776E-02 0.776E-02-0.552E-15
CGA:  85    -0.223877185453E+03   -0.53967E-02   -0.53966E-02  5760   0.213E-01-0.374E-05
 gam= 0.839 trial= 0.353  step= 0.513 mean= 0.353
 gam= 1.172 g(H,U,f)=  0.143E-01 0.107E-01 0.358E-14 ort(H,U,f) =-0.549E-02 0.547E-02-0.245E-14
CGA:  86    -0.223882649814E+03   -0.54644E-02   -0.54673E-02  5760   0.250E-01-0.282E-04
 gam= 1.172 trial= 0.361  step= 0.425 mean= 0.361
 gam= 0.762 g(H,U,f)=  0.125E-01 0.648E-02 0.109E-13 ort(H,U,f) =-0.688E-02 0.686E-02 0.159E-13
CGA:  87    -0.223887953184E+03   -0.53034E-02   -0.53045E-02  5760   0.190E-01-0.143E-04
 gam= 0.762 trial= 0.364  step= 0.483 mean= 0.364
 gam= 1.106 g(H,U,f)=  0.121E-01 0.894E-02 0.137E-14 ort(H,U,f) =-0.404E-02 0.406E-02 0.437E-14
CGA:  88    -0.223892542405E+03   -0.45892E-02   -0.45881E-02  5760   0.210E-01 0.199E-04
 gam= 1.106 trial= 0.370  step= 0.447 mean= 0.370
 gam= 0.000 g(H,U,f)=  0.106E-01 0.648E-02 0.142E-13 ort(H,U,f) =-0.582E-02 0.583E-02-0.165E-13
SDA:  89    -0.223897249651E+03   -0.47072E-02   -0.47070E-02  5760   0.171E-01 0.931E-05
 gam= 0.000 trial= 0.374  step= 0.446 mean= 0.374
 gam= 0.515 g(H,U,f)=  0.364E-02 0.517E-02 0.122E-13 ort(H,U,f) = 0.346E-03-0.361E-03-0.103E-13
CGA:  90    -0.223901064976E+03   -0.38153E-02   -0.38161E-02  5760   0.881E-02-0.149E-04
 gam= 0.515 trial= 0.377  step= 0.656 mean= 0.377
 gam= 0.604 g(H,U,f)=  0.254E-02 0.278E-02 0.781E-14 ort(H,U,f) =-0.196E-02 0.197E-02 0.191E-13
CGA:  91    -0.223903953369E+03   -0.28884E-02   -0.28870E-02  5760   0.532E-02 0.998E-05
 gam= 0.604 trial= 0.391  step= 0.747 mean= 0.391
 gam= 1.036 g(H,U,f)=  0.237E-02 0.314E-02 0.570E-14 ort(H,U,f) =-0.118E-02 0.117E-02 0.465E-13
CGA:  92    -0.223905940558E+03   -0.19872E-02   -0.19891E-02  5760   0.552E-02-0.105E-04
 gam= 1.036 trial= 0.409  step= 0.546 mean= 0.409
 gam= 0.742 g(H,U,f)=  0.205E-02 0.204E-02 0.996E-14 ort(H,U,f) =-0.981E-03 0.978E-03-0.297E-13
CGA:  93    -0.223907441613E+03   -0.15011E-02   -0.15013E-02  5760   0.409E-02-0.282E-05
 gam= 0.742 trial= 0.416  step= 0.676 mean= 0.416
 gam= 0.622 g(H,U,f)=  0.124E-02 0.131E-02 0.231E-16 ort(H,U,f) =-0.703E-03 0.702E-03-0.314E-15
CGA:  94    -0.223908825330E+03   -0.13837E-02   -0.13839E-02  5760   0.255E-02-0.772E-06
 gam= 0.622 trial= 0.429  step= 0.900 mean= 0.429
 gam= 1.143 g(H,U,f)=  0.134E-02 0.157E-02 0.708E-15 ort(H,U,f) =-0.587E-03 0.592E-03-0.694E-15
CGA:  95    -0.223909972449E+03   -0.11471E-02   -0.11459E-02  5760   0.291E-02 0.524E-05
 gam= 1.143 trial= 0.452  step= 1.111 mean= 0.452
 gam= 1.469 g(H,U,f)=  0.198E-02 0.230E-02 0.566E-16 ort(H,U,f) =-0.107E-02 0.106E-02-0.883E-17
CGA:  96    -0.223911589125E+03   -0.16167E-02   -0.16207E-02  5760   0.428E-02-0.123E-04
 gam= 1.469 trial= 0.485  step= 0.731 mean= 0.485
 gam= 1.170 g(H,U,f)=  0.262E-02 0.239E-02 0.776E-13 ort(H,U,f) =-0.134E-02 0.135E-02 0.136E-12
CGA:  97    -0.223913145990E+03   -0.15569E-02   -0.15566E-02  5760   0.501E-02 0.331E-05
 gam= 1.170 trial= 0.498  step= 1.019 mean= 0.498
 gam= 1.280 g(H,U,f)=  0.302E-02 0.338E-02 0.797E-13 ort(H,U,f) =-0.119E-02 0.114E-02-0.111E-12
CGA:  98    -0.223915686088E+03   -0.25401E-02   -0.25521E-02  5760   0.641E-02-0.467E-04
 gam= 1.280 trial= 0.524  step= 0.579 mean= 0.524
 gam= 0.685 g(H,U,f)=  0.258E-02 0.181E-02 0.268E-13 ort(H,U,f) =-0.102E-02 0.995E-03-0.418E-13
CGA:  99    -0.223917523176E+03   -0.18371E-02   -0.18378E-02  5760   0.439E-02-0.209E-04
 gam= 0.685 trial= 0.526  step= 0.943 mean= 0.526
 gam= 0.941 g(H,U,f)=  0.190E-02 0.222E-02 0.178E-12 ort(H,U,f) =-0.800E-03 0.777E-03-0.236E-13
CGA: 100    -0.223919580384E+03   -0.20572E-02   -0.20623E-02  5760   0.413E-02-0.234E-04
 gam= 0.941 trial= 0.547  step= 0.711 mean= 0.547
 gam= 0.984 g(H,U,f)=  0.193E-02 0.214E-02 0.212E-16 ort(H,U,f) =-0.100E-02 0.993E-03-0.615E-17
CGA: 101    -0.223921037913E+03   -0.14575E-02   -0.14585E-02  5760   0.406E-02-0.796E-05
 gam= 0.984 trial= 0.555  step= 1.051 mean= 0.555
 gam= 1.415 g(H,U,f)=  0.266E-02 0.308E-02 0.251E-17 ort(H,U,f) =-0.149E-02 0.146E-02-0.374E-17
CGA: 102    -0.223923160898E+03   -0.21230E-02   -0.21295E-02  5760   0.575E-02-0.260E-04
 gam= 1.415 trial= 0.580  step= 0.687 mean= 0.580
 gam= 1.221 g(H,U,f)=  0.340E-02 0.362E-02 0.433E-16 ort(H,U,f) =-0.163E-02 0.162E-02 0.598E-17
CGA: 103    -0.223925121469E+03   -0.19606E-02   -0.19613E-02  5760   0.702E-02-0.635E-05
 gam= 1.221 trial= 0.586  step= 0.847 mean= 0.586
 gam= 0.982 g(H,U,f)=  0.381E-02 0.307E-02 0.562E-14 ort(H,U,f) =-0.186E-02 0.182E-02-0.413E-14
CGA: 104    -0.223928080778E+03   -0.29593E-02   -0.29665E-02  5760   0.689E-02-0.433E-04
 gam= 0.982 trial= 0.599  step= 0.679 mean= 0.599
 gam= 0.840 g(H,U,f)=  0.316E-02 0.263E-02 0.540E-15 ort(H,U,f) =-0.997E-03 0.965E-03-0.448E-15
CGA: 105    -0.223930400778E+03   -0.23200E-02   -0.23218E-02  5760   0.579E-02-0.318E-04
 gam= 0.840 trial= 0.603  step= 0.865 mean= 0.603
 gam= 0.512 g(H,U,f)=  0.172E-02 0.125E-02 0.363E-14 ort(H,U,f) =-0.724E-03 0.726E-03 0.171E-14
CGA: 106    -0.223932890636E+03   -0.24899E-02   -0.24895E-02  5760   0.296E-02 0.281E-05
 gam= 0.512 trial= 0.616  step= 0.823 mean= 0.616
 gam= 1.042 g(H,U,f)=  0.132E-02 0.177E-02 0.369E-15 ort(H,U,f) =-0.241E-03 0.234E-03-0.940E-15
CGA: 107    -0.223934109657E+03   -0.12190E-02   -0.12199E-02  5760   0.309E-02-0.712E-05
 gam= 1.042 trial= 0.626  step= 0.538 mean= 0.626
 gam= 0.596 g(H,U,f)=  0.892E-03 0.948E-03 0.513E-15 ort(H,U,f) =-0.461E-03 0.459E-03-0.106E-14
CGA: 108    -0.223934938990E+03   -0.82933E-03   -0.82952E-03  5760   0.184E-02-0.221E-05
 gam= 0.596 trial= 0.622  step= 0.757 mean= 0.622
 gam= 0.958 g(H,U,f)=  0.751E-03 0.101E-02 0.261E-18 ort(H,U,f) =-0.343E-03 0.343E-03 0.785E-18
CGA: 109    -0.223935634605E+03   -0.69561E-03   -0.69561E-03  5760   0.176E-02-0.208E-06
 gam= 0.958 trial= 0.628  step= 0.677 mean= 0.628
 gam= 0.891 g(H,U,f)=  0.787E-03 0.784E-03 0.879E-18 ort(H,U,f) =-0.417E-03 0.414E-03-0.265E-17
CGA: 110    -0.223936231062E+03   -0.59646E-03   -0.59654E-03  5760   0.157E-02-0.312E-05
 gam= 0.891 trial= 0.631  step= 0.940 mean= 0.631
 gam= 0.992 g(H,U,f)=  0.743E-03 0.815E-03 0.909E-18 ort(H,U,f) =-0.419E-03 0.424E-03-0.455E-18
CGA: 111    -0.223936969114E+03   -0.73805E-03   -0.73714E-03  5760   0.156E-02 0.502E-05
 gam= 0.992 trial= 0.646  step= 0.782 mean= 0.646
 gam= 1.100 g(H,U,f)=  0.783E-03 0.931E-03 0.145E-17 ort(H,U,f) =-0.383E-03 0.388E-03-0.144E-17
CGA: 112    -0.223937580694E+03   -0.61158E-03   -0.61124E-03  5760   0.171E-02 0.526E-05
 gam= 1.100 trial= 0.653  step= 0.730 mean= 0.653
 gam= 1.103 g(H,U,f)=  0.753E-03 0.114E-02 0.169E-17 ort(H,U,f) =-0.340E-03 0.340E-03 0.751E-18
CGA: 113    -0.223938208390E+03   -0.62770E-03   -0.62776E-03  5760   0.189E-02-0.395E-06
 gam= 1.103 trial= 0.657  step= 0.624 mean= 0.657
 gam= 0.623 g(H,U,f)=  0.659E-03 0.518E-03 0.334E-18 ort(H,U,f) =-0.422E-03 0.426E-03 0.108E-17
CGA: 114    -0.223938797436E+03   -0.58905E-03   -0.58914E-03  5760   0.118E-02 0.436E-05
 gam= 0.623 trial= 0.655  step= 1.106 mean= 0.655
 gam= 1.223 g(H,U,f)=  0.682E-03 0.758E-03 0.706E-17 ort(H,U,f) =-0.191E-03 0.193E-03-0.699E-17
CGA: 115    -0.223939450469E+03   -0.65303E-03   -0.65283E-03  5760   0.144E-02 0.120E-05
 gam= 1.223 trial= 0.678  step= 0.719 mean= 0.678
 gam= 0.749 g(H,U,f)=  0.556E-03 0.522E-03 0.491E-17 ort(H,U,f) =-0.271E-03 0.266E-03-0.447E-17
CGA: 116    -0.223939968748E+03   -0.51828E-03   -0.51837E-03  5760   0.108E-02-0.467E-05
 gam= 0.749 trial= 0.680  step= 0.911 mean= 0.680
 gam= 1.083 g(H,U,f)=  0.546E-03 0.622E-03 0.107E-16 ort(H,U,f) =-0.248E-03 0.246E-03 0.826E-18
CGA: 117    -0.223940457953E+03   -0.48920E-03   -0.48949E-03  5760   0.117E-02-0.216E-05
 gam= 1.083 trial= 0.691  step= 0.850 mean= 0.691
 gam= 0.976 g(H,U,f)=  0.568E-03 0.572E-03 0.114E-16 ort(H,U,f) =-0.336E-03 0.334E-03-0.258E-17
CGA: 118    -0.223940953138E+03   -0.49519E-03   -0.49543E-03  5760   0.114E-02-0.211E-05
 gam= 0.976 trial= 0.699  step= 0.814 mean= 0.699
 gam= 1.226 g(H,U,f)=  0.618E-03 0.780E-03 0.485E-17 ort(H,U,f) =-0.279E-03 0.277E-03 0.156E-17
CGA: 119    -0.223941416361E+03   -0.46322E-03   -0.46329E-03  5760   0.140E-02-0.259E-05
 gam= 1.226 trial= 0.705  step= 0.677 mean= 0.705
 gam= 0.000 g(H,U,f)=  0.612E-03 0.716E-03 0.105E-17 ort(H,U,f) =-0.301E-03 0.301E-03-0.416E-17
SDA: 120    -0.223941888588E+03   -0.47223E-03   -0.47222E-03  5760   0.133E-02-0.177E-06
 gam= 0.000 trial= 0.704  step= 0.431 mean= 0.704
 gam= 0.680 g(H,U,f)=  0.266E-03 0.638E-03 0.425E-18 ort(H,U,f) = 0.125E-03-0.121E-03 0.314E-18
CGA: 121    -0.223942174381E+03   -0.28579E-03   -0.28644E-03  5760   0.903E-03 0.402E-05
 gam= 0.680 trial= 0.690  step= 0.782 mean= 0.690
 gam= 0.972 g(H,U,f)=  0.330E-03 0.548E-03 0.416E-17 ort(H,U,f) =-0.184E-03 0.186E-03 0.844E-18
CGA: 122    -0.223942528823E+03   -0.35444E-03   -0.35436E-03  5760   0.878E-03 0.191E-05
 gam= 0.972 trial= 0.695  step= 0.871 mean= 0.695
 gam= 1.047 g(H,U,f)=  0.435E-03 0.484E-03 0.108E-16 ort(H,U,f) =-0.272E-03 0.272E-03-0.837E-17
CGA: 123    -0.223942911992E+03   -0.38317E-03   -0.38317E-03  5760   0.919E-03-0.171E-06
 gam= 1.047 trial= 0.704  step= 0.801 mean= 0.704
 gam= 1.053 g(H,U,f)=  0.489E-03 0.479E-03 0.251E-16 ort(H,U,f) =-0.294E-03 0.298E-03-0.624E-17
CGA: 124    -0.223943280265E+03   -0.36827E-03   -0.36810E-03  5760   0.968E-03 0.378E-05
 gam= 1.053 trial= 0.708  step= 0.949 mean= 0.708
 gam= 1.328 g(H,U,f)=  0.576E-03 0.710E-03 0.522E-16 ort(H,U,f) =-0.269E-03 0.270E-03-0.282E-16
CGA: 125    -0.223943741593E+03   -0.46133E-03   -0.46120E-03  5760   0.129E-02 0.877E-06
 gam= 1.328 trial= 0.720  step= 0.802 mean= 0.720
 gam= 1.062 g(H,U,f)=  0.633E-03 0.732E-03 0.378E-16 ort(H,U,f) =-0.335E-03 0.332E-03 0.127E-16
CGA: 126    -0.223944257913E+03   -0.51632E-03   -0.51641E-03  5760   0.137E-02-0.284E-05
 gam= 1.062 trial= 0.725  step= 0.757 mean= 0.725
 gam= 1.103 g(H,U,f)=  0.691E-03 0.816E-03 0.307E-16 ort(H,U,f) =-0.246E-03 0.244E-03-0.417E-16
CGA: 127    -0.223944773535E+03   -0.51562E-03   -0.51566E-03  5760   0.151E-02-0.122E-05
 gam= 1.103 trial= 0.726  step= 0.898 mean= 0.726
 gam= 0.793 g(H,U,f)=  0.670E-03 0.525E-03 0.508E-17 ort(H,U,f) =-0.321E-03 0.320E-03 0.514E-17
CGA: 128    -0.223945448911E+03   -0.67538E-03   -0.67546E-03  5760   0.119E-02-0.646E-06
 gam= 0.793 trial= 0.735  step= 0.868 mean= 0.735
 gam= 0.939 g(H,U,f)=  0.576E-03 0.546E-03 0.107E-16 ort(H,U,f) =-0.184E-03 0.176E-03-0.104E-16
CGA: 129    -0.223945966853E+03   -0.51794E-03   -0.51839E-03  5760   0.112E-02-0.732E-05
 gam= 0.939 trial= 0.741  step= 0.847 mean= 0.741
 gam= 0.787 g(H,U,f)=  0.434E-03 0.449E-03 0.297E-16 ort(H,U,f) =-0.202E-03 0.204E-03-0.464E-17
CGA: 130    -0.223946438897E+03   -0.47204E-03   -0.47198E-03  5760   0.883E-03 0.288E-05
 gam= 0.787 trial= 0.747  step= 0.754 mean= 0.747
 gam= 1.106 g(H,U,f)=  0.368E-03 0.609E-03 0.581E-17 ort(H,U,f) =-0.134E-03 0.136E-03-0.939E-17
CGA: 131    -0.223946772756E+03   -0.33386E-03   -0.33385E-03  5760   0.977E-03 0.115E-05
 gam= 1.106 trial= 0.747  step= 0.678 mean= 0.747
 gam= 0.909 g(H,U,f)=  0.382E-03 0.506E-03 0.960E-16 ort(H,U,f) =-0.250E-03 0.248E-03-0.593E-16
CGA: 132    -0.223947104566E+03   -0.33181E-03   -0.33172E-03  5760   0.888E-03-0.235E-05
 gam= 0.909 trial= 0.744  step= 0.822 mean= 0.744
 gam= 1.238 g(H,U,f)=  0.493E-03 0.607E-03 0.838E-16 ort(H,U,f) =-0.257E-03 0.260E-03-0.335E-16
CGA: 133    -0.223947468663E+03   -0.36410E-03   -0.36403E-03  5760   0.110E-02 0.293E-05
 gam= 1.238 trial= 0.747  step= 0.977 mean= 0.747
 gam= 1.081 g(H,U,f)=  0.660E-03 0.528E-03 0.505E-15 ort(H,U,f) =-0.403E-03 0.409E-03-0.206E-15
CGA: 134    -0.223948008171E+03   -0.53951E-03   -0.53870E-03  5760   0.119E-02 0.596E-05
 gam= 1.081 trial= 0.759  step= 1.120 mean= 0.759
 gam= 1.641 g(H,U,f)=  0.101E-02 0.946E-03 0.287E-14 ort(H,U,f) =-0.370E-03 0.363E-03-0.799E-15
CGA: 135    -0.223948676176E+03   -0.66801E-03   -0.66919E-03  5760   0.195E-02-0.686E-05
 gam= 1.641 trial= 0.777  step= 0.993 mean= 0.777
 gam= 1.043 g(H,U,f)=  0.121E-02 0.822E-03 0.189E-14 ort(H,U,f) =-0.628E-03 0.640E-03-0.183E-14
CGA: 136    -0.223949640781E+03   -0.96461E-03   -0.96309E-03  5760   0.203E-02 0.118E-04
 gam= 1.043 trial= 0.788  step= 1.179 mean= 0.788
 gam= 1.657 g(H,U,f)=  0.151E-02 0.186E-02 0.111E-14 ort(H,U,f) =-0.533E-03 0.533E-03-0.155E-16
CGA: 137    -0.223950848111E+03   -0.12073E-02   -0.12066E-02  5760   0.337E-02 0.415E-06
 gam= 1.657 trial= 0.807  step= 0.662 mean= 0.807
 gam= 1.057 g(H,U,f)=  0.163E-02 0.193E-02 0.306E-15 ort(H,U,f) =-0.901E-03 0.877E-03-0.632E-15
CGA: 138    -0.223951970204E+03   -0.11221E-02   -0.11168E-02  5760   0.356E-02-0.241E-04
 gam= 1.057 trial= 0.800  step= 0.930 mean= 0.800
 gam= 1.346 g(H,U,f)=  0.206E-02 0.273E-02 0.284E-14 ort(H,U,f) =-0.114E-02 0.103E-02-0.296E-14
CGA: 139    -0.223953604782E+03   -0.16346E-02   -0.16457E-02  5760   0.480E-02-0.111E-03
 gam= 1.346 trial= 0.807  step= 0.806 mean= 0.807
 gam= 1.079 g(H,U,f)=  0.268E-02 0.250E-02 0.101E-13 ort(H,U,f) =-0.205E-02 0.192E-02 0.481E-14
CGA: 140    -0.223955478668E+03   -0.18739E-02   -0.18738E-02  5760   0.518E-02-0.125E-03
 gam= 1.079 trial= 0.807  step= 0.958 mean= 0.807
 gam= 1.650 g(H,U,f)=  0.360E-02 0.494E-02 0.784E-13 ort(H,U,f) =-0.217E-02 0.169E-02-0.140E-12
CGA: 141    -0.223957839448E+03   -0.23608E-02   -0.24146E-02  5760   0.854E-02-0.480E-03
 gam= 1.650 trial= 0.814  step= 0.500 mean= 0.814
 gam= 1.047 g(H,U,f)=  0.355E-02 0.539E-02 0.252E-11 ort(H,U,f) =-0.311E-02 0.325E-02-0.380E-11
CGA: 142    -0.223959936600E+03   -0.20972E-02   -0.19360E-02  5760   0.894E-02 0.142E-03
 gam= 1.047 trial= 0.798  step= 0.453 mean= 0.798
 gam= 1.203 g(H,U,f)=  0.387E-02 0.689E-02 0.591E-11 ort(H,U,f) =-0.318E-02 0.338E-02-0.701E-11
CGA: 143    -0.223962114483E+03   -0.21779E-02   -0.20592E-02  5760   0.108E-01 0.193E-03
 gam= 1.203 trial= 0.781  step= 0.433 mean= 0.781
 gam= 1.321 g(H,U,f)=  0.503E-02 0.919E-02 0.837E-11 ort(H,U,f) =-0.382E-02 0.410E-02-0.970E-11
CGA: 144    -0.223964641610E+03   -0.25271E-02   -0.23796E-02  5760   0.142E-01 0.281E-03
 gam= 1.321 trial= 0.764  step= 0.322 mean= 0.764
 gam= 1.029 g(H,U,f)=  0.487E-02 0.976E-02 0.127E-13 ort(H,U,f) =-0.448E-02 0.551E-02 0.965E-14
CGA: 145    -0.223967244776E+03   -0.26032E-02   -0.23485E-02  5760   0.146E-01 0.103E-02
 gam= 1.029 trial= 0.742  step= 0.260 mean= 0.742
 gam= 0.951 g(H,U,f)=  0.443E-02 0.947E-02 0.518E-15 ort(H,U,f) =-0.419E-02 0.532E-02 0.612E-14
CGA: 146    -0.223969484081E+03   -0.22393E-02   -0.20408E-02  5760   0.139E-01 0.113E-02
 gam= 0.951 trial= 0.718  step= 0.275 mean= 0.718
 gam= 1.214 g(H,U,f)=  0.506E-02 0.118E-01 0.101E-14 ort(H,U,f) =-0.368E-02 0.446E-02-0.402E-14
CGA: 147    -0.223971696316E+03   -0.22122E-02   -0.20616E-02  5760   0.169E-01 0.780E-03
 gam= 1.214 trial= 0.695  step= 0.247 mean= 0.695
 gam= 1.096 g(H,U,f)=  0.556E-02 0.130E-01 0.191E-15 ort(H,U,f) =-0.379E-02 0.491E-02-0.282E-15
CGA: 148    -0.223974077619E+03   -0.23813E-02   -0.21987E-02  5760   0.185E-01 0.111E-02
 gam= 1.096 trial= 0.673  step= 0.204 mean= 0.673
 gam= 0.878 g(H,U,f)=  0.515E-02 0.111E-01 0.201E-15 ort(H,U,f) =-0.290E-02 0.399E-02 0.365E-15
CGA: 149    -0.223976235130E+03   -0.21575E-02   -0.20180E-02  5760   0.163E-01 0.109E-02
 gam= 0.878 trial= 0.650  step= 0.201 mean= 0.650
 gam= 0.932 g(H,U,f)=  0.495E-02 0.102E-01 0.209E-15 ort(H,U,f) =-0.117E-02 0.168E-02 0.338E-15
CGA: 150    -0.223978034017E+03   -0.17989E-02   -0.17324E-02  5760   0.152E-01 0.514E-03
 gam= 0.932 trial= 0.627  step= 0.205 mean= 0.627
 gam= 0.000 g(H,U,f)=  0.523E-02 0.102E-01 0.882E-16 ort(H,U,f) = 0.357E-03-0.211E-04 0.172E-15
SDA: 151    -0.223979684179E+03   -0.16502E-02   -0.16041E-02  5760   0.154E-01 0.336E-03
 gam= 0.000 trial= 0.606  step= 1.264 mean= 0.606
 gam= 2.439 g(H,U,f)=  0.104E-01 0.273E-01 0.697E-17 ort(H,U,f) =-0.834E-03 0.746E-03-0.324E-17
CGA: 152    -0.223989404848E+03   -0.97207E-02   -0.97483E-02  5760   0.376E-01-0.880E-04
 gam= 2.439 trial= 0.639  step= 0.609 mean= 0.639
 gam= 0.496 g(H,U,f)=  0.842E-02 0.103E-01 0.132E-14 ort(H,U,f) =-0.327E-02 0.273E-02-0.389E-14
CGA: 153    -0.224000818256E+03   -0.11413E-01   -0.11395E-01  5760   0.187E-01-0.547E-03
 gam= 0.496 trial= 0.637  step= 0.486 mean= 0.637
 gam= 0.366 g(H,U,f)=  0.384E-02 0.299E-02 0.557E-15 ort(H,U,f) = 0.502E-03-0.487E-03-0.323E-15
CGA: 154    -0.224005291909E+03   -0.44737E-02   -0.44745E-02  5760   0.683E-02 0.151E-04
 gam= 0.366 trial= 0.630  step= 0.856 mean= 0.630
 gam= 0.856 g(H,U,f)=  0.218E-02 0.366E-02 0.103E-14 ort(H,U,f) =-0.695E-03 0.688E-03-0.694E-15
CGA: 155    -0.224008217013E+03   -0.29251E-02   -0.29261E-02  5760   0.585E-02-0.745E-05
 gam= 0.856 trial= 0.641  step= 0.722 mean= 0.641
 gam= 1.026 g(H,U,f)=  0.252E-02 0.347E-02 0.144E-14 ort(H,U,f) =-0.144E-02 0.144E-02 0.466E-15
CGA: 156    -0.224010324027E+03   -0.21070E-02   -0.21069E-02  5760   0.600E-02 0.873E-06
 gam= 1.026 trial= 0.645  step= 0.890 mean= 0.645
 gam= 1.537 g(H,U,f)=  0.351E-02 0.571E-02 0.256E-14 ort(H,U,f) =-0.151E-02 0.152E-02-0.152E-14
CGA: 157    -0.224012994942E+03   -0.26709E-02   -0.26695E-02  5760   0.921E-02 0.963E-05
 gam= 1.537 trial= 0.657  step= 0.670 mean= 0.657
 gam= 0.584 g(H,U,f)=  0.355E-02 0.183E-02 0.664E-16 ort(H,U,f) =-0.316E-02 0.314E-02 0.475E-16
CGA: 158    -0.224016085942E+03   -0.30910E-02   -0.30911E-02  5760   0.538E-02-0.154E-04
 gam= 0.584 trial= 0.658  step= 0.990 mean= 0.658
 gam= 1.089 g(H,U,f)=  0.315E-02 0.271E-02 0.109E-15 ort(H,U,f) =-0.105E-02 0.105E-02 0.146E-15
CGA: 159    -0.224018746028E+03   -0.26601E-02   -0.26590E-02  5760   0.586E-02 0.351E-05
 gam= 1.089 trial= 0.675  step= 0.707 mean= 0.675
 gam= 0.801 g(H,U,f)=  0.257E-02 0.213E-02 0.190E-16 ort(H,U,f) =-0.101E-02 0.102E-02 0.132E-15
CGA: 160    -0.224020819932E+03   -0.20739E-02   -0.20738E-02  5760   0.470E-02 0.549E-05
 gam= 0.801 trial= 0.676  step= 0.765 mean= 0.676
 gam= 1.155 g(H,U,f)=  0.223E-02 0.320E-02 0.140E-13 ort(H,U,f) =-0.532E-03 0.530E-03-0.414E-14
CGA: 161    -0.224022617732E+03   -0.17978E-02   -0.17980E-02  5760   0.543E-02-0.184E-05
 gam= 1.155 trial= 0.681  step= 0.673 mean= 0.681
 gam= 0.841 g(H,U,f)=  0.230E-02 0.226E-02 0.512E-15 ort(H,U,f) =-0.120E-02 0.121E-02-0.884E-15
CGA: 162    -0.224024442299E+03   -0.18246E-02   -0.18246E-02  5760   0.456E-02 0.425E-05
 gam= 0.841 trial= 0.680  step= 0.848 mean= 0.680
 gam= 1.062 g(H,U,f)=  0.255E-02 0.230E-02 0.368E-15 ort(H,U,f) =-0.134E-02 0.134E-02-0.151E-15
CGA: 163    -0.224026377137E+03   -0.19348E-02   -0.19355E-02  5760   0.485E-02-0.443E-05
 gam= 1.062 trial= 0.689  step= 0.867 mean= 0.689
 gam= 1.038 g(H,U,f)=  0.273E-02 0.230E-02 0.297E-16 ort(H,U,f) =-0.156E-02 0.155E-02-0.738E-16
CGA: 164    -0.224028475397E+03   -0.20983E-02   -0.21001E-02  5760   0.503E-02-0.130E-04
 gam= 1.038 trial= 0.698  step= 0.859 mean= 0.698
 gam= 1.305 g(H,U,f)=  0.290E-02 0.367E-02 0.169E-15 ort(H,U,f) =-0.119E-02 0.119E-02-0.121E-15
CGA: 165    -0.224030629517E+03   -0.21541E-02   -0.21542E-02  5760   0.656E-02-0.355E-05
 gam= 1.305 trial= 0.706  step= 0.596 mean= 0.706
 gam= 0.753 g(H,U,f)=  0.306E-02 0.188E-02 0.435E-15 ort(H,U,f) =-0.159E-02 0.158E-02 0.755E-17
CGA: 166    -0.224032584302E+03   -0.19548E-02   -0.19541E-02  5760   0.494E-02-0.603E-05
 gam= 0.753 trial= 0.700  step= 0.975 mean= 0.700
 gam= 1.127 g(H,U,f)=  0.298E-02 0.259E-02 0.457E-16 ort(H,U,f) =-0.856E-03 0.829E-03-0.997E-16
CGA: 167    -0.224034985933E+03   -0.24016E-02   -0.24065E-02  5760   0.557E-02-0.269E-04
 gam= 1.127 trial= 0.714  step= 0.711 mean= 0.714
 gam= 0.714 g(H,U,f)=  0.238E-02 0.160E-02 0.447E-15 ort(H,U,f) =-0.107E-02 0.107E-02-0.194E-15
CGA: 168    -0.224036953121E+03   -0.19672E-02   -0.19672E-02  5760   0.398E-02-0.138E-05
 gam= 0.714 trial= 0.714  step= 0.742 mean= 0.714
 gam= 1.166 g(H,U,f)=  0.192E-02 0.272E-02 0.220E-16 ort(H,U,f) =-0.383E-03 0.381E-03 0.521E-16
CGA: 169    -0.224038426919E+03   -0.14738E-02   -0.14739E-02  5760   0.464E-02-0.203E-05
 gam= 1.166 trial= 0.715  step= 0.590 mean= 0.715
 gam= 0.613 g(H,U,f)=  0.154E-02 0.130E-02 0.729E-15 ort(H,U,f) =-0.113E-02 0.114E-02-0.768E-15
CGA: 170    -0.224039795126E+03   -0.13682E-02   -0.13676E-02  5760   0.284E-02 0.461E-05
 gam= 0.613 trial= 0.709  step= 0.752 mean= 0.709
 gam= 1.039 g(H,U,f)=  0.151E-02 0.144E-02 0.235E-16 ort(H,U,f) =-0.607E-03 0.611E-03 0.364E-16
CGA: 171    -0.224040865167E+03   -0.10700E-02   -0.10699E-02  5760   0.295E-02 0.351E-05
 gam= 1.039 trial= 0.711  step= 0.851 mean= 0.711
 gam= 0.768 g(H,U,f)=  0.138E-02 0.883E-03 0.376E-15 ort(H,U,f) =-0.856E-03 0.851E-03-0.302E-15
CGA: 172    -0.224042122005E+03   -0.12568E-02   -0.12576E-02  5760   0.227E-02-0.562E-05
 gam= 0.768 trial= 0.718  step= 0.670 mean= 0.718
 gam= 1.122 g(H,U,f)=  0.119E-02 0.135E-02 0.381E-15 ort(H,U,f) =-0.237E-03 0.242E-03 0.160E-15
CGA: 173    -0.224042879531E+03   -0.75753E-03   -0.75758E-03  5760   0.254E-02 0.505E-05
 gam= 1.122 trial= 0.716  step= 0.626 mean= 0.716
 gam= 0.582 g(H,U,f)=  0.880E-03 0.601E-03 0.436E-15 ort(H,U,f) =-0.469E-03 0.466E-03-0.895E-15
CGA: 174    -0.224043677581E+03   -0.79805E-03   -0.79786E-03  5760   0.148E-02-0.336E-05
 gam= 0.582 trial= 0.711  step= 0.699 mean= 0.711
 gam= 0.879 g(H,U,f)=  0.698E-03 0.604E-03 0.665E-15 ort(H,U,f) =-0.165E-03 0.158E-03-0.104E-15
CGA: 175    -0.224044194266E+03   -0.51669E-03   -0.51664E-03  5760   0.130E-02-0.655E-05
 gam= 0.879 trial= 0.711  step= 0.725 mean= 0.711
 gam= 0.653 g(H,U,f)=  0.450E-03 0.400E-03 0.237E-15 ort(H,U,f) =-0.246E-03 0.248E-03-0.248E-15
CGA: 176    -0.224044664110E+03   -0.46984E-03   -0.46983E-03  5760   0.850E-03 0.230E-05
 gam= 0.653 trial= 0.711  step= 0.595 mean= 0.711
 gam= 0.947 g(H,U,f)=  0.389E-03 0.416E-03 0.764E-18 ort(H,U,f) =-0.973E-04 0.948E-04-0.462E-17
CGA: 177    -0.224044917632E+03   -0.25352E-03   -0.25337E-03  5760   0.805E-03-0.251E-05
 gam= 0.947 trial= 0.706  step= 0.687 mean= 0.706
 gam= 0.712 g(H,U,f)=  0.313E-03 0.261E-03 0.339E-17 ort(H,U,f) =-0.148E-03 0.145E-03 0.859E-17
CGA: 178    -0.224045193289E+03   -0.27566E-03   -0.27563E-03  5760   0.573E-03-0.309E-05
 gam= 0.712 trial= 0.705  step= 0.626 mean= 0.705
 gam= 0.639 g(H,U,f)=  0.221E-03 0.146E-03 0.500E-18 ort(H,U,f) =-0.895E-04 0.931E-04-0.406E-17
CGA: 179    -0.224045371889E+03   -0.17860E-03   -0.17874E-03  5760   0.366E-03 0.364E-05
 gam= 0.639 trial= 0.701  step= 0.872 mean= 0.701
 gam= 0.965 g(H,U,f)=  0.173E-03 0.180E-03 0.374E-15 ort(H,U,f) =-0.653E-04 0.669E-04-0.598E-16
CGA: 180    -0.224045532649E+03   -0.16076E-03   -0.16063E-03  5760   0.353E-03 0.156E-05
 gam= 0.965 trial= 0.709  step= 0.549 mean= 0.709
 gam= 0.850 g(H,U,f)=  0.139E-03 0.162E-03 0.839E-16 ort(H,U,f) =-0.522E-04 0.512E-04-0.128E-15
CGA: 181    -0.224045630046E+03   -0.97397E-04   -0.97330E-04  5760   0.300E-03-0.996E-06
 gam= 0.850 trial= 0.701  step= 0.781 mean= 0.701
 gam= 0.000 g(H,U,f)=  0.142E-03 0.114E-03 0.130E-15 ort(H,U,f) =-0.866E-04 0.860E-04-0.302E-16
SDA: 182    -0.224045746973E+03   -0.11693E-03   -0.11695E-03  5760   0.255E-03-0.563E-06
 gam= 0.000 trial= 0.705  step= 0.557 mean= 0.705
 gam= 0.730 g(H,U,f)=  0.708E-04 0.115E-03 0.250E-16 ort(H,U,f) = 0.128E-04-0.108E-04-0.647E-16
CGA: 183    -0.224045817880E+03   -0.70907E-04   -0.71058E-04  5760   0.186E-03 0.204E-05
 gam= 0.730 trial= 0.698  step= 0.786 mean= 0.698
 gam= 0.862 g(H,U,f)=  0.592E-04 0.101E-03 0.101E-15 ort(H,U,f) =-0.438E-04 0.416E-04-0.473E-16
CGA: 184    -0.224045891526E+03   -0.73647E-04   -0.73743E-04  5760   0.161E-03-0.220E-05
 gam= 0.862 trial= 0.702  step= 0.732 mean= 0.702
 gam= 1.145 g(H,U,f)=  0.781E-04 0.106E-03 0.113E-15 ort(H,U,f) =-0.477E-04 0.462E-04-0.578E-16
CGA: 185    -0.224045949595E+03   -0.58069E-04   -0.58092E-04  5760   0.184E-03-0.152E-05
 gam= 1.145 trial= 0.704  step= 0.827 mean= 0.704
 gam= 1.203 g(H,U,f)=  0.107E-03 0.114E-03 0.109E-15 ort(H,U,f) =-0.640E-04 0.641E-04-0.481E-16
CGA: 186    -0.224046024972E+03   -0.75377E-04   -0.75372E-04  5760   0.221E-03 0.104E-06
 gam= 1.203 trial= 0.710  step= 1.009 mean= 0.710
 gam= 1.237 g(H,U,f)=  0.145E-03 0.129E-03 0.255E-15 ort(H,U,f) =-0.706E-04 0.703E-04-0.694E-16
CGA: 187    -0.224046136633E+03   -0.11166E-03   -0.11171E-03  5760   0.274E-03-0.295E-06
 gam= 1.237 trial= 0.725  step= 0.956 mean= 0.725
 gam= 1.262 g(H,U,f)=  0.156E-03 0.189E-03 0.572E-16 ort(H,U,f) =-0.592E-04 0.585E-04-0.994E-16
CGA: 188    -0.224046267261E+03   -0.13063E-03   -0.13071E-03  5760   0.345E-03-0.729E-06
 gam= 1.262 trial= 0.736  step= 0.724 mean= 0.736
 gam= 0.976 g(H,U,f)=  0.146E-03 0.191E-03 0.147E-15 ort(H,U,f) =-0.525E-04 0.547E-04-0.124E-15
CGA: 189    -0.224046391897E+03   -0.12464E-03   -0.12465E-03  5760   0.337E-03 0.225E-05
 gam= 0.976 trial= 0.736  step= 0.739 mean= 0.736
 gam= 0.834 g(H,U,f)=  0.127E-03 0.154E-03 0.280E-16 ort(H,U,f) =-0.577E-04 0.589E-04 0.112E-16
CGA: 190    -0.224046517201E+03   -0.12530E-03   -0.12530E-03  5760   0.281E-03 0.114E-05
 gam= 0.834 trial= 0.736  step= 0.639 mean= 0.736
 gam= 0.684 g(H,U,f)=  0.101E-03 0.916E-04 0.504E-18 ort(H,U,f) =-0.437E-04 0.415E-04-0.474E-17
CGA: 191    -0.224046607356E+03   -0.90155E-04   -0.90055E-04  5760   0.192E-03-0.223E-05
 gam= 0.684 trial= 0.731  step= 0.889 mean= 0.731
 gam= 0.669 g(H,U,f)=  0.691E-04 0.596E-04 0.782E-16 ort(H,U,f) =-0.301E-04 0.311E-04-0.334E-16
CGA: 192    -0.224046692232E+03   -0.84877E-04   -0.84801E-04  5760   0.129E-03 0.962E-06
 gam= 0.669 trial= 0.739  step= 0.753 mean= 0.739
 gam= 0.683 g(H,U,f)=  0.445E-04 0.435E-04 0.171E-16 ort(H,U,f) =-0.138E-04 0.133E-04-0.282E-16
CGA: 193    -0.224046740917E+03   -0.48684E-04   -0.48688E-04  5760   0.879E-04-0.566E-06
 gam= 0.683 trial= 0.740  step= 0.960 mean= 0.740
 gam= 0.781 g(H,U,f)=  0.343E-04 0.344E-04 0.535E-17 ort(H,U,f) =-0.184E-04 0.172E-04-0.124E-17
CGA: 194    -0.224046782788E+03   -0.41871E-04   -0.42005E-04  5760   0.687E-04-0.122E-05
 gam= 0.781 trial= 0.751  step= 0.697 mean= 0.751
 gam= 1.018 g(H,U,f)=  0.292E-04 0.407E-04 0.981E-16 ort(H,U,f) =-0.994E-05 0.107E-04 0.183E-16
CGA: 195    -0.224046806364E+03   -0.23576E-04   -0.23597E-04  5760   0.699E-04 0.789E-06
 gam= 1.018 trial= 0.748  step= 0.763 mean= 0.748
 gam= 0.901 g(H,U,f)=  0.263E-04 0.367E-04 0.146E-15 ort(H,U,f) =-0.152E-04 0.152E-04-0.123E-15
CGA: 196    -0.224046833348E+03   -0.26984E-04   -0.26984E-04  5760   0.630E-04 0.588E-07
 gam= 0.901 trial= 0.749  step= 0.585 mean= 0.749
 gam= 0.831 g(H,U,f)=  0.253E-04 0.270E-04 0.115E-16 ort(H,U,f) =-0.110E-04 0.104E-04 0.100E-16
CGA: 197    -0.224046851827E+03   -0.18480E-04   -0.18433E-04  5760   0.524E-04-0.560E-06
 gam= 0.831 trial= 0.741  step= 0.862 mean= 0.741
 gam= 0.619 g(H,U,f)=  0.194E-04 0.130E-04 0.417E-16 ort(H,U,f) =-0.111E-04 0.121E-04-0.409E-16
CGA: 198    -0.224046874257E+03   -0.22430E-04   -0.22367E-04  5760   0.324E-04 0.104E-05
 gam= 0.619 trial= 0.747  step= 0.872 mean= 0.747
 gam= 0.865 g(H,U,f)=  0.143E-04 0.137E-04 0.105E-17 ort(H,U,f) =-0.506E-05 0.528E-05 0.252E-17
CGA: 199    -0.224046888684E+03   -0.14427E-04   -0.14413E-04  5760   0.280E-04 0.220E-06
 gam= 0.865 trial= 0.753  step= 0.805 mean= 0.753
 gam= 0.723 g(H,U,f)=  0.111E-04 0.917E-05 0.112E-16 ort(H,U,f) =-0.575E-05 0.513E-05-0.102E-16
CGA: 200    -0.224046900028E+03   -0.11344E-04   -0.11360E-04  5760   0.203E-04-0.618E-06
 gam= 0.723 trial= 0.755  step= 0.898 mean= 0.755
 gam= 0.862 g(H,U,f)=  0.891E-05 0.858E-05 0.376E-17 ort(H,U,f) =-0.427E-05 0.481E-05 0.227E-17
CGA: 201    -0.224046908968E+03   -0.89397E-05   -0.89011E-05  5760   0.175E-04 0.541E-06
 gam= 0.862 trial= 0.763  step= 0.886 mean= 0.763
 gam= 1.064 g(H,U,f)=  0.969E-05 0.892E-05 0.174E-16 ort(H,U,f) =-0.491E-05 0.435E-05-0.129E-16
CGA: 202    -0.224046916889E+03   -0.79213E-05   -0.79557E-05  5760   0.186E-04-0.557E-06
 gam= 1.064 trial= 0.769  step= 1.084 mean= 0.769
 gam= 0.938 g(H,U,f)=  0.101E-04 0.736E-05 0.343E-18 ort(H,U,f) =-0.508E-05 0.496E-05 0.515E-18
CGA: 203    -0.224046926636E+03   -0.97470E-05   -0.97659E-05  5760   0.175E-04-0.120E-06
 gam= 0.938 trial= 0.785  step= 0.706 mean= 0.785
 gam= 0.934 g(H,U,f)=  0.806E-05 0.826E-05 0.582E-17 ort(H,U,f) =-0.240E-05 0.271E-05 0.337E-17
CGA: 204    -0.224046932752E+03   -0.61157E-05   -0.61278E-05  5760   0.163E-04 0.312E-06
 gam= 0.934 trial= 0.781  step= 0.684 mean= 0.781
 gam= 0.728 g(H,U,f)=  0.576E-05 0.612E-05 0.214E-16 ort(H,U,f) =-0.231E-05 0.224E-05-0.165E-16
CGA: 205    -0.224046938432E+03   -0.56805E-05   -0.56774E-05  5760   0.119E-04-0.642E-07
 gam= 0.728 trial= 0.776  step= 0.544 mean= 0.776
 gam= 0.733 g(H,U,f)=  0.432E-05 0.439E-05 0.610E-20 ort(H,U,f) =-0.115E-05 0.117E-05-0.160E-18
CGA: 206    -0.224046941650E+03   -0.32177E-05   -0.32197E-05  5760   0.870E-05 0.173E-07
 gam= 0.733 trial= 0.764  step= 0.704 mean= 0.764
 gam= 0.537 g(H,U,f)=  0.264E-05 0.203E-05 0.341E-17 ort(H,U,f) =-0.160E-05 0.188E-05-0.267E-17
CGA: 207    -0.224046944710E+03   -0.30602E-05   -0.30687E-05  5760   0.467E-05 0.284E-06
 gam= 0.537 trial= 0.761  step= 1.095 mean= 0.761
 gam= 1.473 g(H,U,f)=  0.271E-05 0.416E-05 0.136E-18 ort(H,U,f) =-0.114E-05 0.942E-06 0.385E-18
CGA: 208    -0.224046947316E+03   -0.26064E-05   -0.26401E-05  5760   0.688E-05-0.202E-06
 gam= 1.473 trial= 0.778  step= 0.627 mean= 0.778
 gam= 0.816 g(H,U,f)=  0.288E-05 0.273E-05 0.209E-17 ort(H,U,f) =-0.205E-05 0.232E-05-0.270E-17
CGA: 209    -0.224046949360E+03   -0.20435E-05   -0.20639E-05  5760   0.562E-05 0.271E-06
 gam= 0.816 trial= 0.770  step= 0.826 mean= 0.770
 gam= 1.351 g(H,U,f)=  0.344E-05 0.414E-05 0.366E-20 ort(H,U,f) =-0.132E-05 0.143E-05 0.476E-20
CGA: 210    -0.224046951773E+03   -0.24129E-05   -0.24100E-05  5760   0.759E-05 0.104E-06
 gam= 1.351 trial= 0.773  step= 0.987 mean= 0.773
 gam= 0.829 g(H,U,f)=  0.406E-05 0.223E-05 0.201E-18 ort(H,U,f) =-0.280E-05 0.255E-05-0.763E-19
CGA: 211    -0.224046955559E+03   -0.37865E-05   -0.38129E-05  5760   0.629E-05-0.248E-06
 gam= 0.829 trial= 0.784  step= 0.763 mean= 0.784
 gam= 0.951 g(H,U,f)=  0.349E-05 0.249E-05 0.117E-17 ort(H,U,f) =-0.946E-06 0.125E-05-0.334E-18
CGA: 212    -0.224046957879E+03   -0.23195E-05   -0.23226E-05  5760   0.598E-05 0.304E-06
 gam= 0.951 trial= 0.783  step= 0.843 mean= 0.783
 gam= 0.000 g(H,U,f)=  0.248E-05 0.265E-05 0.151E-17 ort(H,U,f) =-0.101E-05 0.958E-06 0.963E-18
SDA: 213    -0.224046960523E+03   -0.26439E-05   -0.26455E-05  5760   0.512E-05-0.516E-07
 gam= 0.000 trial= 0.786  step= 0.375 mean= 0.786
 gam= 0.526 g(H,U,f)=  0.101E-05 0.169E-05 0.206E-17 ort(H,U,f) = 0.678E-06-0.671E-06-0.175E-17
CGA: 214    -0.224046961483E+03   -0.95999E-06   -0.96141E-06  5760   0.269E-05 0.683E-08
 gam= 0.526 trial= 0.765  step= 0.708 mean= 0.765
 final diagonalization
   1 F= -.23376495E+03 E0= -.23376495E+03  d E =-.555845E-14  mag=     6.0000
