 running on   64 total cores
 distrk:  each k-point on   64 cores,    1 groups
 distr:  one band on    4 cores,   16 groups
 using from now: INCAR     
 vasp.5.4.4.18Apr17-6-g9f103f2a35 (build Nov 22 2021 14:44:17) complex          
  
 POSCAR found type information on POSCAR  Li Co O 
 POSCAR found :  3 types and      42 ions
 scaLAPACK will be used
 LDA part: xc-table for Pade appr. of Perdew
 generate k-points for:    6    6    2
 POSCAR, INCAR and KPOINTS ok, starting setup
 FFT: planning ...
 WAVECAR not read
 entering main loop
       N       E                     dE             d eps       ncg     rms          ort
DAV:   1     0.349974726926E+04    0.34997E+04   -0.13960E+05  5760   0.219E+03
DAV:   2     0.401695885886E+03   -0.30981E+04   -0.28496E+04  5760   0.536E+02
DAV:   3    -0.222734067470E+03   -0.62443E+03   -0.57174E+03  5760   0.255E+02
DAV:   4    -0.271506851458E+03   -0.48773E+02   -0.47757E+02  5760   0.733E+01
DAV:   5    -0.273153796282E+03   -0.16469E+01   -0.16441E+01  5760   0.135E+01
 gam= 0.000 g(H,U,f)=  0.178E+04 0.830E+03 0.756E+03 ort(H,U,f) = 0.000E+00 0.000E+00 0.000E+00
SDA:   6     0.992848831098E+02    0.37244E+03   -0.16441E+01  5760   0.337E+04 0.000E+00
 gam= 0.000 trial= 0.400  step= 0.060 mean= 0.400
 gam= 1.347 g(H,U,f)=  0.106E+04 0.154E+04 0.193E+04 ort(H,U,f) = 0.121E+04 0.417E+02-0.813E+03
CGA:   7     0.159560468581E+02   -0.83329E+02   -0.10165E+03  5760   0.454E+04 0.443E+03
 gam= 1.347 trial= 0.383  step= 0.072 mean= 0.383
 gam= 0.000 g(H,U,f)=  0.501E+03 0.255E+04 0.313E+04 ort(H,U,f) = 0.122E+04 0.985E+03 0.865E+02
CGA:   8    -0.696729042775E+02   -0.85629E+02   -0.18442E+03  5760   0.618E+04 0.229E+04
 gam= 0.000 trial= 0.367  step= 0.071 mean= 0.367
 gam= 0.300 g(H,U,f)=  0.268E+03 0.639E+03 0.946E+03 ort(H,U,f) = 0.314E+02-0.274E+03-0.771E+03
CGA:   9    -0.141502895425E+03   -0.71830E+02   -0.21891E+03  5760   0.185E+04-0.101E+04
 gam= 0.300 trial= 0.353  step= 0.143 mean= 0.353
 gam= 2.771 g(H,U,f)=  0.214E+03 0.210E+04 0.282E+04 ort(H,U,f) =-0.261E+02-0.453E+02 0.267E+02
CGA:  10    -0.136666840335E+03    0.48361E+01   -0.11047E+03  5760   0.513E+04-0.447E+02
 gam= 2.771 trial= 0.342  step= 0.040 mean= 0.342
 gam= 0.000 g(H,U,f)=  0.370E+03 0.210E+04 0.173E+04 ort(H,U,f) =-0.286E+03-0.222E+04-0.212E+04
CGA:  11    -0.102556145211E+03    0.34111E+02   -0.10091E+03  5760   0.420E+04-0.462E+04
 gam= 0.000 trial= 0.327  step= 0.050 mean= 0.327
 gam= 0.086 g(H,U,f)=  0.149E+03 0.186E+03 0.245E+02 ort(H,U,f) = 0.319E+02-0.203E+03 0.170E+02
CGA:  12    -0.180664678651E+03   -0.78109E+02   -0.10411E+03  5760   0.360E+03-0.155E+03
 gam= 0.086 trial= 0.313  step= 0.052 mean= 0.313
 gam= 0.441 g(H,U,f)=  0.744E+02 0.662E+02 0.182E+02 ort(H,U,f) = 0.988E+02 0.526E+02-0.145E+01
CGA:  13    -0.198330122260E+03   -0.17665E+02   -0.89462E+01  5760   0.159E+03 0.150E+03
 gam= 0.441 trial= 0.300  step= 0.042 mean= 0.300
 gam= 1.638 g(H,U,f)=  0.508E+02 0.189E+03 0.198E+02 ort(H,U,f) = 0.802E+02-0.141E+03-0.143E+02
CGA:  14    -0.201125625238E+03   -0.27955E+01   -0.47247E+01  5760   0.260E+03-0.753E+02
 gam= 1.638 trial= 0.287  step= 0.026 mean= 0.287
 gam= 1.821 g(H,U,f)=  0.490E+02 0.373E+03 0.515E+02 ort(H,U,f) = 0.135E+03-0.149E+03-0.209E+02
CGA:  15    -0.198717350530E+03    0.24083E+01   -0.17589E+01  5760   0.474E+03-0.354E+02
 gam= 1.821 trial= 0.274  step= 0.027 mean= 0.274
 gam= 0.718 g(H,U,f)=  0.835E+02 0.217E+03 0.399E+02 ort(H,U,f) = 0.177E+03-0.906E+02-0.153E+02
CGA:  16    -0.180797863753E+03    0.17919E+02   -0.56049E+01  5760   0.340E+03 0.715E+02
 gam= 0.718 trial= 0.262  step= 0.054 mean= 0.262
 gam= 1.641 g(H,U,f)=  0.140E+03 0.345E+03 0.740E+02 ort(H,U,f) = 0.481E+02-0.206E+03 0.715E+02
CGA:  17    -0.179585337425E+03    0.12125E+01   -0.10548E+02  5760   0.558E+03-0.866E+02
 gam= 1.641 trial= 0.251  step= 0.039 mean= 0.251
 gam= 1.653 g(H,U,f)=  0.256E+03 0.559E+03 0.108E+03 ort(H,U,f) =-0.110E+03-0.177E+02 0.729E+02
CGA:  18    -0.144897138521E+03    0.34688E+02   -0.81348E+01  5760   0.923E+03-0.545E+02
 gam= 1.653 trial= 0.241  step= 0.048 mean= 0.241
 gam= 0.877 g(H,U,f)=  0.368E+03 0.383E+03 0.583E+02 ort(H,U,f) =-0.393E+03 0.295E+03 0.597E+02
CGA:  19    -0.116140048293E+03    0.28757E+02   -0.19840E+02  5760   0.809E+03-0.379E+02
 gam= 0.877 trial= 0.231  step= 0.055 mean= 0.231
 gam= 0.977 g(H,U,f)=  0.377E+03 0.329E+03 0.840E+02 ort(H,U,f) =-0.235E+03 0.210E+03-0.120E+02
CGA:  20    -0.128539296911E+03   -0.12399E+02   -0.21480E+02  5760   0.790E+03-0.370E+02
 gam= 0.977 trial= 0.222  step= 0.059 mean= 0.222
 gam= 0.709 g(H,U,f)=  0.275E+03 0.232E+03 0.535E+02 ort(H,U,f) =-0.122E+03 0.189E+03-0.114E+02
CGA:  21    -0.140861801310E+03   -0.12323E+02   -0.22412E+02  5760   0.560E+03 0.559E+02
 gam= 0.709 trial= 0.214  step= 0.062 mean= 0.214
 gam= 0.477 g(H,U,f)=  0.187E+03 0.748E+02 0.520E+01 ort(H,U,f) =-0.278E+02-0.648E+02 0.153E+01
CGA:  22    -0.149996178183E+03   -0.91344E+01   -0.18596E+02  5760   0.267E+03-0.911E+02
 gam= 0.477 trial= 0.207  step= 0.078 mean= 0.207
 gam= 0.716 g(H,U,f)=  0.120E+03 0.645E+02 0.728E+01 ort(H,U,f) = 0.388E+02-0.319E+02-0.781E+01
CGA:  23    -0.156802433758E+03   -0.68063E+01   -0.87710E+01  5760   0.191E+03-0.926E+00
 gam= 0.716 trial= 0.200  step= 0.107 mean= 0.200
 gam= 0.941 g(H,U,f)=  0.103E+03 0.736E+02 0.319E+01 ort(H,U,f) = 0.166E+02-0.365E+01 0.301E+00
CGA:  24    -0.165812462902E+03   -0.90100E+01   -0.10180E+02  5760   0.180E+03 0.132E+02
 gam= 0.941 trial= 0.195  step= 0.128 mean= 0.195
 gam= 1.144 g(H,U,f)=  0.951E+02 0.105E+03 0.605E+01 ort(H,U,f) = 0.108E+02 0.822E+01-0.252E+01
CGA:  25    -0.178387836962E+03   -0.12575E+02   -0.12359E+02  5760   0.206E+03 0.165E+02
 gam= 1.144 trial= 0.192  step= 0.118 mean= 0.192
 gam= 0.419 g(H,U,f)=  0.583E+02 0.262E+02 0.169E+01 ort(H,U,f) =-0.144E+02 0.183E+02 0.215E+01
CGA:  26    -0.191068597846E+03   -0.12681E+02   -0.13250E+02  5760   0.862E+02 0.605E+01
 gam= 0.419 trial= 0.188  step= 0.112 mean= 0.188
 gam= 0.717 g(H,U,f)=  0.417E+02 0.171E+02 0.312E+01 ort(H,U,f) = 0.170E+02-0.139E+02-0.307E+01
CGA:  27    -0.195646310775E+03   -0.45777E+01   -0.49859E+01  5760   0.619E+02 0.147E-01
 gam= 0.717 trial= 0.185  step= 0.170 mean= 0.185
 gam= 0.947 g(H,U,f)=  0.326E+02 0.251E+02 0.803E+00 ort(H,U,f) = 0.147E+02-0.132E+02-0.700E+00
CGA:  28    -0.200921880651E+03   -0.52756E+01   -0.52651E+01  5760   0.586E+02 0.742E+00
 gam= 0.947 trial= 0.184  step= 0.168 mean= 0.184
 gam= 0.637 g(H,U,f)=  0.222E+02 0.139E+02 0.119E+01 ort(H,U,f) = 0.125E+01 0.502E+00 0.694E+00
CGA:  29    -0.205865580944E+03   -0.49437E+01   -0.49650E+01  5760   0.373E+02 0.244E+01
 gam= 0.637 trial= 0.183  step= 0.124 mean= 0.183
 gam= 0.812 g(H,U,f)=  0.164E+02 0.123E+02 0.155E+01 ort(H,U,f) = 0.298E+01-0.131E+01-0.156E+01
CGA:  30    -0.208166494976E+03   -0.23009E+01   -0.24160E+01  5760   0.303E+02 0.101E+00
 gam= 0.812 trial= 0.180  step= 0.132 mean= 0.180
 gam= 0.653 g(H,U,f)=  0.128E+02 0.646E+01 0.584E+00 ort(H,U,f) = 0.158E+01-0.157E+01-0.132E+00
CGA:  31    -0.210202507340E+03   -0.20360E+01   -0.20123E+01  5760   0.198E+02-0.122E+00
 gam= 0.653 trial= 0.178  step= 0.204 mean= 0.178
 gam= 0.769 g(H,U,f)=  0.101E+02 0.463E+01 0.520E+00 ort(H,U,f) =-0.160E+01 0.124E+01 0.102E+01
CGA:  32    -0.212214273173E+03   -0.20118E+01   -0.20147E+01  5760   0.152E+02 0.650E+00
 gam= 0.769 trial= 0.179  step= 0.198 mean= 0.179
 gam= 0.955 g(H,U,f)=  0.819E+01 0.584E+01 0.499E+00 ort(H,U,f) =-0.177E+01 0.173E+01 0.717E+00
CGA:  33    -0.213781822876E+03   -0.15675E+01   -0.15598E+01  5760   0.145E+02 0.676E+00
 gam= 0.955 trial= 0.180  step= 0.162 mean= 0.180
 gam= 1.027 g(H,U,f)=  0.765E+01 0.654E+01 0.727E+00 ort(H,U,f) =-0.188E+01 0.283E+01-0.185E+01
CGA:  34    -0.215003080278E+03   -0.12213E+01   -0.12320E+01  5760   0.149E+02-0.904E+00
 gam= 1.027 trial= 0.179  step= 0.128 mean= 0.179
 gam= 0.748 g(H,U,f)=  0.702E+01 0.353E+01 0.598E+00 ort(H,U,f) =-0.271E+01 0.163E+01 0.245E+01
CGA:  35    -0.216087495070E+03   -0.10844E+01   -0.89477E+00  5760   0.111E+02 0.137E+01
 gam= 0.748 trial= 0.177  step= 0.114 mean= 0.177
 gam= 1.473 g(H,U,f)=  0.687E+01 0.811E+01 0.144E+01 ort(H,U,f) = 0.379E+00 0.440E+00 0.205E+01
CGA:  36    -0.216732757303E+03   -0.64526E+00   -0.69513E+00  5760   0.164E+02 0.287E+01
 gam= 1.473 trial= 0.173  step= 0.049 mean= 0.173
 gam= 0.898 g(H,U,f)=  0.655E+01 0.746E+01 0.733E+00 ort(H,U,f) = 0.233E+01-0.606E+01-0.212E+01
CGA:  37    -0.217050283843E+03   -0.31753E+00   -0.50397E+00  5760   0.147E+02-0.586E+01
 gam= 0.898 trial= 0.167  step= 0.057 mean= 0.167
 gam= 1.251 g(H,U,f)=  0.575E+01 0.109E+02 0.180E+01 ort(H,U,f) = 0.329E+01-0.247E+01-0.406E+00
CGA:  38    -0.217355530893E+03   -0.30525E+00   -0.27210E+00  5760   0.184E+02 0.416E+00
 gam= 1.251 trial= 0.162  step= 0.028 mean= 0.162
 gam= 0.541 g(H,U,f)=  0.470E+01 0.499E+01 0.301E+00 ort(H,U,f) = 0.539E+01-0.201E+00 0.506E+00
CGA:  39    -0.217724091698E+03   -0.36856E+00   -0.26497E+00  5760   0.998E+01 0.569E+01
 gam= 0.541 trial= 0.155  step= 0.033 mean= 0.155
 gam= 0.769 g(H,U,f)=  0.386E+01 0.320E+01 0.611E+00 ort(H,U,f) = 0.507E+01-0.174E+01 0.100E+01
CGA:  40    -0.217975202975E+03   -0.25111E+00   -0.21323E+00  5760   0.768E+01 0.433E+01
 gam= 0.769 trial= 0.149  step= 0.040 mean= 0.149
 gam= 1.132 g(H,U,f)=  0.330E+01 0.415E+01 0.124E+01 ort(H,U,f) = 0.480E+01-0.380E+01-0.364E+00
CGA:  41    -0.218175957628E+03   -0.20075E+00   -0.22086E+00  5760   0.869E+01 0.635E+00
 gam= 1.132 trial= 0.144  step= 0.034 mean= 0.144
 gam= 0.000 g(H,U,f)=  0.315E+01 0.463E+01 0.838E+00 ort(H,U,f) = 0.480E+01-0.512E+01 0.605E-01
SDA:  42    -0.218299435493E+03   -0.12348E+00   -0.16045E+00  5760   0.862E+01-0.261E+00
 gam= 0.000 trial= 0.138  step= 0.098 mean= 0.138
 gam= 0.663 g(H,U,f)=  0.186E+01 0.301E+01 0.844E+00 ort(H,U,f) = 0.186E+01-0.106E+01-0.751E+00
CGA:  43    -0.218716133615E+03   -0.41670E+00   -0.42418E+00  5760   0.571E+01 0.498E-01
 gam= 0.663 trial= 0.136  step= 0.175 mean= 0.136
 gam= 1.051 g(H,U,f)=  0.136E+01 0.396E+01 0.686E+00 ort(H,U,f) = 0.117E+01-0.961E+00-0.263E+00
CGA:  44    -0.219217483677E+03   -0.50135E+00   -0.50216E+00  5760   0.600E+01-0.550E-01
 gam= 1.051 trial= 0.138  step= 0.202 mean= 0.138
 gam= 0.729 g(H,U,f)=  0.879E+00 0.285E+01 0.650E+00 ort(H,U,f) = 0.147E+00 0.658E+00-0.101E+00
CGA:  45    -0.219848995644E+03   -0.63151E+00   -0.60064E+00  5760   0.438E+01 0.704E+00
 gam= 0.729 trial= 0.141  step= 0.111 mean= 0.141
 gam= 0.388 g(H,U,f)=  0.500E+00 0.104E+01 0.154E+00 ort(H,U,f) =-0.160E+00 0.424E+00-0.218E+00
CGA:  46    -0.220116511321E+03   -0.26752E+00   -0.27062E+00  5760   0.170E+01 0.459E-01
 gam= 0.388 trial= 0.140  step= 0.240 mean= 0.140
 gam= 0.784 g(H,U,f)=  0.331E+00 0.863E+00 0.135E+00 ort(H,U,f) =-0.243E+00 0.315E+00-0.228E-01
CGA:  47    -0.220325359083E+03   -0.20885E+00   -0.20588E+00  5760   0.133E+01 0.495E-01
 gam= 0.784 trial= 0.145  step= 0.192 mean= 0.145
 gam= 1.286 g(H,U,f)=  0.465E+00 0.889E+00 0.355E+00 ort(H,U,f) =-0.166E+00 0.363E+00-0.168E+00
CGA:  48    -0.220457542720E+03   -0.13218E+00   -0.13131E+00  5760   0.171E+01 0.283E-01
 gam= 1.286 trial= 0.147  step= 0.231 mean= 0.147
 gam= 1.072 g(H,U,f)=  0.574E+00 0.106E+01 0.200E+00 ort(H,U,f) =-0.311E+00 0.446E+00-0.174E-01
CGA:  49    -0.220664896810E+03   -0.20735E+00   -0.20157E+00  5760   0.183E+01 0.118E+00
 gam= 1.072 trial= 0.151  step= 0.144 mean= 0.151
 gam= 1.059 g(H,U,f)=  0.348E+00 0.109E+01 0.507E+00 ort(H,U,f) =-0.161E+00 0.475E+00-0.478E+00
CGA:  50    -0.220807311584E+03   -0.14241E+00   -0.14114E+00  5760   0.194E+01-0.164E+00
 gam= 1.059 trial= 0.151  step= 0.127 mean= 0.151
 gam= 0.526 g(H,U,f)=  0.332E+00 0.642E+00 0.463E-01 ort(H,U,f) =-0.311E+00 0.349E+00-0.342E-01
CGA:  51    -0.220919103309E+03   -0.11179E+00   -0.11195E+00  5760   0.102E+01 0.353E-02
 gam= 0.526 trial= 0.150  step= 0.261 mean= 0.150
 gam= 2.393 g(H,U,f)=  0.371E+00 0.135E+01 0.717E+00 ort(H,U,f) =-0.139E-01 0.184E+00-0.273E-01
CGA:  52    -0.221062153205E+03   -0.14305E+00   -0.13363E+00  5760   0.244E+01 0.143E+00
 gam= 2.393 trial= 0.155  step= 0.124 mean= 0.155
 gam= 0.602 g(H,U,f)=  0.346E+00 0.926E+00 0.197E+00 ort(H,U,f) =-0.244E+00 0.392E+00-0.961E-01
CGA:  53    -0.221233744175E+03   -0.17159E+00   -0.17198E+00  5760   0.147E+01 0.522E-01
 gam= 0.602 trial= 0.154  step= 0.208 mean= 0.154
 gam= 1.246 g(H,U,f)=  0.423E+00 0.101E+01 0.402E+00 ort(H,U,f) =-0.133E+00 0.383E+00-0.189E+00
CGA:  54    -0.221391057474E+03   -0.15731E+00   -0.15573E+00  5760   0.183E+01 0.608E-01
 gam= 1.246 trial= 0.156  step= 0.186 mean= 0.156
 gam= 0.827 g(H,U,f)=  0.414E+00 0.978E+00 0.123E+00 ort(H,U,f) =-0.242E+00 0.154E+00-0.933E-01
CGA:  55    -0.221564001843E+03   -0.17294E+00   -0.17743E+00  5760   0.152E+01-0.181E+00
 gam= 0.827 trial= 0.158  step= 0.176 mean= 0.158
 gam= 1.301 g(H,U,f)=  0.439E+00 0.109E+01 0.446E+00 ort(H,U,f) =-0.172E+00 0.266E+00-0.809E-01
CGA:  56    -0.221684244829E+03   -0.12024E+00   -0.12037E+00  5760   0.197E+01 0.133E-01
 gam= 1.301 trial= 0.159  step= 0.113 mean= 0.159
 gam= 0.634 g(H,U,f)=  0.439E+00 0.720E+00 0.907E-01 ort(H,U,f) =-0.255E+00 0.390E+00-0.108E+00
CGA:  57    -0.221792756099E+03   -0.10851E+00   -0.11193E+00  5760   0.125E+01 0.274E-01
 gam= 0.634 trial= 0.156  step= 0.172 mean= 0.156
 gam= 1.309 g(H,U,f)=  0.418E+00 0.748E+00 0.470E+00 ort(H,U,f) =-0.507E-01 0.396E+00-0.249E+00
CGA:  58    -0.221901044718E+03   -0.10829E+00   -0.10892E+00  5760   0.164E+01 0.957E-01
 gam= 1.309 trial= 0.157  step= 0.114 mean= 0.157
 gam= 0.581 g(H,U,f)=  0.368E+00 0.394E+00 0.188E+00 ort(H,U,f) =-0.815E-01 0.366E+00-0.151E+00
CGA:  59    -0.221995530730E+03   -0.94486E-01   -0.10019E+00  5760   0.950E+00 0.133E+00
 gam= 0.581 trial= 0.155  step= 0.242 mean= 0.155
 gam= 0.778 g(H,U,f)=  0.272E+00 0.266E+00 0.201E+00 ort(H,U,f) =-0.697E-01 0.214E+00-0.197E-02
CGA:  60    -0.222127117110E+03   -0.13159E+00   -0.12429E+00  5760   0.739E+00 0.143E+00
 gam= 0.778 trial= 0.159  step= 0.313 mean= 0.159
 gam= 0.000 g(H,U,f)=  0.368E+00 0.658E+00 0.500E+00 ort(H,U,f) =-0.209E+00-0.798E-01-0.222E+00
CGA:  61    -0.222220590837E+03   -0.93474E-01   -0.13287E+00  5760   0.153E+01-0.511E+00
 gam= 0.000 trial= 0.167  step= 0.100 mean= 0.167
 gam= 0.317 g(H,U,f)=  0.150E+00 0.218E+00 0.115E+00 ort(H,U,f) = 0.137E+00 0.338E-02-0.205E+00
CGA:  62    -0.222281510742E+03   -0.60920E-01   -0.76648E-01  5760   0.483E+00-0.647E-01
 gam= 0.317 trial= 0.164  step= 0.270 mean= 0.164
 gam= 0.600 g(H,U,f)=  0.814E-01 0.146E+00 0.628E-01 ort(H,U,f) = 0.177E-02 0.282E-01-0.367E-01
CGA:  63    -0.222344490772E+03   -0.62980E-01   -0.62373E-01  5760   0.290E+00-0.680E-02
 gam= 0.600 trial= 0.169  step= 0.248 mean= 0.169
 gam= 1.787 g(H,U,f)=  0.894E-01 0.205E+00 0.224E+00 ort(H,U,f) = 0.137E-01 0.738E-01-0.726E-01
CGA:  64    -0.222380930646E+03   -0.36440E-01   -0.35478E-01  5760   0.519E+00 0.149E-01
 gam= 1.787 trial= 0.173  step= 0.160 mean= 0.173
 gam= 0.775 g(H,U,f)=  0.729E-01 0.170E+00 0.160E+00 ort(H,U,f) =-0.853E-01 0.154E+00-0.818E-01
CGA:  65    -0.222424788395E+03   -0.43858E-01   -0.43748E-01  5760   0.402E+00-0.132E-01
 gam= 0.775 trial= 0.172  step= 0.120 mean= 0.172
 gam= 0.543 g(H,U,f)=  0.623E-01 0.993E-01 0.566E-01 ort(H,U,f) =-0.689E-01 0.114E+00-0.525E-01
CGA:  66    -0.222448281185E+03   -0.23493E-01   -0.23438E-01  5760   0.218E+00-0.787E-02
 gam= 0.543 trial= 0.170  step= 0.297 mean= 0.170
 gam= 0.730 g(H,U,f)=  0.509E-01 0.655E-01 0.429E-01 ort(H,U,f) =-0.170E-01 0.729E-01-0.222E-01
CGA:  67    -0.222483342686E+03   -0.35062E-01   -0.31816E-01  5760   0.159E+00 0.337E-01
 gam= 0.730 trial= 0.176  step= 0.183 mean= 0.176
 gam= 1.248 g(H,U,f)=  0.381E-01 0.751E-01 0.857E-01 ort(H,U,f) =-0.208E-02 0.349E-01-0.378E-01
CGA:  68    -0.222500203318E+03   -0.16861E-01   -0.16878E-01  5760   0.199E+00-0.489E-02
 gam= 1.248 trial= 0.176  step= 0.209 mean= 0.176
 gam= 1.216 g(H,U,f)=  0.420E-01 0.119E+00 0.811E-01 ort(H,U,f) =-0.135E-01 0.467E-01-0.273E-01
CGA:  69    -0.222520442733E+03   -0.20239E-01   -0.20126E-01  5760   0.242E+00 0.591E-02
 gam= 1.216 trial= 0.178  step= 0.109 mean= 0.178
 gam= 0.389 g(H,U,f)=  0.293E-01 0.469E-01 0.180E-01 ort(H,U,f) =-0.191E-01 0.419E-01-0.269E-01
CGA:  70    -0.222533377900E+03   -0.12935E-01   -0.13594E-01  5760   0.942E-01-0.415E-02
 gam= 0.389 trial= 0.175  step= 0.296 mean= 0.175
 gam= 0.985 g(H,U,f)=  0.255E-01 0.370E-01 0.302E-01 ort(H,U,f) =-0.683E-02 0.120E-01-0.662E-02
CGA:  71    -0.222547132222E+03   -0.13754E-01   -0.13715E-01  5760   0.927E-01-0.142E-02
 gam= 0.985 trial= 0.181  step= 0.151 mean= 0.181
 gam= 0.882 g(H,U,f)=  0.239E-01 0.387E-01 0.191E-01 ort(H,U,f) = 0.414E-02 0.135E-01-0.163E-01
CGA:  72    -0.222553949771E+03   -0.68175E-02   -0.68942E-02  5760   0.817E-01 0.132E-02
 gam= 0.882 trial= 0.179  step= 0.202 mean= 0.179
 gam= 1.581 g(H,U,f)=  0.196E-01 0.580E-01 0.517E-01 ort(H,U,f) =-0.236E-03 0.142E-01-0.146E-01
CGA:  73    -0.222562327721E+03   -0.83780E-02   -0.83805E-02  5760   0.129E+00-0.633E-03
 gam= 1.581 trial= 0.180  step= 0.157 mean= 0.180
 gam= 0.314 g(H,U,f)=  0.157E-01 0.217E-01 0.318E-02 ort(H,U,f) =-0.280E-01 0.332E-01-0.433E-02
CGA:  74    -0.222572333662E+03   -0.10006E-01   -0.10056E-01  5760   0.406E-01 0.907E-03
 gam= 0.314 trial= 0.179  step= 0.459 mean= 0.179
 gam= 2.121 g(H,U,f)=  0.200E-01 0.424E-01 0.236E-01 ort(H,U,f) =-0.555E-02 0.125E-01-0.456E-02
CGA:  75    -0.222582074017E+03   -0.97404E-02   -0.93747E-02  5760   0.861E-01 0.241E-02
 gam= 2.121 trial= 0.193  step= 0.215 mean= 0.193
 gam= 0.815 g(H,U,f)=  0.218E-01 0.311E-01 0.173E-01 ort(H,U,f) =-0.155E-01 0.306E-01-0.154E-01
CGA:  76    -0.222591963446E+03   -0.98894E-02   -0.97908E-02  5760   0.701E-01-0.218E-03
 gam= 0.815 trial= 0.194  step= 0.276 mean= 0.194
 gam= 1.891 g(H,U,f)=  0.200E-01 0.471E-01 0.655E-01 ort(H,U,f) =-0.143E-01 0.104E-01 0.368E-02
CGA:  77    -0.222601600196E+03   -0.96368E-02   -0.96644E-02  5760   0.133E+00-0.272E-03
 gam= 1.891 trial= 0.198  step= 0.110 mean= 0.198
 gam= 0.371 g(H,U,f)=  0.213E-01 0.224E-01 0.559E-02 ort(H,U,f) =-0.199E-01 0.396E-01-0.207E-01
CGA:  78    -0.222608704579E+03   -0.71044E-02   -0.72780E-02  5760   0.492E-01-0.935E-03
 gam= 0.371 trial= 0.194  step= 0.514 mean= 0.194
 gam= 6.354 g(H,U,f)=  0.359E-01 0.819E-01 0.195E+00 ort(H,U,f) =-0.992E-02-0.218E-01 0.723E-02
CGA:  79    -0.222615847206E+03   -0.71426E-02   -0.12560E-01  5760   0.313E+00-0.245E-01
 gam= 6.354 trial= 0.210  step= 0.006 mean= 0.210
 gam= 1.029 g(H,U,f)=  0.392E-01 0.877E-01 0.195E+00 ort(H,U,f) =-0.322E-01-0.779E-01 0.240E+00
CGA:  80    -0.222616032476E+03   -0.18527E-03   -0.50592E-03  5760   0.322E+00 0.130E+00
 gam= 1.029 trial= 0.200  step= 0.033 mean= 0.200
 gam= 0.599 g(H,U,f)=  0.498E-01 0.907E-01 0.526E-01 ort(H,U,f) =-0.234E-02-0.114E-01 0.157E+00
CGA:  81    -0.222621252234E+03   -0.52198E-02   -0.75219E-02  5760   0.193E+00 0.143E+00
 gam= 0.599 trial= 0.191  step= 0.111 mean= 0.191
 gam= 0.000 g(H,U,f)=  0.103E+00 0.177E+00 0.153E+00 ort(H,U,f) = 0.404E-01 0.208E+00 0.112E-02
CGA:  82    -0.222622975391E+03   -0.17232E-02   -0.15429E-01  5760   0.433E+00 0.250E+00
 gam= 0.000 trial= 0.187  step= 0.074 mean= 0.187
 gam= 0.271 g(H,U,f)=  0.268E-01 0.474E-01 0.429E-01 ort(H,U,f) = 0.381E-01 0.637E-01-0.700E-01
CGA:  83    -0.222641033412E+03   -0.18058E-01   -0.16110E-01  5760   0.117E+00 0.318E-01
 gam= 0.271 trial= 0.182  step= 0.194 mean= 0.182
 gam= 0.701 g(H,U,f)=  0.244E-01 0.435E-01 0.143E-01 ort(H,U,f) = 0.391E-03 0.756E-03 0.118E-01
CGA:  84    -0.222653122942E+03   -0.12090E-01   -0.12173E-01  5760   0.821E-01 0.129E-01
 gam= 0.701 trial= 0.182  step= 0.257 mean= 0.182
 gam= 0.891 g(H,U,f)=  0.246E-01 0.391E-01 0.942E-02 ort(H,U,f) =-0.555E-02 0.229E-01 0.161E-01
CGA:  85    -0.222666464087E+03   -0.13341E-01   -0.11716E-01  5760   0.732E-01 0.334E-01
 gam= 0.891 trial= 0.186  step= 0.477 mean= 0.186
 gam= 0.000 g(H,U,f)=  0.113E+00 0.245E+00 0.210E+00 ort(H,U,f) =-0.472E-01-0.434E-01 0.275E-01
CGA:  86    -0.222683963016E+03   -0.17499E-01   -0.24531E-01  5760   0.569E+00-0.631E-01
 gam= 0.000 trial= 0.201  step= 0.100 mean= 0.201
 gam= 0.231 g(H,U,f)=  0.270E-01 0.862E-01 0.183E-01 ort(H,U,f) = 0.234E-01-0.273E-01-0.255E-01
CGA:  87    -0.222708626608E+03   -0.24664E-01   -0.28449E-01  5760   0.131E+00-0.294E-01
 gam= 0.231 trial= 0.196  step= 0.195 mean= 0.196
 gam= 0.817 g(H,U,f)=  0.151E-01 0.495E-01 0.429E-01 ort(H,U,f) =-0.610E-02-0.976E-02 0.931E-02
CGA:  88    -0.222720782552E+03   -0.12156E-01   -0.12142E-01  5760   0.107E+00-0.655E-02
 gam= 0.817 trial= 0.196  step= 0.260 mean= 0.196
 gam= 0.661 g(H,U,f)=  0.220E-01 0.412E-01 0.782E-02 ort(H,U,f) =-0.825E-02 0.147E-01 0.770E-02
CGA:  89    -0.222734628698E+03   -0.13846E-01   -0.13277E-01  5760   0.710E-01 0.141E-01
 gam= 0.661 trial= 0.199  step= 0.161 mean= 0.199
 gam= 0.708 g(H,U,f)=  0.147E-01 0.353E-01 0.297E-03 ort(H,U,f) =-0.129E-02 0.772E-02-0.199E-03
CGA:  90    -0.222741092378E+03   -0.64637E-02   -0.64868E-02  5760   0.503E-01 0.623E-02
 gam= 0.708 trial= 0.197  step= 0.551 mean= 0.197
 gam= 1.568 g(H,U,f)=  0.241E-01 0.501E-01 0.468E-02 ort(H,U,f) =-0.166E-01 0.110E-01 0.399E-02
CGA:  91    -0.222754314113E+03   -0.13222E-01   -0.15070E-01  5760   0.789E-01-0.158E-02
 gam= 1.568 trial= 0.215  step= 0.211 mean= 0.215
 gam= 0.634 g(H,U,f)=  0.297E-01 0.202E-01 0.119E-03 ort(H,U,f) =-0.176E-01 0.278E-01 0.480E-03
CGA:  92    -0.222762328921E+03   -0.80148E-02   -0.80502E-02  5760   0.500E-01 0.107E-01
 gam= 0.634 trial= 0.214  step= 0.329 mean= 0.214
 gam= 1.200 g(H,U,f)=  0.103E-01 0.444E-01 0.524E-02 ort(H,U,f) =-0.316E-02-0.352E-02-0.724E-02
CGA:  93    -0.222770715253E+03   -0.83863E-02   -0.93370E-02  5760   0.600E-01-0.139E-01
 gam= 1.200 trial= 0.220  step= 0.264 mean= 0.220
 gam= 1.169 g(H,U,f)=  0.187E-01 0.461E-01 0.539E-02 ort(H,U,f) =-0.968E-02 0.602E-02-0.314E-02
CGA:  94    -0.222776188727E+03   -0.54735E-02   -0.57220E-02  5760   0.702E-01-0.679E-02
 gam= 1.169 trial= 0.222  step= 0.221 mean= 0.222
 gam= 0.419 g(H,U,f)=  0.160E-01 0.133E-01 0.415E-04 ort(H,U,f) =-0.128E-01 0.973E-02-0.710E-04
CGA:  95    -0.222783072969E+03   -0.68842E-02   -0.68785E-02  5760   0.294E-01-0.318E-02
 gam= 0.419 trial= 0.222  step= 0.394 mean= 0.222
 gam= 1.067 g(H,U,f)=  0.122E-01 0.177E-01 0.147E-02 ort(H,U,f) =-0.617E-03 0.627E-03-0.188E-03
CGA:  96    -0.222788606230E+03   -0.55333E-02   -0.55365E-02  5760   0.314E-01-0.178E-03
 gam= 1.067 trial= 0.231  step= 0.237 mean= 0.231
 gam= 1.030 g(H,U,f)=  0.947E-02 0.222E-01 0.651E-03 ort(H,U,f) =-0.264E-02 0.331E-02-0.786E-04
CGA:  97    -0.222792272144E+03   -0.36659E-02   -0.36926E-02  5760   0.323E-01 0.589E-03
 gam= 1.030 trial= 0.231  step= 0.192 mean= 0.231
 gam= 0.667 g(H,U,f)=  0.831E-02 0.123E-01 0.960E-03 ort(H,U,f) =-0.745E-02 0.816E-02-0.118E-02
CGA:  98    -0.222795455019E+03   -0.31829E-02   -0.31674E-02  5760   0.216E-01-0.474E-03
 gam= 0.667 trial= 0.229  step= 0.783 mean= 0.229
 gam= 1.256 g(H,U,f)=  0.166E-01 0.103E-01 0.136E-03 ort(H,U,f) =-0.983E-02 0.750E-02 0.933E-04
CGA:  99    -0.222803011475E+03   -0.75565E-02   -0.83156E-02  5760   0.271E-01-0.223E-02
 gam= 1.256 trial= 0.257  step= 0.448 mean= 0.257
 gam= 1.038 g(H,U,f)=  0.106E-01 0.159E-01 0.159E-02 ort(H,U,f) =-0.362E-02 0.509E-02-0.828E-03
CGA: 100    -0.222808611955E+03   -0.56005E-02   -0.54339E-02  5760   0.281E-01 0.647E-03
 gam= 1.038 trial= 0.266  step= 0.491 mean= 0.266
 gam= 1.068 g(H,U,f)=  0.104E-01 0.193E-01 0.300E-03 ort(H,U,f) =-0.534E-02 0.541E-02 0.343E-03
CGA: 101    -0.222815267030E+03   -0.66551E-02   -0.70637E-02  5760   0.300E-01 0.411E-03
 gam= 1.068 trial= 0.278  step= 0.212 mean= 0.278
 gam= 1.123 g(H,U,f)=  0.116E-01 0.219E-01 0.163E-03 ort(H,U,f) =-0.119E-02 0.280E-02-0.305E-03
CGA: 102    -0.222818580013E+03   -0.33130E-02   -0.32302E-02  5760   0.337E-01 0.130E-02
 gam= 1.123 trial= 0.274  step= 0.269 mean= 0.274
 gam= 1.189 g(H,U,f)=  0.974E-02 0.297E-01 0.577E-03 ort(H,U,f) =-0.256E-02 0.199E-02-0.740E-03
CGA: 103    -0.222823326359E+03   -0.47463E-02   -0.47254E-02  5760   0.400E-01-0.131E-02
 gam= 1.189 trial= 0.274  step= 0.301 mean= 0.274
 gam= 0.620 g(H,U,f)=  0.117E-01 0.126E-01 0.516E-03 ort(H,U,f) =-0.122E-01 0.113E-01-0.335E-03
CGA: 104    -0.222829082311E+03   -0.57560E-02   -0.57827E-02  5760   0.248E-01-0.125E-02
 gam= 0.620 trial= 0.275  step= 0.510 mean= 0.275
 gam= 1.963 g(H,U,f)=  0.144E-01 0.340E-01 0.328E-03 ort(H,U,f) =-0.572E-02 0.811E-02-0.260E-03
CGA: 105    -0.222835460645E+03   -0.63783E-02   -0.61332E-02  5760   0.487E-01 0.212E-02
 gam= 1.963 trial= 0.287  step= 0.260 mean= 0.287
 gam= 1.452 g(H,U,f)=  0.213E-01 0.485E-01 0.999E-03 ort(H,U,f) =-0.102E-01 0.133E-01-0.808E-03
CGA: 106    -0.222842453463E+03   -0.69928E-02   -0.68723E-02  5760   0.707E-01 0.238E-02
 gam= 1.452 trial= 0.286  step= 0.264 mean= 0.286
 gam= 1.096 g(H,U,f)=  0.271E-01 0.504E-01 0.815E-04 ort(H,U,f) =-0.215E-01 0.206E-01 0.184E-03
CGA: 107    -0.222852345298E+03   -0.98918E-02   -0.98034E-02  5760   0.775E-01-0.652E-03
 gam= 1.096 trial= 0.285  step= 0.312 mean= 0.285
 gam= 0.960 g(H,U,f)=  0.333E-01 0.377E-01 0.345E-02 ort(H,U,f) =-0.248E-01 0.251E-01-0.195E-03
CGA: 108    -0.222864273206E+03   -0.11928E-01   -0.11970E-01  5760   0.744E-01 0.388E-04
 gam= 0.960 trial= 0.286  step= 0.384 mean= 0.286
 gam= 1.260 g(H,U,f)=  0.331E-01 0.593E-01 0.138E-02 ort(H,U,f) =-0.120E-01 0.159E-01 0.230E-02
CGA: 109    -0.222878718323E+03   -0.14445E-01   -0.14282E-01  5760   0.938E-01 0.618E-02
 gam= 1.260 trial= 0.291  step= 0.133 mean= 0.291
 gam= 0.521 g(H,U,f)=  0.264E-01 0.217E-01 0.740E-03 ort(H,U,f) = 0.383E-03 0.212E-01 0.342E-02
CGA: 110    -0.222887970423E+03   -0.92521E-02   -0.67647E-02  5760   0.489E-01 0.250E-01
 gam= 0.521 trial= 0.283  step= 0.284 mean= 0.283
 gam= 1.418 g(H,U,f)=  0.193E-01 0.497E-01 0.266E-03 ort(H,U,f) = 0.397E-02 0.603E-02 0.139E-02
CGA: 111    -0.222896749780E+03   -0.87794E-02   -0.87779E-02  5760   0.693E-01 0.114E-01
 gam= 1.418 trial= 0.283  step= 0.139 mean= 0.283
 gam= 0.753 g(H,U,f)=  0.196E-01 0.323E-01 0.341E-03 ort(H,U,f) =-0.599E-02 0.111E-01 0.283E-02
CGA: 112    -0.222903095474E+03   -0.63457E-02   -0.59310E-02  5760   0.522E-01 0.796E-02
 gam= 0.753 trial= 0.276  step= 0.269 mean= 0.276
 gam= 1.102 g(H,U,f)=  0.205E-01 0.368E-01 0.321E-03 ort(H,U,f) =-0.991E-02 0.122E-01 0.623E-03
CGA: 113    -0.222910912000E+03   -0.78165E-02   -0.78202E-02  5760   0.575E-01 0.291E-02
 gam= 1.102 trial= 0.276  step= 0.162 mean= 0.276
 gam= 0.877 g(H,U,f)=  0.163E-01 0.337E-01 0.438E-03 ort(H,U,f) =-0.876E-02 0.130E-01-0.194E-04
CGA: 114    -0.222916204449E+03   -0.52924E-02   -0.49324E-02  5760   0.505E-01 0.420E-02
 gam= 0.877 trial= 0.270  step= 0.172 mean= 0.270
 gam= 0.650 g(H,U,f)=  0.152E-01 0.176E-01 0.675E-04 ort(H,U,f) =-0.872E-02 0.859E-02 0.753E-05
CGA: 115    -0.222920954481E+03   -0.47500E-02   -0.46639E-02  5760   0.328E-01-0.128E-03
 gam= 0.650 trial= 0.265  step= 0.208 mean= 0.265
 gam= 1.312 g(H,U,f)=  0.152E-01 0.277E-01 0.156E-03 ort(H,U,f) = 0.203E-03 0.423E-02-0.609E-06
CGA: 116    -0.222924387459E+03   -0.34330E-02   -0.34065E-02  5760   0.430E-01 0.443E-02
 gam= 1.312 trial= 0.262  step= 0.212 mean= 0.262
 gam= 0.000 g(H,U,f)=  0.118E-01 0.165E-01 0.140E-04 ort(H,U,f) =-0.590E-02 0.360E-02 0.282E-04
SDA: 117    -0.222929818768E+03   -0.54313E-02   -0.51782E-02  5760   0.284E-01-0.227E-02
 gam= 0.000 trial= 0.260  step= 0.261 mean= 0.260
 gam= 0.638 g(H,U,f)=  0.515E-02 0.129E-01 0.652E-04 ort(H,U,f) = 0.275E-02-0.125E-02-0.158E-04
CGA: 118    -0.222933525991E+03   -0.37072E-02   -0.37089E-02  5760   0.181E-01 0.148E-02
 gam= 0.638 trial= 0.260  step= 0.159 mean= 0.260
 gam= 0.759 g(H,U,f)=  0.383E-02 0.987E-02 0.434E-04 ort(H,U,f) = 0.201E-02-0.239E-03 0.332E-04
CGA: 119    -0.222935300861E+03   -0.17749E-02   -0.15116E-02  5760   0.137E-01 0.180E-02
 gam= 0.759 trial= 0.255  step= 0.394 mean= 0.255
 gam= 1.418 g(H,U,f)=  0.548E-02 0.140E-01 0.391E-04 ort(H,U,f) =-0.965E-03 0.313E-03 0.417E-04
CGA: 120    -0.222938136656E+03   -0.28358E-02   -0.29760E-02  5760   0.195E-01-0.611E-03
 gam= 1.418 trial= 0.262  step= 0.333 mean= 0.262
 gam= 0.472 g(H,U,f)=  0.487E-02 0.428E-02 0.456E-04 ort(H,U,f) =-0.640E-02 0.529E-02 0.824E-04
CGA: 121    -0.222941138264E+03   -0.30016E-02   -0.30982E-02  5760   0.920E-02-0.103E-02
 gam= 0.472 trial= 0.265  step= 0.289 mean= 0.265
 gam= 1.251 g(H,U,f)=  0.387E-02 0.761E-02 0.216E-04 ort(H,U,f) =-0.756E-03 0.132E-02 0.435E-04
CGA: 122    -0.222942388165E+03   -0.12499E-02   -0.12585E-02  5760   0.115E-01 0.604E-03
 gam= 1.251 trial= 0.266  step= 0.159 mean= 0.266
 gam= 0.470 g(H,U,f)=  0.274E-02 0.267E-02 0.348E-05 ort(H,U,f) =-0.349E-03 0.979E-03 0.245E-04
CGA: 123    -0.222943508256E+03   -0.11201E-02   -0.97413E-03  5760   0.541E-02 0.655E-03
 gam= 0.470 trial= 0.261  step= 0.610 mean= 0.261
 gam= 1.574 g(H,U,f)=  0.268E-02 0.579E-02 0.476E-04 ort(H,U,f) =-0.900E-03 0.507E-03-0.431E-05
CGA: 124    -0.222945089774E+03   -0.15815E-02   -0.17450E-02  5760   0.851E-02-0.397E-03
 gam= 1.574 trial= 0.278  step= 0.151 mean= 0.278
 gam= 0.556 g(H,U,f)=  0.216E-02 0.257E-02 0.473E-05 ort(H,U,f) =-0.995E-03 0.172E-02-0.667E-05
CGA: 125    -0.222945802689E+03   -0.71291E-03   -0.59533E-03  5760   0.474E-02 0.722E-03
 gam= 0.556 trial= 0.272  step= 0.363 mean= 0.272
 gam= 1.149 g(H,U,f)=  0.193E-02 0.350E-02 0.967E-05 ort(H,U,f) =-0.516E-03 0.510E-03 0.781E-05
CGA: 126    -0.222946705165E+03   -0.90248E-03   -0.93303E-03  5760   0.544E-02 0.224E-05
 gam= 1.149 trial= 0.277  step= 0.272 mean= 0.277
 gam= 0.698 g(H,U,f)=  0.195E-02 0.185E-02 0.670E-06 ort(H,U,f) =-0.120E-02 0.103E-02 0.148E-05
CGA: 127    -0.222947447376E+03   -0.74221E-03   -0.74036E-03  5760   0.380E-02-0.170E-03
 gam= 0.698 trial= 0.276  step= 0.371 mean= 0.276
 gam= 1.794 g(H,U,f)=  0.202E-02 0.476E-02 0.369E-04 ort(H,U,f) =-0.630E-03 0.813E-03-0.125E-04
CGA: 128    -0.222948106408E+03   -0.65903E-03   -0.68204E-03  5760   0.682E-02 0.171E-03
 gam= 1.794 trial= 0.281  step= 0.203 mean= 0.281
 gam= 0.585 g(H,U,f)=  0.206E-02 0.192E-02 0.465E-05 ort(H,U,f) =-0.218E-02 0.231E-02-0.175E-04
CGA: 129    -0.222948895619E+03   -0.78921E-03   -0.72439E-03  5760   0.398E-02 0.114E-03
 gam= 0.585 trial= 0.277  step= 0.352 mean= 0.277
 gam= 1.431 g(H,U,f)=  0.190E-02 0.379E-02 0.165E-05 ort(H,U,f) =-0.787E-03 0.743E-03-0.551E-05
CGA: 130    -0.222949572543E+03   -0.67692E-03   -0.71329E-03  5760   0.570E-02-0.495E-04
 gam= 1.431 trial= 0.281  step= 0.205 mean= 0.281
 gam= 0.639 g(H,U,f)=  0.184E-02 0.179E-02 0.101E-04 ort(H,U,f) =-0.129E-02 0.138E-02-0.150E-04
CGA: 131    -0.222950184723E+03   -0.61218E-03   -0.57819E-03  5760   0.364E-02 0.805E-04
 gam= 0.639 trial= 0.277  step= 0.389 mean= 0.277
 gam= 1.953 g(H,U,f)=  0.240E-02 0.467E-02 0.433E-04 ort(H,U,f) =-0.331E-03 0.283E-03-0.170E-04
CGA: 132    -0.222950856789E+03   -0.67207E-03   -0.71845E-03  5760   0.711E-02-0.646E-04
 gam= 1.953 trial= 0.283  step= 0.255 mean= 0.283
 gam= 0.542 g(H,U,f)=  0.200E-02 0.185E-02 0.403E-05 ort(H,U,f) =-0.163E-02 0.142E-02-0.732E-05
CGA: 133    -0.222951762216E+03   -0.90543E-03   -0.88972E-03  5760   0.385E-02-0.221E-03
 gam= 0.542 trial= 0.281  step= 0.190 mean= 0.281
 gam= 0.816 g(H,U,f)=  0.148E-02 0.167E-02 0.107E-05 ort(H,U,f) =-0.746E-04 0.372E-03 0.306E-07
CGA: 134    -0.222952146928E+03   -0.38471E-03   -0.35502E-03  5760   0.315E-02 0.298E-03
 gam= 0.816 trial= 0.277  step= 0.381 mean= 0.277
 gam= 1.064 g(H,U,f)=  0.144E-02 0.189E-02 0.143E-04 ort(H,U,f) =-0.656E-03 0.521E-03 0.975E-06
CGA: 135    -0.222952768502E+03   -0.62157E-03   -0.64598E-03  5760   0.335E-02-0.133E-03
 gam= 1.064 trial= 0.282  step= 0.216 mean= 0.282
 gam= 1.033 g(H,U,f)=  0.124E-02 0.220E-02 0.218E-04 ort(H,U,f) =-0.436E-03 0.687E-03-0.122E-04
CGA: 136    -0.222953137629E+03   -0.36913E-03   -0.34547E-03  5760   0.346E-02 0.239E-03
 gam= 1.033 trial= 0.279  step= 0.338 mean= 0.279
 gam= 0.971 g(H,U,f)=  0.130E-02 0.205E-02 0.390E-05 ort(H,U,f) =-0.123E-02 0.109E-02 0.722E-05
CGA: 137    -0.222953749639E+03   -0.61201E-03   -0.62643E-03  5760   0.336E-02-0.132E-03
 gam= 0.971 trial= 0.282  step= 0.221 mean= 0.282
 gam= 0.937 g(H,U,f)=  0.144E-02 0.170E-02 0.221E-05 ort(H,U,f) =-0.806E-03 0.939E-03 0.727E-05
CGA: 138    -0.222954134799E+03   -0.38516E-03   -0.35600E-03  5760   0.315E-02 0.140E-03
 gam= 0.937 trial= 0.279  step= 0.386 mean= 0.279
 gam= 1.535 g(H,U,f)=  0.154E-02 0.320E-02 0.936E-04 ort(H,U,f) =-0.453E-03 0.669E-03-0.305E-04
CGA: 139    -0.222954747099E+03   -0.61230E-03   -0.63217E-03  5760   0.483E-02 0.186E-03
 gam= 1.535 trial= 0.284  step= 0.236 mean= 0.284
 gam= 0.855 g(H,U,f)=  0.181E-02 0.231E-02 0.956E-05 ort(H,U,f) =-0.132E-02 0.133E-02-0.214E-04
CGA: 140    -0.222955381356E+03   -0.63426E-03   -0.60359E-03  5760   0.413E-02-0.156E-04
 gam= 0.855 trial= 0.282  step= 0.268 mean= 0.282
 gam= 0.987 g(H,U,f)=  0.170E-02 0.237E-02 0.938E-06 ort(H,U,f) =-0.740E-03 0.926E-03-0.562E-05
CGA: 141    -0.222955938505E+03   -0.55715E-03   -0.55216E-03  5760   0.407E-02 0.181E-03
 gam= 0.987 trial= 0.281  step= 0.209 mean= 0.281
 gam= 0.564 g(H,U,f)=  0.141E-02 0.888E-03 0.414E-05 ort(H,U,f) =-0.287E-03 0.267E-03-0.917E-05
CGA: 142    -0.222956408573E+03   -0.47007E-03   -0.44362E-03  5760   0.230E-02-0.301E-04
 gam= 0.564 trial= 0.277  step= 0.356 mean= 0.277
 gam= 1.401 g(H,U,f)=  0.101E-02 0.217E-02 0.401E-04 ort(H,U,f) = 0.499E-04 0.570E-06-0.987E-05
CGA: 143    -0.222956804783E+03   -0.39621E-03   -0.40629E-03  5760   0.322E-02 0.406E-04
 gam= 1.401 trial= 0.281  step= 0.193 mean= 0.281
 gam= 0.459 g(H,U,f)=  0.632E-03 0.840E-03 0.410E-05 ort(H,U,f) =-0.901E-04 0.207E-03-0.938E-05
CGA: 144    -0.222957161172E+03   -0.35639E-03   -0.31703E-03  5760   0.148E-02 0.108E-03
 gam= 0.459 trial= 0.277  step= 0.196 mean= 0.277
 gam= 0.773 g(H,U,f)=  0.460E-03 0.681E-03 0.182E-06 ort(H,U,f) = 0.804E-04 0.750E-05-0.542E-06
CGA: 145    -0.222957321984E+03   -0.16081E-03   -0.14952E-03  5760   0.114E-02 0.874E-04
 gam= 0.773 trial= 0.273  step= 0.303 mean= 0.273
 gam= 0.726 g(H,U,f)=  0.369E-03 0.455E-03 0.462E-05 ort(H,U,f) =-0.102E-03 0.685E-04-0.101E-05
CGA: 146    -0.222957502633E+03   -0.18065E-03   -0.18322E-03  5760   0.829E-03-0.342E-04
 gam= 0.726 trial= 0.274  step= 0.276 mean= 0.274
 gam= 1.384 g(H,U,f)=  0.400E-03 0.732E-03 0.151E-04 ort(H,U,f) =-0.231E-04 0.937E-04-0.642E-05
CGA: 147    -0.222957613539E+03   -0.11091E-03   -0.11112E-03  5760   0.115E-02 0.643E-04
 gam= 1.384 trial= 0.274  step= 0.236 mean= 0.274
 gam= 0.000 g(H,U,f)=  0.297E-03 0.397E-03 0.314E-05 ort(H,U,f) =-0.284E-03 0.259E-03 0.180E-05
SDA: 148    -0.222957764214E+03   -0.15068E-03   -0.14610E-03  5760   0.698E-03-0.237E-04
 gam= 0.000 trial= 0.273  step= 0.128 mean= 0.273
 gam= 0.644 g(H,U,f)=  0.185E-03 0.261E-03 0.265E-05 ort(H,U,f) = 0.173E-03-0.400E-04-0.622E-07
CGA: 149    -0.222957817312E+03   -0.53098E-04   -0.44692E-04  5760   0.449E-03 0.133E-03
 gam= 0.644 trial= 0.265  step= 0.344 mean= 0.265
 gam= 0.863 g(H,U,f)=  0.120E-03 0.263E-03 0.522E-05 ort(H,U,f) =-0.289E-04-0.733E-06-0.322E-06
CGA: 150    -0.222957905871E+03   -0.88559E-04   -0.92004E-04  5760   0.388E-03-0.300E-04
 gam= 0.863 trial= 0.269  step= 0.322 mean= 0.269
 gam= 1.128 g(H,U,f)=  0.155E-03 0.277E-03 0.579E-05 ort(H,U,f) =-0.636E-04 0.601E-04-0.441E-05
CGA: 151    -0.222957961866E+03   -0.55995E-04   -0.58378E-04  5760   0.438E-03-0.794E-05
 gam= 1.128 trial= 0.272  step= 0.226 mean= 0.272
 gam= 0.937 g(H,U,f)=  0.145E-03 0.265E-03 0.163E-06 ort(H,U,f) =-0.971E-04 0.121E-03 0.284E-06
CGA: 152    -0.222958011607E+03   -0.49740E-04   -0.48527E-04  5760   0.410E-03 0.240E-04
 gam= 0.937 trial= 0.270  step= 0.248 mean= 0.270
 gam= 0.873 g(H,U,f)=  0.166E-03 0.192E-03 0.725E-07 ort(H,U,f) =-0.102E-03 0.992E-04 0.299E-06
CGA: 153    -0.222958066495E+03   -0.54888E-04   -0.53566E-04  5760   0.358E-03-0.288E-05
 gam= 0.873 trial= 0.269  step= 0.362 mean= 0.269
 gam= 1.266 g(H,U,f)=  0.186E-03 0.261E-03 0.657E-05 ort(H,U,f) =-0.102E-03 0.883E-04 0.850E-06
CGA: 154    -0.222958128203E+03   -0.61708E-04   -0.64429E-04  5760   0.453E-03-0.125E-04
 gam= 1.266 trial= 0.273  step= 0.175 mean= 0.273
 gam= 0.649 g(H,U,f)=  0.151E-03 0.140E-03 0.284E-05 ort(H,U,f) =-0.750E-04 0.114E-03-0.221E-05
CGA: 155    -0.222958171699E+03   -0.43496E-04   -0.38209E-04  5760   0.294E-03 0.371E-04
 gam= 0.649 trial= 0.268  step= 0.484 mean= 0.268
 gam= 1.403 g(H,U,f)=  0.142E-03 0.271E-03 0.109E-06 ort(H,U,f) =-0.545E-04 0.433E-04 0.202E-06
CGA: 156    -0.222958242824E+03   -0.71125E-04   -0.76990E-04  5760   0.413E-03-0.110E-04
 gam= 1.403 trial= 0.279  step= 0.157 mean= 0.279
 gam= 0.585 g(H,U,f)=  0.118E-03 0.122E-03 0.135E-05 ort(H,U,f) =-0.519E-04 0.801E-04-0.136E-05
CGA: 157    -0.222958279652E+03   -0.36828E-04   -0.31212E-04  5760   0.241E-03 0.268E-04
 gam= 0.585 trial= 0.273  step= 0.304 mean= 0.273
 gam= 1.032 g(H,U,f)=  0.896E-04 0.154E-03 0.549E-05 ort(H,U,f) =-0.192E-04 0.195E-04-0.326E-05
CGA: 158    -0.222958318343E+03   -0.38691E-04   -0.39071E-04  5760   0.249E-03-0.288E-05
 gam= 1.032 trial= 0.275  step= 0.325 mean= 0.275
 gam= 0.878 g(H,U,f)=  0.101E-03 0.117E-03 0.167E-05 ort(H,U,f) =-0.508E-04 0.382E-04-0.225E-05
CGA: 159    -0.222958357242E+03   -0.38898E-04   -0.39992E-04  5760   0.219E-03-0.149E-04
 gam= 0.878 trial= 0.277  step= 0.399 mean= 0.277
 gam= 1.348 g(H,U,f)=  0.101E-03 0.194E-03 0.182E-06 ort(H,U,f) =-0.507E-04 0.588E-04-0.224E-06
CGA: 160    -0.222958397553E+03   -0.40312E-04   -0.41025E-04  5760   0.295E-03 0.786E-05
 gam= 1.348 trial= 0.283  step= 0.155 mean= 0.283
 gam= 0.546 g(H,U,f)=  0.815E-04 0.795E-04 0.451E-07 ort(H,U,f) =-0.624E-04 0.871E-04-0.543E-07
CGA: 161    -0.222958424461E+03   -0.26908E-04   -0.23738E-04  5760   0.161E-03 0.246E-04
 gam= 0.546 trial= 0.277  step= 0.381 mean= 0.277
 gam= 1.664 g(H,U,f)=  0.905E-04 0.177E-03 0.110E-06 ort(H,U,f) =-0.296E-04 0.238E-04-0.499E-08
CGA: 162    -0.222958455513E+03   -0.31052E-04   -0.33231E-04  5760   0.268E-03-0.580E-05
 gam= 1.664 trial= 0.282  step= 0.280 mean= 0.282
 gam= 1.081 g(H,U,f)=  0.131E-03 0.158E-03 0.641E-07 ort(H,U,f) =-0.809E-04 0.677E-04 0.934E-07
CGA: 163    -0.222958491738E+03   -0.36225E-04   -0.36184E-04  5760   0.290E-03-0.130E-04
 gam= 1.081 trial= 0.282  step= 0.276 mean= 0.282
 gam= 1.091 g(H,U,f)=  0.121E-03 0.195E-03 0.111E-06 ort(H,U,f) =-0.620E-04 0.708E-04 0.774E-07
CGA: 164    -0.222958529842E+03   -0.38104E-04   -0.38011E-04  5760   0.316E-03 0.889E-05
 gam= 1.091 trial= 0.282  step= 0.255 mean= 0.282
 gam= 0.609 g(H,U,f)=  0.109E-03 0.828E-04 0.480E-07 ort(H,U,f) =-0.768E-04 0.689E-04 0.163E-06
CGA: 165    -0.222958572006E+03   -0.42163E-04   -0.41461E-04  5760   0.192E-03-0.776E-05
 gam= 0.609 trial= 0.280  step= 0.290 mean= 0.280
 gam= 1.569 g(H,U,f)=  0.110E-03 0.192E-03 0.396E-07 ort(H,U,f) =-0.269E-05 0.174E-04 0.723E-07
CGA: 166    -0.222958599026E+03   -0.27021E-04   -0.27153E-04  5760   0.302E-03 0.148E-04
 gam= 1.569 trial= 0.281  step= 0.269 mean= 0.281
 gam= 0.659 g(H,U,f)=  0.852E-04 0.114E-03 0.132E-06 ort(H,U,f) =-0.574E-04 0.568E-04 0.186E-06
CGA: 167    -0.222958642952E+03   -0.43926E-04   -0.43619E-04  5760   0.199E-03-0.370E-06
 gam= 0.659 trial= 0.280  step= 0.232 mean= 0.280
 gam= 1.040 g(H,U,f)=  0.802E-04 0.127E-03 0.281E-07 ort(H,U,f) =-0.234E-04 0.313E-04 0.133E-06
CGA: 168    -0.222958667369E+03   -0.24416E-04   -0.23069E-04  5760   0.207E-03 0.806E-05
 gam= 1.040 trial= 0.278  step= 0.263 mean= 0.278
 gam= 0.807 g(H,U,f)=  0.780E-04 0.889E-04 0.500E-08 ort(H,U,f) =-0.474E-04 0.401E-04 0.570E-07
CGA: 169    -0.222958695852E+03   -0.28483E-04   -0.28302E-04  5760   0.167E-03-0.732E-05
 gam= 0.807 trial= 0.277  step= 0.300 mean= 0.277
 gam= 1.221 g(H,U,f)=  0.824E-04 0.121E-03 0.868E-08 ort(H,U,f) =-0.223E-04 0.245E-04-0.972E-07
CGA: 170    -0.222958719482E+03   -0.23630E-04   -0.24116E-04  5760   0.204E-03 0.212E-05
 gam= 1.221 trial= 0.278  step= 0.304 mean= 0.278
 gam= 1.038 g(H,U,f)=  0.800E-04 0.131E-03 0.451E-07 ort(H,U,f) =-0.477E-04 0.482E-04-0.296E-06
CGA: 171    -0.222958750371E+03   -0.30889E-04   -0.31364E-04  5760   0.211E-03 0.221E-06
 gam= 1.038 trial= 0.279  step= 0.165 mean= 0.279
 gam= 0.573 g(H,U,f)=  0.701E-04 0.510E-04 0.958E-07 ort(H,U,f) =-0.381E-04 0.472E-04-0.393E-06
CGA: 172    -0.222958769884E+03   -0.19514E-04   -0.17407E-04  5760   0.121E-03 0.874E-05
 gam= 0.573 trial= 0.274  step= 0.464 mean= 0.274
 gam= 1.136 g(H,U,f)=  0.672E-04 0.705E-04 0.131E-07 ort(H,U,f) =-0.252E-04 0.205E-04-0.329E-07
CGA: 173    -0.222958797850E+03   -0.27966E-04   -0.29269E-04  5760   0.138E-03-0.473E-05
 gam= 1.136 trial= 0.283  step= 0.287 mean= 0.283
 gam= 1.120 g(H,U,f)=  0.657E-04 0.886E-04 0.234E-07 ort(H,U,f) =-0.215E-04 0.210E-04 0.243E-07
CGA: 174    -0.222958816788E+03   -0.18938E-04   -0.18981E-04  5760   0.154E-03-0.502E-06
 gam= 1.120 trial= 0.283  step= 0.232 mean= 0.283
 gam= 0.937 g(H,U,f)=  0.556E-04 0.890E-04 0.840E-08 ort(H,U,f) =-0.265E-04 0.292E-04 0.229E-07
CGA: 175    -0.222958835081E+03   -0.18293E-04   -0.17806E-04  5760   0.145E-03 0.271E-05
 gam= 0.937 trial= 0.281  step= 0.225 mean= 0.281
 gam= 0.715 g(H,U,f)=  0.493E-04 0.540E-04 0.565E-07 ort(H,U,f) =-0.229E-04 0.255E-04-0.150E-06
CGA: 176    -0.222958852466E+03   -0.17385E-04   -0.16525E-04  5760   0.103E-03 0.242E-05
 gam= 0.715 trial= 0.278  step= 0.403 mean= 0.278
 gam= 1.200 g(H,U,f)=  0.510E-04 0.729E-04 0.169E-06 ort(H,U,f) =-0.243E-04 0.216E-04-0.881E-07
CGA: 177    -0.222958872877E+03   -0.20411E-04   -0.21198E-04  5760   0.124E-03-0.278E-05
 gam= 1.200 trial= 0.284  step= 0.191 mean= 0.284
 gam= 0.860 g(H,U,f)=  0.467E-04 0.599E-04 0.176E-06 ort(H,U,f) =-0.196E-04 0.292E-04 0.677E-07
CGA: 178    -0.222958885387E+03   -0.12510E-04   -0.11525E-04  5760   0.107E-03 0.970E-05
 gam= 0.860 trial= 0.280  step= 0.408 mean= 0.280
 gam= 0.000 g(H,U,f)=  0.514E-04 0.101E-03 0.196E-07 ort(H,U,f) =-0.293E-04 0.233E-04 0.687E-07
SDA: 179    -0.222958907109E+03   -0.21722E-04   -0.23502E-04  5760   0.152E-03-0.591E-05
 gam= 0.000 trial= 0.286  step= 0.113 mean= 0.286
 gam= 0.455 g(H,U,f)=  0.301E-04 0.391E-04 0.460E-07 ort(H,U,f) = 0.296E-04-0.133E-05 0.267E-07
CGA: 180    -0.222958918736E+03   -0.11627E-04   -0.86007E-05  5760   0.693E-04 0.283E-04
 gam= 0.455 trial= 0.277  step= 0.239 mean= 0.277
 gam= 0.848 g(H,U,f)=  0.154E-04 0.432E-04 0.644E-07 ort(H,U,f) = 0.955E-05-0.624E-05 0.618E-07
CGA: 181    -0.222958928688E+03   -0.99520E-05   -0.98364E-05  5760   0.587E-04 0.338E-05
 gam= 0.848 trial= 0.275  step= 0.317 mean= 0.275
 gam= 0.878 g(H,U,f)=  0.194E-04 0.321E-04 0.153E-07 ort(H,U,f) =-0.101E-04 0.611E-05 0.586E-07
CGA: 182    -0.222958938302E+03   -0.96136E-05   -0.97677E-05  5760   0.515E-04-0.391E-05
 gam= 0.878 trial= 0.278  step= 0.210 mean= 0.278
 gam= 1.190 g(H,U,f)=  0.173E-04 0.440E-04 0.924E-08 ort(H,U,f) =-0.419E-05 0.123E-04 0.450E-07
CGA: 183    -0.222958943528E+03   -0.52262E-05   -0.50451E-05  5760   0.613E-04 0.813E-05
 gam= 1.190 trial= 0.274  step= 0.277 mean= 0.274
 gam= 0.639 g(H,U,f)=  0.185E-04 0.207E-04 0.155E-08 ort(H,U,f) =-0.190E-04 0.153E-04 0.166E-07
CGA: 184    -0.222958953341E+03   -0.98134E-05   -0.98442E-05  5760   0.392E-04-0.370E-05
 gam= 0.639 trial= 0.274  step= 0.273 mean= 0.274
 gam= 1.455 g(H,U,f)=  0.198E-04 0.373E-04 0.755E-08 ort(H,U,f) =-0.576E-05 0.734E-05 0.423E-07
CGA: 185    -0.222958958379E+03   -0.50381E-05   -0.50347E-05  5760   0.570E-04 0.162E-05
 gam= 1.455 trial= 0.274  step= 0.270 mean= 0.274
 gam= 0.626 g(H,U,f)=  0.166E-04 0.191E-04 0.951E-08 ort(H,U,f) =-0.136E-04 0.125E-04 0.769E-07
CGA: 186    -0.222958966413E+03   -0.80338E-05   -0.80056E-05  5760   0.357E-04-0.995E-06
 gam= 0.626 trial= 0.274  step= 0.301 mean= 0.274
 gam= 1.524 g(H,U,f)=  0.175E-04 0.369E-04 0.141E-07 ort(H,U,f) =-0.313E-05 0.514E-05 0.685E-07
CGA: 187    -0.222958971527E+03   -0.51143E-05   -0.52790E-05  5760   0.544E-04 0.208E-05
 gam= 1.524 trial= 0.275  step= 0.203 mean= 0.275
 gam= 0.499 g(H,U,f)=  0.130E-04 0.141E-04 0.218E-08 ort(H,U,f) =-0.967E-05 0.932E-05 0.318E-07
CGA: 188    -0.222958977760E+03   -0.62329E-05   -0.58462E-05  5760   0.272E-04-0.313E-06
 gam= 0.499 trial= 0.272  step= 0.381 mean= 0.272
 gam= 1.349 g(H,U,f)=  0.124E-04 0.242E-04 0.193E-08 ort(H,U,f) =-0.280E-05 0.375E-05-0.172E-07
CGA: 189    -0.222958982682E+03   -0.49217E-05   -0.51365E-05  5760   0.366E-04 0.936E-06
 gam= 1.349 trial= 0.277  step= 0.232 mean= 0.277
 gam= 1.008 g(H,U,f)=  0.123E-04 0.246E-04 0.259E-07 ort(H,U,f) =-0.362E-05 0.655E-05-0.101E-06
CGA: 190    -0.222958987322E+03   -0.46396E-05   -0.44041E-05  5760   0.369E-04 0.283E-05
 gam= 1.008 trial= 0.275  step= 0.246 mean= 0.275
 gam= 0.829 g(H,U,f)=  0.114E-04 0.192E-04 0.361E-07 ort(H,U,f) =-0.751E-05 0.671E-05-0.914E-07
CGA: 191    -0.222958992352E+03   -0.50308E-05   -0.48997E-05  5760   0.306E-04-0.887E-06
 gam= 0.829 trial= 0.274  step= 0.345 mean= 0.274
 gam= 1.028 g(H,U,f)=  0.118E-04 0.197E-04 0.151E-07 ort(H,U,f) =-0.771E-05 0.627E-05-0.302E-07
CGA: 192    -0.222958997201E+03   -0.48485E-05   -0.51535E-05  5760   0.315E-04-0.147E-05
 gam= 1.028 trial= 0.277  step= 0.187 mean= 0.277
 gam= 0.893 g(H,U,f)=  0.115E-04 0.166E-04 0.371E-08 ort(H,U,f) =-0.347E-05 0.585E-05-0.780E-08
CGA: 193    -0.222959000468E+03   -0.32669E-05   -0.28052E-05  5760   0.281E-04 0.237E-05
 gam= 0.893 trial= 0.273  step= 0.332 mean= 0.273
 gam= 0.745 g(H,U,f)=  0.111E-04 0.980E-05 0.359E-08 ort(H,U,f) =-0.564E-05 0.450E-05-0.301E-08
CGA: 194    -0.222959005396E+03   -0.49284E-05   -0.50171E-05  5760   0.209E-04-0.114E-05
 gam= 0.745 trial= 0.276  step= 0.496 mean= 0.276
 gam= 1.574 g(H,U,f)=  0.950E-05 0.235E-04 0.910E-08 ort(H,U,f) =-0.276E-05 0.348E-05 0.392E-09
CGA: 195    -0.222959010016E+03   -0.46202E-05   -0.49822E-05  5760   0.330E-04 0.729E-06
 gam= 1.574 trial= 0.287  step= 0.120 mean= 0.287
 gam= 0.393 g(H,U,f)=  0.704E-05 0.592E-05 0.184E-07 ort(H,U,f) =-0.288E-05 0.726E-05 0.131E-07
CGA: 196    -0.222959012821E+03   -0.28043E-05   -0.20446E-05  5760   0.130E-04 0.439E-05
 gam= 0.393 trial= 0.278  step= 0.437 mean= 0.278
 gam= 0.937 g(H,U,f)=  0.612E-05 0.602E-05 0.185E-07 ort(H,U,f) =-0.237E-05 0.209E-05 0.231E-07
CGA: 197    -0.222959016011E+03   -0.31906E-05   -0.32129E-05  5760   0.122E-04-0.256E-06
 gam= 0.937 trial= 0.286  step= 0.290 mean= 0.286
 gam= 2.060 g(H,U,f)=  0.778E-05 0.173E-04 0.106E-07 ort(H,U,f) =-0.315E-06 0.169E-05 0.300E-07
CGA: 198    -0.222959017734E+03   -0.17223E-05   -0.17253E-05  5760   0.250E-04 0.140E-05
 gam= 2.060 trial= 0.286  step= 0.220 mean= 0.286
 gam= 0.465 g(H,U,f)=  0.598E-05 0.566E-05 0.583E-08 ort(H,U,f) =-0.709E-05 0.749E-05 0.552E-07
CGA: 199    -0.222959020938E+03   -0.32048E-05   -0.30730E-05  5760   0.116E-04 0.449E-06
 gam= 0.465 trial= 0.283  step= 0.417 mean= 0.283
 gam= 1.138 g(H,U,f)=  0.596E-05 0.728E-05 0.147E-09 ort(H,U,f) =-0.304E-05 0.324E-05 0.418E-08
CGA: 200    -0.222959023295E+03   -0.23564E-05   -0.24693E-05  5760   0.132E-04 0.206E-06
 gam= 1.138 trial= 0.290  step= 0.214 mean= 0.290
 gam= 1.144 g(H,U,f)=  0.662E-05 0.853E-05 0.456E-09 ort(H,U,f) =-0.148E-05 0.230E-05 0.784E-08
CGA: 201    -0.222959024828E+03   -0.15332E-05   -0.14453E-05  5760   0.152E-04 0.822E-06
 gam= 1.144 trial= 0.286  step= 0.311 mean= 0.286
 gam= 1.078 g(H,U,f)=  0.622E-05 0.101E-04 0.125E-08 ort(H,U,f) =-0.355E-05 0.262E-05-0.384E-08
CGA: 202    -0.222959027279E+03   -0.24512E-05   -0.25023E-05  5760   0.163E-04-0.931E-06
 gam= 1.078 trial= 0.287  step= 0.286 mean= 0.287
 gam= 0.707 g(H,U,f)=  0.596E-05 0.559E-05 0.195E-08 ort(H,U,f) =-0.485E-05 0.395E-05-0.259E-07
CGA: 203    -0.222959029472E+03   -0.21930E-05   -0.21899E-05  5760   0.116E-04-0.925E-06
 gam= 0.707 trial= 0.287  step= 0.200 mean= 0.287
 gam= 0.987 g(H,U,f)=  0.560E-05 0.580E-05 0.559E-08 ort(H,U,f) =-0.823E-06 0.160E-05-0.297E-07
CGA: 204    -0.222959030633E+03   -0.11613E-05   -0.10899E-05  5760   0.114E-04 0.746E-06
 gam= 0.987 trial= 0.283  step= 0.307 mean= 0.283
 gam= 0.813 g(H,U,f)=  0.452E-05 0.475E-05 0.448E-08 ort(H,U,f) =-0.981E-06 0.142E-05-0.211E-07
CGA: 205    -0.222959032482E+03   -0.18489E-05   -0.18622E-05  5760   0.927E-05 0.419E-06
 gam= 0.813 trial= 0.284  step= 0.367 mean= 0.284
 gam= 1.202 g(H,U,f)=  0.396E-05 0.718E-05 0.722E-08 ort(H,U,f) =-0.142E-05 0.165E-05-0.163E-07
CGA: 206    -0.222959034173E+03   -0.16910E-05   -0.17664E-05  5760   0.111E-04 0.215E-06
 gam= 1.202 trial= 0.288  step= 0.139 mean= 0.288
 gam= 0.532 g(H,U,f)=  0.318E-05 0.275E-05 0.657E-08 ort(H,U,f) =-0.187E-05 0.255E-05-0.124E-07
CGA: 207    -0.222959035137E+03   -0.96347E-06   -0.79443E-06  5760   0.593E-05 0.671E-06
 gam= 0.532 trial= 0.281  step= 0.586 mean= 0.281
 gam= 2.134 g(H,U,f)=  0.522E-05 0.742E-05 0.148E-07 ort(H,U,f) =-0.249E-05 0.454E-06-0.673E-09
CGA: 208    -0.222959036626E+03   -0.14887E-05   -0.18427E-05  5760   0.127E-04-0.204E-05
 gam= 2.134 trial= 0.296  step= 0.260 mean= 0.296
 gam= 0.931 g(H,U,f)=  0.662E-05 0.515E-05 0.114E-07 ort(H,U,f) =-0.564E-05 0.470E-05 0.121E-07
CGA: 209    -0.222959037733E+03   -0.11070E-05   -0.10779E-05  5760   0.118E-04-0.926E-06
 gam= 0.931 trial= 0.294  step= 0.233 mean= 0.294
 gam= 0.000 g(H,U,f)=  0.557E-05 0.479E-05 0.643E-08 ort(H,U,f) =-0.344E-05 0.465E-05 0.170E-07
SDA: 210    -0.222959038983E+03   -0.12506E-05   -0.12712E-05  5760   0.104E-04 0.123E-05
 gam= 0.000 trial= 0.291  step= 0.233 mean= 0.291
 gam= 0.859 g(H,U,f)=  0.315E-05 0.573E-05 0.110E-07 ort(H,U,f) = 0.265E-05-0.170E-05 0.805E-08
CGA: 211    -0.222959040231E+03   -0.12482E-05   -0.12064E-05  5760   0.890E-05 0.953E-06
 gam= 0.859 trial= 0.288  step= 0.197 mean= 0.288
 gam= 0.824 g(H,U,f)=  0.206E-05 0.527E-05 0.593E-08 ort(H,U,f) = 0.198E-05-0.403E-06 0.126E-07
CGA: 212    -0.222959041247E+03   -0.10153E-05   -0.95612E-06  5760   0.733E-05 0.159E-05
 gam= 0.824 trial= 0.284  step= 0.207 mean= 0.284
 gam= 0.479 g(H,U,f)=  0.129E-05 0.222E-05 0.212E-08 ort(H,U,f) =-0.735E-06 0.844E-06 0.964E-08
CGA: 213    -0.222959042195E+03   -0.94843E-06   -0.89374E-06  5760   0.351E-05 0.118E-06
 gam= 0.479 trial= 0.280  step= 0.606 mean= 0.280
 gam= 1.616 g(H,U,f)=  0.181E-05 0.387E-05 0.149E-08 ort(H,U,f) =-0.108E-05 0.794E-06 0.554E-08
CGA: 214    -0.222959043128E+03   -0.93308E-06   -0.10809E-05  5760   0.568E-05-0.284E-06
 gam= 1.616 trial= 0.296  step= 0.110 mean= 0.296
 final diagonalization
   1 F= -.23256940E+03 E0= -.23256457E+03  d E =-.967353E-02  mag=     6.0000
