       N       E                     dE             d eps       ncg     rms          ort
DAV:   1     0.346202607386E+04    0.34620E+04   -0.13926E+05  5760   0.217E+03
DAV:   2     0.405421443640E+03   -0.30566E+04   -0.28172E+04  5760   0.528E+02
DAV:   3    -0.220550012281E+03   -0.62597E+03   -0.57403E+03  5760   0.252E+02
DAV:   4    -0.270275298535E+03   -0.49725E+02   -0.48540E+02  5760   0.728E+01
DAV:   5    -0.272041251935E+03   -0.17660E+01   -0.17623E+01  5760   0.137E+01
SDA:   6     0.743509380333E+02    0.34639E+03   -0.17623E+01  5760   0.251E+04 0.000E+00
CGA:   7    -0.139618895371E+03   -0.21397E+03   -0.23471E+03  5760   0.262E+04-0.730E+01
CGA:   8    -0.175749931687E+03   -0.36131E+02   -0.77121E+02  5760   0.947E+03-0.335E+03
CGA:   9    -0.181700127739E+03   -0.59502E+01   -0.39142E+02  5760   0.417E+03-0.442E+03
CGA:  10    -0.184261332764E+03   -0.25612E+01   -0.10658E+02  5760   0.761E+03-0.135E+03
CGA:  11    -0.209028017836E+03   -0.24767E+02   -0.34055E+02  5760   0.239E+03-0.902E+02
CGA:  12    -0.215567798636E+03   -0.65398E+01   -0.82718E+01  5760   0.906E+02-0.612E+02
CGA:  13    -0.218248467704E+03   -0.26807E+01   -0.30157E+01  5760   0.190E+02-0.138E+02
CGA:  14    -0.219883404751E+03   -0.16349E+01   -0.17753E+01  5760   0.181E+02 0.415E+00
CGA:  15    -0.220661309112E+03   -0.77790E+00   -0.72637E+00  5760   0.407E+01 0.501E+00
CGA:  16    -0.221130928053E+03   -0.46962E+00   -0.48336E+00  5760   0.331E+01 0.976E-01
CGA:  17    -0.221394624239E+03   -0.26370E+00   -0.27070E+00  5760   0.309E+01-0.297E-02
CGA:  18    -0.221592517676E+03   -0.19789E+00   -0.21229E+00  5760   0.130E+01-0.837E-01
CGA:  19    -0.221795776160E+03   -0.20326E+00   -0.20301E+00  5760   0.163E+01 0.972E-02
CGA:  20    -0.221915194975E+03   -0.11942E+00   -0.11755E+00  5760   0.148E+01-0.446E-02
CGA:  21    -0.222167824504E+03   -0.25263E+00   -0.24898E+00  5760   0.228E+01 0.786E-01
CGA:  22    -0.222557303299E+03   -0.38948E+00   -0.41216E+00  5760   0.392E+01-0.293E+00
CGA:  23    -0.222809874156E+03   -0.25257E+00   -0.23846E+00  5760   0.363E+01 0.126E+00
CGA:  24    -0.223084609618E+03   -0.27474E+00   -0.28097E+00  5760   0.337E+01 0.369E-02
CGA:  25    -0.223346280175E+03   -0.26167E+00   -0.27651E+00  5760   0.293E+01-0.525E-03
CGA:  26    -0.223600833979E+03   -0.25455E+00   -0.26594E+00  5760   0.198E+01 0.378E-01
CGA:  27    -0.223807146853E+03   -0.20631E+00   -0.20942E+00  5760   0.137E+01 0.393E-01
CGA:  28    -0.223991678764E+03   -0.18453E+00   -0.18444E+00  5760   0.112E+01 0.968E-02
CGA:  29    -0.224134906721E+03   -0.14323E+00   -0.14321E+00  5760   0.879E+00-0.132E-01
CGA:  30    -0.224242642497E+03   -0.10774E+00   -0.10773E+00  5760   0.740E+00-0.123E-02
CGA:  31    -0.224335663237E+03   -0.93021E-01   -0.93038E-01  5760   0.609E+00 0.551E-02
CGA:  32    -0.224410848565E+03   -0.75185E-01   -0.75215E-01  5760   0.435E+00 0.327E-02
CGA:  33    -0.224463061418E+03   -0.52213E-01   -0.52158E-01  5760   0.314E+00-0.293E-02
CGA:  34    -0.224504572498E+03   -0.41511E-01   -0.41550E-01  5760   0.289E+00-0.352E-02
CGA:  35    -0.224540213868E+03   -0.35641E-01   -0.35639E-01  5760   0.213E+00-0.552E-03
CGA:  36    -0.224564537631E+03   -0.24324E-01   -0.24331E-01  5760   0.153E+00 0.364E-03
SDA:  37    -0.224585198158E+03   -0.20661E-01   -0.20660E-01  5760   0.141E+00 0.247E-03
CGA:  38    -0.224606690810E+03   -0.21493E-01   -0.21491E-01  5760   0.614E-01 0.482E-05
CGA:  39    -0.224631791042E+03   -0.25100E-01   -0.25008E-01  5760   0.299E-01 0.419E-03
CGA:  40    -0.224642351111E+03   -0.10560E-01   -0.10546E-01  5760   0.210E-01 0.801E-04
CGA:  41    -0.224648177740E+03   -0.58266E-02   -0.58402E-02  5760   0.146E-01-0.110E-03
CGA:  42    -0.224652425690E+03   -0.42480E-02   -0.42467E-02  5760   0.831E-02 0.680E-05
CGA:  43    -0.224655679012E+03   -0.32533E-02   -0.32451E-02  5760   0.979E-02 0.375E-04
CGA:  44    -0.224660100722E+03   -0.44217E-02   -0.44190E-02  5760   0.106E-01 0.807E-05
CGA:  45    -0.224664175523E+03   -0.40748E-02   -0.40646E-02  5760   0.116E-01 0.541E-04
CGA:  46    -0.224669962462E+03   -0.57869E-02   -0.57926E-02  5760   0.109E-01-0.312E-04
CGA:  47    -0.224673597773E+03   -0.36353E-02   -0.36414E-02  5760   0.934E-02-0.476E-04
CGA:  48    -0.224676755346E+03   -0.31576E-02   -0.31668E-02  5760   0.730E-02-0.684E-04
CGA:  49    -0.224679567712E+03   -0.28124E-02   -0.28186E-02  5760   0.709E-02-0.373E-04
CGA:  50    -0.224682458227E+03   -0.28905E-02   -0.29022E-02  5760   0.757E-02-0.667E-04
CGA:  51    -0.224686340860E+03   -0.38826E-02   -0.38865E-02  5760   0.752E-02-0.133E-04
CGA:  52    -0.224689089770E+03   -0.27489E-02   -0.27482E-02  5760   0.775E-02 0.947E-05
CGA:  53    -0.224692324847E+03   -0.32351E-02   -0.32260E-02  5760   0.633E-02 0.556E-04
CGA:  54    -0.224694069675E+03   -0.17448E-02   -0.17448E-02  5760   0.408E-02 0.183E-04
CGA:  55    -0.224696089426E+03   -0.20198E-02   -0.20194E-02  5760   0.293E-02 0.144E-05
CGA:  56    -0.224696922983E+03   -0.83356E-03   -0.83360E-03  5760   0.173E-02-0.147E-04
CGA:  57    -0.224697537533E+03   -0.61455E-03   -0.61591E-03  5760   0.115E-02-0.173E-04
CGA:  58    -0.224697868415E+03   -0.33088E-03   -0.33094E-03  5760   0.680E-03-0.144E-04
CGA:  59    -0.224698102677E+03   -0.23426E-03   -0.23478E-03  5760   0.511E-03-0.808E-05
CGA:  60    -0.224698313335E+03   -0.21066E-03   -0.21067E-03  5760   0.538E-03-0.450E-07
CGA:  61    -0.224698531205E+03   -0.21787E-03   -0.21765E-03  5760   0.396E-03 0.196E-05
CGA:  62    -0.224698722160E+03   -0.19095E-03   -0.18981E-03  5760   0.541E-03 0.648E-05
CGA:  63    -0.224698901304E+03   -0.17914E-03   -0.17905E-03  5760   0.385E-03 0.602E-05
CGA:  64    -0.224699083321E+03   -0.18202E-03   -0.18177E-03  5760   0.438E-03 0.152E-05
CGA:  65    -0.224699246227E+03   -0.16291E-03   -0.16296E-03  5760   0.359E-03-0.107E-05
CGA:  66    -0.224699429673E+03   -0.18345E-03   -0.18448E-03  5760   0.399E-03-0.534E-05
CGA:  67    -0.224699552325E+03   -0.12265E-03   -0.12256E-03  5760   0.299E-03-0.496E-05
SDA:  68    -0.224699688400E+03   -0.13607E-03   -0.13646E-03  5760   0.283E-03-0.290E-05
CGA:  69    -0.224699742133E+03   -0.53733E-04   -0.53920E-04  5760   0.143E-03 0.132E-05
CGA:  70    -0.224699805616E+03   -0.63483E-04   -0.63068E-04  5760   0.135E-03 0.378E-05
CGA:  71    -0.224699853680E+03   -0.48064E-04   -0.48029E-04  5760   0.917E-04 0.292E-05
CGA:  72    -0.224699897349E+03   -0.43669E-04   -0.43389E-04  5760   0.945E-04 0.219E-05
CGA:  73    -0.224699934063E+03   -0.36714E-04   -0.36719E-04  5760   0.735E-04-0.120E-06
CGA:  74    -0.224699972554E+03   -0.38491E-04   -0.38823E-04  5760   0.682E-04-0.179E-05
CGA:  75    -0.224699999440E+03   -0.26886E-04   -0.26943E-04  5760   0.716E-04-0.111E-05
CGA:  76    -0.224700020531E+03   -0.21091E-04   -0.20991E-04  5760   0.478E-04-0.176E-05
CGA:  77    -0.224700038705E+03   -0.18174E-04   -0.18198E-04  5760   0.406E-04-0.619E-06
CGA:  78    -0.224700053530E+03   -0.14825E-04   -0.14806E-04  5760   0.302E-04 0.128E-05
CGA:  79    -0.224700071639E+03   -0.18109E-04   -0.18122E-04  5760   0.433E-04-0.608E-07
CGA:  80    -0.224700088087E+03   -0.16448E-04   -0.16420E-04  5760   0.313E-04 0.200E-05
CGA:  81    -0.224700104409E+03   -0.16323E-04   -0.16217E-04  5760   0.372E-04 0.826E-06
CGA:  82    -0.224700115766E+03   -0.11357E-04   -0.11290E-04  5760   0.274E-04-0.867E-06
CGA:  83    -0.224700126069E+03   -0.10303E-04   -0.10314E-04  5760   0.214E-04-0.681E-06
CGA:  84    -0.224700133603E+03   -0.75338E-05   -0.75329E-05  5760   0.145E-04-0.959E-07
CGA:  85    -0.224700140400E+03   -0.67970E-05   -0.69137E-05  5760   0.115E-04-0.107E-05
CGA:  86    -0.224700144093E+03   -0.36935E-05   -0.37090E-05  5760   0.760E-05 0.561E-06
CGA:  87    -0.224700147205E+03   -0.31119E-05   -0.31093E-05  5760   0.505E-05 0.165E-06
CGA:  88    -0.224700149191E+03   -0.19855E-05   -0.19861E-05  5760   0.640E-05-0.549E-07
CGA:  89    -0.224700151136E+03   -0.19455E-05   -0.19650E-05  5760   0.315E-05 0.299E-06
CGA:  90    -0.224700152674E+03   -0.15376E-05   -0.15207E-05  5760   0.341E-05 0.189E-06
CGA:  91    -0.224700154262E+03   -0.15885E-05   -0.16411E-05  5760   0.334E-05-0.680E-06
CGA:  92    -0.224700155149E+03   -0.88699E-06   -0.88576E-06  5760   0.242E-05-0.247E-07
   1 F= -.23379630E+03 E0= -.23379630E+03  d E =-.379869E-11  mag=     6.0000
