       N       E                     dE             d eps       ncg     rms          ort
DAV:   1     0.345165009262E+04    0.34517E+04   -0.13863E+05  5760   0.212E+03
DAV:   2     0.420809914952E+03   -0.30308E+04   -0.27917E+04  5760   0.515E+02
DAV:   3    -0.218587337388E+03   -0.63940E+03   -0.59025E+03  5760   0.251E+02
DAV:   4    -0.270458719563E+03   -0.51871E+02   -0.50648E+02  5760   0.737E+01
DAV:   5    -0.272356697121E+03   -0.18980E+01   -0.18940E+01  5760   0.142E+01
SDA:   6     0.160898107710E+03    0.43325E+03   -0.18940E+01  5760   0.286E+04 0.000E+00
CGA:   7     0.908336358875E+02   -0.70064E+02   -0.70903E+02  5760   0.524E+04-0.277E+03
CGA:   8     0.252848356077E+03    0.16201E+03   -0.10232E+03  5760   0.161E+05 0.358E+03
CGA:   9     0.358871582322E+04    0.33359E+04   -0.64556E+03  5760   0.978E+05-0.186E+05
CGA:  10     0.716235859388E+04    0.35736E+04   -0.66013E+04  5760   0.141E+06-0.293E+05
CGA:  11     0.315890992524E+04   -0.40034E+04   -0.84680E+04  5760   0.102E+06-0.341E+05
CGA:  12     0.200311386354E+04   -0.11558E+04   -0.59197E+04  5760   0.206E+05 0.460E+04
CGA:  13     0.175272375184E+04   -0.25039E+03   -0.84102E+03  5760   0.168E+05-0.685E+04
CGA:  14     0.159979446622E+04   -0.15293E+03   -0.60912E+03  5760   0.246E+05-0.559E+04
CGA:  15     0.922579304917E+03   -0.67722E+03   -0.12406E+04  5760   0.115E+05-0.921E+03
CGA:  16     0.667829512976E+03   -0.25475E+03   -0.47583E+03  5760   0.214E+04 0.286E+03
CGA:  17     0.495339195107E+03   -0.17249E+03   -0.18952E+03  5760   0.282E+04-0.717E+01
CGA:  18     0.263531683030E+03   -0.23181E+03   -0.25485E+03  5760   0.150E+04 0.907E+02
CGA:  19     0.162098486775E+03   -0.10143E+03   -0.11274E+03  5760   0.125E+04 0.589E+01
CGA:  20     0.350764695555E+02   -0.12702E+03   -0.13025E+03  5760   0.384E+03 0.186E+02
CGA:  21    -0.165427639727E+02   -0.51619E+02   -0.51631E+02  5760   0.414E+03-0.105E+02
CGA:  22    -0.574330742497E+02   -0.40890E+02   -0.40735E+02  5760   0.245E+03-0.226E+01
CGA:  23    -0.856570418716E+02   -0.28224E+02   -0.27971E+02  5760   0.378E+03-0.110E+02
CGA:  24    -0.114397075682E+03   -0.28740E+02   -0.24985E+02  5760   0.924E+02 0.151E+02
CGA:  25    -0.124775338397E+03   -0.10378E+02   -0.10008E+02  5760   0.233E+03-0.656E+01
CGA:  26    -0.139815370591E+03   -0.15040E+02   -0.11484E+02  5760   0.172E+03 0.389E+02
CGA:  27    -0.146880829096E+03   -0.70655E+01   -0.56164E+01  5760   0.164E+03 0.345E+02
CGA:  28    -0.155397037941E+03   -0.85162E+01   -0.85491E+01  5760   0.364E+03-0.117E+02
CGA:  29    -0.159890138532E+03   -0.44931E+01   -0.65929E+01  5760   0.289E+03 0.377E+02
CGA:  30    -0.162459254544E+03   -0.25691E+01   -0.54065E+01  5760   0.146E+03 0.903E+01
CGA:  31    -0.166456261033E+03   -0.39970E+01   -0.45400E+01  5760   0.161E+03 0.891E+01
CGA:  32    -0.170758533432E+03   -0.43023E+01   -0.43898E+01  5760   0.114E+03 0.372E+02
CGA:  33    -0.174242907067E+03   -0.34844E+01   -0.37194E+01  5760   0.689E+02 0.943E+01
CGA:  34    -0.177306500655E+03   -0.30636E+01   -0.31924E+01  5760   0.102E+03 0.249E+01
CGA:  35    -0.181205881904E+03   -0.38994E+01   -0.37177E+01  5760   0.118E+03 0.157E+02
CGA:  36    -0.184788579099E+03   -0.35827E+01   -0.34443E+01  5760   0.811E+02 0.204E+02
CGA:  37    -0.186675662657E+03   -0.18871E+01   -0.16267E+01  5760   0.497E+02 0.209E+02
CGA:  38    -0.188162426426E+03   -0.14868E+01   -0.14540E+01  5760   0.707E+02 0.290E+01
CGA:  39    -0.189880248353E+03   -0.17178E+01   -0.16241E+01  5760   0.109E+03 0.636E+01
SDA:  40    -0.191956245298E+03   -0.20760E+01   -0.20001E+01  5760   0.951E+02 0.135E+02
CGA:  41    -0.195465664836E+03   -0.35094E+01   -0.36874E+01  5760   0.527E+02-0.339E+01
CGA:  42    -0.200622190916E+03   -0.51565E+01   -0.54128E+01  5760   0.716E+02-0.667E+01
CGA:  43    -0.206489804520E+03   -0.58676E+01   -0.57286E+01  5760   0.632E+02 0.516E+01
CGA:  44    -0.212048244624E+03   -0.55584E+01   -0.56122E+01  5760   0.209E+02-0.401E+01
CGA:  45    -0.213285554188E+03   -0.12373E+01   -0.12472E+01  5760   0.219E+02 0.241E+00
CGA:  46    -0.215692062613E+03   -0.24065E+01   -0.24196E+01  5760   0.351E+02 0.131E+01
CGA:  47    -0.217773155888E+03   -0.20811E+01   -0.21920E+01  5760   0.860E+01 0.254E+01
CGA:  48    -0.219057515760E+03   -0.12844E+01   -0.12517E+01  5760   0.417E+01 0.556E+00
CGA:  49    -0.219512026710E+03   -0.45451E+00   -0.44237E+00  5760   0.470E+01 0.417E+00
CGA:  50    -0.219991164585E+03   -0.47914E+00   -0.47364E+00  5760   0.432E+01 0.323E+00
CGA:  51    -0.220592163239E+03   -0.60100E+00   -0.59049E+00  5760   0.181E+01 0.110E+00
CGA:  52    -0.220904717623E+03   -0.31255E+00   -0.31027E+00  5760   0.171E+01 0.255E-01
CGA:  53    -0.221190110384E+03   -0.28539E+00   -0.28998E+00  5760   0.268E+01-0.408E-01
CGA:  54    -0.221386823581E+03   -0.19671E+00   -0.19057E+00  5760   0.150E+01-0.231E-01
CGA:  55    -0.221496247312E+03   -0.10942E+00   -0.11130E+00  5760   0.150E+01 0.914E-01
CGA:  56    -0.221641753559E+03   -0.14551E+00   -0.14550E+00  5760   0.916E+00 0.657E-01
CGA:  57    -0.221785262148E+03   -0.14351E+00   -0.13703E+00  5760   0.919E+00 0.131E+00
CGA:  58    -0.221908272637E+03   -0.12301E+00   -0.12012E+00  5760   0.931E+00 0.138E+00
CGA:  59    -0.221999602442E+03   -0.91330E-01   -0.91840E-01  5760   0.106E+01 0.928E-01
CGA:  60    -0.222075902792E+03   -0.76300E-01   -0.79322E-01  5760   0.951E+00 0.115E-01
CGA:  61    -0.222149114447E+03   -0.73212E-01   -0.70154E-01  5760   0.101E+01-0.263E+00
CGA:  62    -0.222201757811E+03   -0.52643E-01   -0.46930E-01  5760   0.126E+01-0.387E+00
CGA:  63    -0.222241524261E+03   -0.39766E-01   -0.28498E-01  5760   0.140E+01-0.352E+00
CGA:  64    -0.222277270810E+03   -0.35747E-01   -0.23437E-01  5760   0.154E+01-0.197E+00
CGA:  65    -0.222314982705E+03   -0.37712E-01   -0.27023E-01  5760   0.182E+01-0.122E+00
CGA:  66    -0.222348177838E+03   -0.33195E-01   -0.25084E-01  5760   0.196E+01-0.765E-01
CGA:  67    -0.222377982380E+03   -0.29805E-01   -0.24364E-01  5760   0.178E+01 0.155E+00
CGA:  68    -0.222399213741E+03   -0.21231E-01   -0.30319E-01  5760   0.173E+01 0.214E+00
CGA:  69    -0.222408653595E+03   -0.94399E-02   -0.30926E-01  5760   0.190E+01 0.173E+00
CGA:  70    -0.222417098021E+03   -0.84444E-02   -0.27509E-01  5760   0.177E+01-0.901E-02
SDA:  71    -0.222425620253E+03   -0.85222E-02   -0.20502E-01  5760   0.172E+01 0.388E+00
CGA:  72    -0.222525418122E+03   -0.99798E-01   -0.10330E+00  5760   0.144E+01 0.135E+01
CGA:  73    -0.222588112820E+03   -0.62695E-01   -0.73944E-01  5760   0.131E+01 0.782E+00
CGA:  74    -0.222626945257E+03   -0.38832E-01   -0.49464E-01  5760   0.133E+01 0.349E+00
CGA:  75    -0.222742069994E+03   -0.11512E+00   -0.11004E+00  5760   0.593E+00 0.736E+00
CGA:  76    -0.222773020320E+03   -0.30950E-01   -0.31987E-01  5760   0.624E+00 0.163E+00
CGA:  77    -0.222838753300E+03   -0.65733E-01   -0.59087E-01  5760   0.816E+00 0.291E+00
CGA:  78    -0.222924954682E+03   -0.86201E-01   -0.86334E-01  5760   0.110E+01-0.960E-02
CGA:  79    -0.223011587397E+03   -0.86633E-01   -0.85914E-01  5760   0.144E+01 0.328E-01
CGA:  80    -0.223065153807E+03   -0.53566E-01   -0.53330E-01  5760   0.217E+00 0.129E-03
CGA:  81    -0.223089593022E+03   -0.24439E-01   -0.23822E-01  5760   0.364E+00 0.118E-01
CGA:  82    -0.223107452435E+03   -0.17859E-01   -0.17424E-01  5760   0.250E+00-0.245E-02
CGA:  83    -0.223120244228E+03   -0.12792E-01   -0.12994E-01  5760   0.167E+00 0.584E-02
CGA:  84    -0.223141715586E+03   -0.21471E-01   -0.22193E-01  5760   0.269E+00-0.120E-01
CGA:  85    -0.223158952604E+03   -0.17237E-01   -0.17325E-01  5760   0.177E+00-0.133E-01
CGA:  86    -0.223169206711E+03   -0.10254E-01   -0.10419E-01  5760   0.167E+00 0.198E-01
CGA:  87    -0.223182202858E+03   -0.12996E-01   -0.13160E-01  5760   0.193E+00-0.183E-01
CGA:  88    -0.223196961242E+03   -0.14758E-01   -0.15884E-01  5760   0.339E+00-0.180E+00
CGA:  89    -0.223206447966E+03   -0.94867E-02   -0.10456E-01  5760   0.610E-01-0.158E-01
CGA:  90    -0.223217492227E+03   -0.11044E-01   -0.96040E-02  5760   0.354E-01 0.116E-01
CGA:  91    -0.223224448695E+03   -0.69565E-02   -0.67546E-02  5760   0.156E+00 0.566E-02
CGA:  92    -0.223236176518E+03   -0.11728E-01   -0.12072E-01  5760   0.462E-01 0.248E-01
CGA:  93    -0.223239293129E+03   -0.31166E-02   -0.31597E-02  5760   0.750E-01-0.215E-02
CGA:  94    -0.223247367526E+03   -0.80744E-02   -0.88147E-02  5760   0.105E+00-0.704E-02
CGA:  95    -0.223250431731E+03   -0.30642E-02   -0.34344E-02  5760   0.951E-01 0.220E-01
CGA:  96    -0.223256858226E+03   -0.64265E-02   -0.71671E-02  5760   0.144E+00 0.592E-01
CGA:  97    -0.223260990218E+03   -0.41320E-02   -0.46887E-02  5760   0.387E-01 0.276E-02
CGA:  98    -0.223266066781E+03   -0.50766E-02   -0.46294E-02  5760   0.222E-01 0.107E-01
CGA:  99    -0.223268646255E+03   -0.25795E-02   -0.24336E-02  5760   0.356E-01-0.126E-02
CGA: 100    -0.223253412209E+03    0.15234E-01   -0.90608E-02  5760   0.236E+00-0.633E-01
CGA: 101    -0.223267640638E+03   -0.14228E-01   -0.15038E-01  5760   0.275E+00-0.244E-01
CGA: 102    -0.223277989368E+03   -0.10349E-01   -0.12199E-01  5760   0.500E-01-0.199E-02
CGA: 103    -0.223281826837E+03   -0.38375E-02   -0.40878E-02  5760   0.116E+00-0.112E-01
CGA: 104    -0.223286550859E+03   -0.47240E-02   -0.47290E-02  5760   0.540E-01-0.406E-03
CGA: 105    -0.223287529446E+03   -0.97859E-03   -0.17719E-02  5760   0.266E-01-0.107E-01
CGA: 106    -0.223289953949E+03   -0.24245E-02   -0.24168E-02  5760   0.357E-01-0.248E-02
CGA: 107    -0.223291401322E+03   -0.14474E-02   -0.14699E-02  5760   0.802E-02-0.270E-03
CGA: 108    -0.223292492894E+03   -0.10916E-02   -0.10559E-02  5760   0.234E-01-0.402E-03
CGA: 109    -0.223294275240E+03   -0.17823E-02   -0.16835E-02  5760   0.169E-01-0.597E-03
CGA: 110    -0.223297254585E+03   -0.29793E-02   -0.28832E-02  5760   0.377E-01 0.167E-02
CGA: 111    -0.223299990221E+03   -0.27356E-02   -0.26694E-02  5760   0.182E-01 0.173E-02
CGA: 112    -0.223301949484E+03   -0.19593E-02   -0.19902E-02  5760   0.358E-01-0.203E-02
CGA: 113    -0.223305091022E+03   -0.31415E-02   -0.30969E-02  5760   0.330E-01-0.298E-02
CGA: 114    -0.223307793307E+03   -0.27023E-02   -0.28947E-02  5760   0.158E-01 0.226E-02
CGA: 115    -0.223310233207E+03   -0.24399E-02   -0.24199E-02  5760   0.288E-01-0.114E-02
CGA: 116    -0.223311909721E+03   -0.16765E-02   -0.19309E-02  5760   0.126E-01 0.787E-03
CGA: 117    -0.223313707047E+03   -0.17973E-02   -0.17787E-02  5760   0.288E-01-0.132E-02
CGA: 118    -0.223314589561E+03   -0.88251E-03   -0.11644E-02  5760   0.113E-01 0.973E-03
CGA: 119    -0.223315502570E+03   -0.91301E-03   -0.96303E-03  5760   0.223E-01-0.286E-02
CGA: 120    -0.223316749358E+03   -0.12468E-02   -0.11894E-02  5760   0.183E-01-0.209E-02
CGA: 121    -0.223317252982E+03   -0.50362E-03   -0.60859E-03  5760   0.778E-02-0.105E-02
CGA: 122    -0.223318132644E+03   -0.87966E-03   -0.88141E-03  5760   0.201E-01 0.521E-04
CGA: 123    -0.223318932159E+03   -0.79951E-03   -0.99696E-03  5760   0.981E-02 0.447E-03
CGA: 124    -0.223319442659E+03   -0.51050E-03   -0.54441E-03  5760   0.135E-01-0.148E-02
CGA: 125    -0.223320405739E+03   -0.96308E-03   -0.96705E-03  5760   0.199E-01-0.454E-03
CGA: 126    -0.223320949841E+03   -0.54410E-03   -0.60760E-03  5760   0.540E-02-0.128E-03
CGA: 127    -0.223321281152E+03   -0.33131E-03   -0.33236E-03  5760   0.106E-01-0.607E-03
CGA: 128    -0.223321968953E+03   -0.68780E-03   -0.68849E-03  5760   0.202E-01 0.441E-03
CGA: 129    -0.223322450707E+03   -0.48175E-03   -0.68758E-03  5760   0.962E-02 0.302E-03
CGA: 130    -0.223322837926E+03   -0.38722E-03   -0.45660E-03  5760   0.132E-01-0.167E-02
SDA: 131    -0.223323755420E+03   -0.91749E-03   -0.90789E-03  5760   0.201E-01-0.539E-02
CGA: 132    -0.223324320893E+03   -0.56547E-03   -0.75102E-03  5760   0.325E-02-0.130E-02
CGA: 133    -0.223324863574E+03   -0.54268E-03   -0.53219E-03  5760   0.472E-02 0.643E-04
CGA: 134    -0.223325108960E+03   -0.24539E-03   -0.28796E-03  5760   0.235E-02-0.134E-04
CGA: 135    -0.223325418274E+03   -0.30931E-03   -0.30888E-03  5760   0.271E-02 0.224E-05
CGA: 136    -0.223325594739E+03   -0.17647E-03   -0.17800E-03  5760   0.174E-02 0.443E-04
CGA: 137    -0.223326034538E+03   -0.43980E-03   -0.41509E-03  5760   0.151E-02 0.130E-03
CGA: 138    -0.223326175365E+03   -0.14083E-03   -0.14120E-03  5760   0.220E-02 0.690E-05
CGA: 139    -0.223326512689E+03   -0.33732E-03   -0.33080E-03  5760   0.166E-02 0.155E-03
CGA: 140    -0.223326625330E+03   -0.11264E-03   -0.12608E-03  5760   0.165E-02-0.232E-03
CGA: 141    -0.223326856564E+03   -0.23123E-03   -0.24366E-03  5760   0.106E-02-0.135E-03
CGA: 142    -0.223326988537E+03   -0.13197E-03   -0.12920E-03  5760   0.173E-02-0.914E-04
CGA: 143    -0.223327111476E+03   -0.12294E-03   -0.12651E-03  5760   0.580E-03 0.647E-04
CGA: 144    -0.223327290276E+03   -0.17880E-03   -0.16963E-03  5760   0.123E-02 0.198E-04
CGA: 145    -0.223327360513E+03   -0.70237E-04   -0.74464E-04  5760   0.941E-03-0.293E-04
CGA: 146    -0.223327557953E+03   -0.19744E-03   -0.17854E-03  5760   0.636E-03 0.107E-03
CGA: 147    -0.223327619117E+03   -0.61164E-04   -0.63010E-04  5760   0.975E-03-0.263E-04
CGA: 148    -0.223327746752E+03   -0.12763E-03   -0.12270E-03  5760   0.535E-03 0.184E-03
CGA: 149    -0.223327798913E+03   -0.52162E-04   -0.56031E-04  5760   0.982E-03-0.936E-04
CGA: 150    -0.223327915777E+03   -0.11686E-03   -0.14269E-03  5760   0.705E-03-0.294E-03
CGA: 151    -0.223327970311E+03   -0.54533E-04   -0.54458E-04  5760   0.106E-02 0.254E-04
CGA: 152    -0.223328053548E+03   -0.83237E-04   -0.87708E-04  5760   0.457E-03-0.380E-04
CGA: 153    -0.223328188723E+03   -0.13518E-03   -0.15230E-03  5760   0.605E-03-0.628E-04
CGA: 154    -0.223328274615E+03   -0.85892E-04   -0.84651E-04  5760   0.868E-03-0.489E-04
CGA: 155    -0.223328328000E+03   -0.53386E-04   -0.57124E-04  5760   0.535E-03-0.213E-04
CGA: 156    -0.223328409413E+03   -0.81413E-04   -0.79777E-04  5760   0.598E-03-0.142E-05
CGA: 157    -0.223328455892E+03   -0.46479E-04   -0.49369E-04  5760   0.605E-03-0.112E-04
CGA: 158    -0.223328522890E+03   -0.66998E-04   -0.67175E-04  5760   0.458E-03 0.117E-04
CGA: 159    -0.223328570383E+03   -0.47493E-04   -0.48318E-04  5760   0.411E-03 0.251E-04
CGA: 160    -0.223328607955E+03   -0.37572E-04   -0.38331E-04  5760   0.282E-03 0.202E-04
CGA: 161    -0.223328642366E+03   -0.34411E-04   -0.34525E-04  5760   0.353E-03-0.100E-04
SDA: 162    -0.223328679593E+03   -0.37227E-04   -0.37288E-04  5760   0.349E-03 0.780E-05
CGA: 163    -0.223328694866E+03   -0.15273E-04   -0.17678E-04  5760   0.248E-03-0.547E-04
CGA: 164    -0.223328715454E+03   -0.20587E-04   -0.21111E-04  5760   0.923E-04 0.236E-04
CGA: 165    -0.223328723124E+03   -0.76704E-05   -0.82826E-05  5760   0.190E-03-0.214E-04
CGA: 166    -0.223328741198E+03   -0.18074E-04   -0.18294E-04  5760   0.273E-03-0.202E-04
CGA: 167    -0.223328748222E+03   -0.70239E-05   -0.96104E-05  5760   0.118E-03-0.232E-04
CGA: 168    -0.223328761047E+03   -0.12825E-04   -0.12836E-04  5760   0.221E-03-0.699E-05
CGA: 169    -0.223328771365E+03   -0.10318E-04   -0.10852E-04  5760   0.733E-04-0.426E-05
CGA: 170    -0.223328777854E+03   -0.64891E-05   -0.64992E-05  5760   0.149E-03 0.103E-05
CGA: 171    -0.223328792030E+03   -0.14176E-04   -0.14257E-04  5760   0.761E-04 0.317E-05
CGA: 172    -0.223328796836E+03   -0.48059E-05   -0.50103E-05  5760   0.997E-04-0.113E-05
CGA: 173    -0.223328807936E+03   -0.11100E-04   -0.11131E-04  5760   0.527E-04-0.390E-05
CGA: 174    -0.223328811375E+03   -0.34387E-05   -0.34086E-05  5760   0.778E-04-0.149E-06
CGA: 175    -0.223328822648E+03   -0.11273E-04   -0.11018E-04  5760   0.745E-04 0.270E-05
CGA: 176    -0.223328826711E+03   -0.40628E-05   -0.41343E-05  5760   0.668E-04-0.128E-05
CGA: 177    -0.223328838103E+03   -0.11392E-04   -0.11381E-04  5760   0.141E-03-0.345E-05
CGA: 178    -0.223328842589E+03   -0.44862E-05   -0.54690E-05  5760   0.378E-04-0.122E-05
CGA: 179    -0.223328846296E+03   -0.37072E-05   -0.37156E-05  5760   0.102E-03-0.796E-05
CGA: 180    -0.223328851127E+03   -0.48312E-05   -0.48948E-05  5760   0.774E-04-0.292E-06
CGA: 181    -0.223328853169E+03   -0.20416E-05   -0.27483E-05  5760   0.451E-04-0.125E-04
CGA: 182    -0.223328858245E+03   -0.50756E-05   -0.51525E-05  5760   0.141E-03-0.536E-05
CGA: 183    -0.223328861275E+03   -0.30305E-05   -0.43335E-05  5760   0.429E-04 0.188E-05
CGA: 184    -0.223328862631E+03   -0.13559E-05   -0.17376E-05  5760   0.437E-04-0.958E-05
CGA: 185    -0.223328866283E+03   -0.36520E-05   -0.37346E-05  5760   0.133E-03-0.947E-05
CGA: 186    -0.223328868778E+03   -0.24945E-05   -0.32248E-05  5760   0.597E-04-0.459E-06
CGA: 187    -0.223328870262E+03   -0.14849E-05   -0.19104E-05  5760   0.423E-04-0.108E-04
CGA: 188    -0.223328872792E+03   -0.25298E-05   -0.24918E-05  5760   0.909E-04-0.433E-05
CGA: 189    -0.223328875221E+03   -0.24288E-05   -0.29342E-05  5760   0.482E-04 0.446E-05
CGA: 190    -0.223328876513E+03   -0.12918E-05   -0.15606E-05  5760   0.269E-04-0.422E-05
CGA: 191    -0.223328878286E+03   -0.17734E-05   -0.17656E-05  5760   0.583E-04-0.236E-05
CGA: 192    -0.223328881008E+03   -0.27215E-05   -0.26784E-05  5760   0.340E-04-0.205E-05
SDA: 193    -0.223328882003E+03   -0.99538E-06   -0.97387E-06  5760   0.161E-04 0.105E-06
CGA: 194    -0.223328883671E+03   -0.16678E-05   -0.16396E-05  5760   0.893E-05 0.503E-06
CGA: 195    -0.223328884237E+03   -0.56592E-06   -0.58484E-06  5760   0.601E-05 0.138E-06
CGA: 196    -0.223328886031E+03   -0.17937E-05   -0.17705E-05  5760   0.454E-05 0.661E-07
CGA: 197    -0.223328887741E+03   -0.17101E-05   -0.17671E-05  5760   0.196E-04-0.364E-06
CGA: 198    -0.223328888673E+03   -0.93232E-06   -0.10232E-05  5760   0.755E-05 0.492E-07
CGA: 199    -0.223328890584E+03   -0.19107E-05   -0.18311E-05  5760   0.178E-04-0.796E-07
CGA: 200    -0.223328891573E+03   -0.98960E-06   -0.10586E-05  5760   0.111E-04-0.383E-06
CGA: 201    -0.223328893803E+03   -0.22301E-05   -0.22712E-05  5760   0.796E-05-0.467E-06
CGA: 202    -0.223328894714E+03   -0.91049E-06   -0.90924E-06  5760   0.169E-04-0.654E-06
CGA: 203    -0.223328895951E+03   -0.12368E-05   -0.12743E-05  5760   0.568E-05 0.418E-06
CGA: 204    -0.223328896512E+03   -0.56105E-06   -0.56534E-06  5760   0.108E-04-0.325E-06
   1 F= -.23208549E+03 E0= -.23207798E+03  d E =-.150125E-01  mag=     6.0000
