 running on   64 total cores
 distrk:  each k-point on   64 cores,    1 groups
 distr:  one band on    4 cores,   16 groups
 using from now: INCAR     
 vasp.5.4.4.18Apr17-6-g9f103f2a35 (build Nov 22 2021 14:44:17) complex          
  
 POSCAR found type information on POSCAR  Li Co O 
 POSCAR found :  3 types and      42 ions
 scaLAPACK will be used
 LDA part: xc-table for Pade appr. of Perdew
 generate k-points for:    6    6    2
 POSCAR, INCAR and KPOINTS ok, starting setup
 FFT: planning ...
 WAVECAR not read
 entering main loop
       N       E                     dE             d eps       ncg     rms          ort
DAV:   1     0.356388157825E+04    0.35639E+04   -0.14019E+05  5760   0.227E+03
DAV:   2     0.412180234086E+03   -0.31517E+04   -0.29087E+04  5760   0.561E+02
DAV:   3    -0.218092862661E+03   -0.63027E+03   -0.56576E+03  5760   0.259E+02
DAV:   4    -0.269652843036E+03   -0.51560E+02   -0.50444E+02  5760   0.764E+01
DAV:   5    -0.271237313182E+03   -0.15845E+01   -0.15821E+01  5760   0.134E+01
 gam= 0.000 g(H,U,f)=  0.164E+04 0.102E+04 0.103E+04 ort(H,U,f) = 0.000E+00 0.000E+00 0.000E+00
SDA:   6     0.948751692265E+02    0.36611E+03   -0.15821E+01  5760   0.369E+04 0.000E+00
 gam= 0.000 trial= 0.400  step= 0.091 mean= 0.400
 gam= 0.000 g(H,U,f)=  0.947E+03 0.325E+04 0.112E+05 ort(H,U,f) = 0.749E+03-0.503E+03-0.303E+04
CGA:   7     0.512875058297E+02   -0.43588E+02   -0.16829E+03  5760   0.154E+05-0.278E+04
 gam= 0.000 trial= 0.385  step= 0.124 mean= 0.385
 gam= 0.000 g(H,U,f)=  0.637E+04 0.491E+05 0.130E+06 ort(H,U,f) =-0.178E+04-0.955E+04-0.272E+05
CGA:   8     0.216608521585E+04    0.21148E+04   -0.95537E+03  5760   0.186E+06-0.386E+05
 gam= 0.000 trial= 0.372  step= 0.162 mean= 0.372
 gam= 0.153 g(H,U,f)=  0.178E+05 0.106E+05 0.737E+02 ort(H,U,f) =-0.903E+04-0.335E+04-0.241E+02
CGA:   9     0.991214229859E+04    0.77461E+04   -0.15054E+05  5760   0.285E+05-0.124E+05
 gam= 0.153 trial= 0.361  step= 0.221 mean= 0.361
 gam= 0.000 g(H,U,f)=  0.199E+05 0.160E+05 0.367E+04 ort(H,U,f) =-0.112E+05-0.578E+04 0.118E+03
CGA:  10     0.616081805607E+04   -0.37513E+04   -0.29365E+04  5760   0.395E+05-0.168E+05
 gam= 0.000 trial= 0.354  step= 0.135 mean= 0.354
 gam= 0.000 g(H,U,f)=  0.159E+05 0.935E+05 0.363E+05 ort(H,U,f) = 0.314E+04-0.514E+05-0.261E+05
CGA:  11     0.535776559189E+04   -0.80305E+03   -0.26718E+04  5760   0.146E+06-0.744E+05
 gam= 0.000 trial= 0.343  step= 0.162 mean= 0.343
 gam= 0.659 g(H,U,f)=  0.338E+05 0.523E+05 0.991E+04 ort(H,U,f) =-0.153E+05-0.298E+05-0.518E+04
CGA:  12     0.411969916510E+04   -0.12381E+04   -0.11787E+05  5760   0.959E+05-0.502E+05
 gam= 0.659 trial= 0.334  step= 0.146 mean= 0.334
 gam= 0.684 g(H,U,f)=  0.243E+05 0.372E+05 0.410E+04 ort(H,U,f) = 0.634E+04-0.855E+04-0.150E+04
CGA:  13     0.456352806858E+04    0.44383E+03   -0.45947E+04  5760   0.657E+05-0.371E+04
 gam= 0.684 trial= 0.325  step= 0.104 mean= 0.325
 gam= 1.180 g(H,U,f)=  0.193E+05 0.547E+05 0.352E+04 ort(H,U,f) =-0.211E+04-0.130E+05-0.540E+03
CGA:  14     0.277730948192E+04   -0.17862E+04   -0.32676E+04  5760   0.775E+05-0.157E+05
 gam= 1.180 trial= 0.314  step= 0.099 mean= 0.314
 gam= 1.722 g(H,U,f)=  0.679E+05 0.637E+05 0.176E+04 ort(H,U,f) =-0.267E+04-0.198E+05-0.810E+03
CGA:  15     0.749532776431E+04    0.47180E+04   -0.29271E+04  5760   0.133E+06-0.233E+05
 gam= 1.722 trial= 0.303  step= 0.180 mean= 0.303
 gam= 0.419 g(H,U,f)=  0.408E+05 0.149E+05 0.188E+03 ort(H,U,f) = 0.122E+05 0.536E+04 0.812E+02
CGA:  16     0.361694568995E+04   -0.38784E+04   -0.83975E+04  5760   0.559E+05 0.176E+05
 gam= 0.419 trial= 0.297  step= 0.133 mean= 0.297
 gam= 0.086 g(H,U,f)=  0.363E+04 0.116E+04 0.130E+02 ort(H,U,f) = 0.212E+04 0.752E+02-0.754E+01
CGA:  17     0.128877414300E+04   -0.23282E+04   -0.42046E+04  5760   0.481E+04 0.219E+04
 gam= 0.086 trial= 0.289  step= 0.100 mean= 0.289
 gam= 0.379 g(H,U,f)=  0.158E+04 0.237E+03 0.300E+01 ort(H,U,f) = 0.186E+03 0.535E+02-0.142E+01
CGA:  18     0.104165248792E+04   -0.24712E+03   -0.25073E+03  5760   0.182E+04 0.238E+03
 gam= 0.379 trial= 0.279  step= 0.234 mean= 0.279
 gam= 1.798 g(H,U,f)=  0.202E+04 0.123E+04 0.238E+02 ort(H,U,f) = 0.349E+03-0.243E+03-0.483E+01
CGA:  19     0.824257949265E+03   -0.21739E+03   -0.22322E+03  5760   0.327E+04 0.101E+03
 gam= 1.798 trial= 0.277  step= 0.265 mean= 0.277
 gam= 0.323 g(H,U,f)=  0.596E+03 0.453E+03 0.773E+01 ort(H,U,f) =-0.416E+02 0.281E+03-0.394E+00
CGA:  20     0.369408891149E+03   -0.45485E+03   -0.45717E+03  5760   0.106E+04 0.239E+03
 gam= 0.323 trial= 0.276  step= 0.240 mean= 0.276
 gam= 1.786 g(H,U,f)=  0.702E+03 0.116E+04 0.239E+02 ort(H,U,f) = 0.268E+03-0.535E+03-0.199E+02
CGA:  21     0.216788611093E+03   -0.15262E+03   -0.13586E+03  5760   0.189E+04-0.287E+03
 gam= 1.786 trial= 0.274  step= 0.076 mean= 0.274
 gam= 1.789 g(H,U,f)=  0.779E+03 0.251E+04 0.861E+02 ort(H,U,f) = 0.759E+03-0.546E+03-0.451E+02
CGA:  22     0.181930196260E+03   -0.34858E+02   -0.52200E+02  5760   0.338E+04 0.168E+03
 gam= 1.789 trial= 0.265  step= 0.090 mean= 0.265
 gam= 0.562 g(H,U,f)=  0.546E+03 0.131E+04 0.476E+02 ort(H,U,f) =-0.292E+03-0.134E+03 0.461E+01
CGA:  23     0.103093326852E+03   -0.78837E+02   -0.16583E+03  5760   0.190E+04-0.422E+03
 gam= 0.562 trial= 0.256  step= 0.047 mean= 0.256
 gam= 0.623 g(H,U,f)=  0.563E+03 0.602E+03 0.189E+02 ort(H,U,f) =-0.221E+03-0.253E+03-0.171E+02
CGA:  24     0.809349254480E+02   -0.22158E+02   -0.38994E+02  5760   0.118E+04-0.491E+03
 gam= 0.623 trial= 0.245  step= 0.057 mean= 0.245
 gam= 1.263 g(H,U,f)=  0.567E+03 0.886E+03 0.426E+02 ort(H,U,f) = 0.189E+03-0.204E+03-0.162E+02
CGA:  25     0.609592508941E+02   -0.19976E+02   -0.25047E+02  5760   0.150E+04-0.316E+02
 gam= 1.263 trial= 0.236  step= 0.060 mean= 0.236
 gam= 0.588 g(H,U,f)=  0.401E+03 0.464E+03 0.141E+02 ort(H,U,f) = 0.289E+03-0.341E+03-0.586E+01
CGA:  26     0.285803922300E+02   -0.32379E+02   -0.43776E+02  5760   0.879E+03-0.578E+02
 gam= 0.588 trial= 0.227  step= 0.052 mean= 0.227
 gam= 0.856 g(H,U,f)=  0.359E+03 0.386E+03 0.729E+01 ort(H,U,f) = 0.311E+03-0.362E+03-0.903E+01
CGA:  27     0.132698321487E+02   -0.15311E+02   -0.21773E+02  5760   0.752E+03-0.594E+02
 gam= 0.856 trial= 0.218  step= 0.095 mean= 0.218
 gam= 1.700 g(H,U,f)=  0.293E+03 0.950E+03 0.364E+02 ort(H,U,f) = 0.228E+03-0.238E+03-0.112E+02
CGA:  28    -0.150825191432E+02   -0.28352E+02   -0.33305E+02  5760   0.128E+04-0.220E+02
 gam= 1.700 trial= 0.212  step= 0.052 mean= 0.212
 gam= 0.378 g(H,U,f)=  0.180E+03 0.293E+03 0.101E+02 ort(H,U,f) = 0.143E+03-0.641E+02 0.697E+01
CGA:  29    -0.403853044039E+02   -0.25303E+02   -0.32204E+02  5760   0.483E+03 0.862E+02
 gam= 0.378 trial= 0.204  step= 0.048 mean= 0.204
 gam= 0.530 g(H,U,f)=  0.155E+03 0.993E+02 0.178E+01 ort(H,U,f) = 0.109E+03-0.139E+03-0.298E+01
CGA:  30    -0.506693476361E+02   -0.10284E+02   -0.12456E+02  5760   0.256E+03-0.327E+02
 gam= 0.530 trial= 0.196  step= 0.123 mean= 0.196
 gam= 2.568 g(H,U,f)=  0.164E+03 0.473E+03 0.211E+02 ort(H,U,f) = 0.117E+03-0.110E+03-0.491E+01
CGA:  31    -0.651998595990E+02   -0.14531E+02   -0.14696E+02  5760   0.658E+03 0.255E+01
 gam= 2.568 trial= 0.193  step= 0.089 mean= 0.193
 gam= 0.712 g(H,U,f)=  0.126E+03 0.328E+03 0.141E+02 ort(H,U,f) =-0.815E+01 0.434E+02 0.439E+01
CGA:  32    -0.949602351073E+02   -0.29760E+02   -0.29426E+02  5760   0.469E+03 0.396E+02
 gam= 0.712 trial= 0.188  step= 0.053 mean= 0.188
 gam= 0.487 g(H,U,f)=  0.118E+03 0.109E+03 0.141E+01 ort(H,U,f) =-0.531E+02 0.319E+02 0.126E+01
CGA:  33    -0.107442288786E+03   -0.12482E+02   -0.13258E+02  5760   0.228E+03-0.199E+02
 gam= 0.487 trial= 0.181  step= 0.097 mean= 0.181
 gam= 1.321 g(H,U,f)=  0.103E+03 0.194E+03 0.416E+01 ort(H,U,f) =-0.655E+00 0.122E+02-0.202E+01
CGA:  34    -0.119351655210E+03   -0.11909E+02   -0.10650E+02  5760   0.301E+03 0.956E+01
 gam= 1.321 trial= 0.177  step= 0.056 mean= 0.177
 gam= 0.866 g(H,U,f)=  0.942E+02 0.162E+03 0.496E+01 ort(H,U,f) =-0.678E+01 0.362E+02-0.281E+01
CGA:  35    -0.129779690402E+03   -0.10428E+02   -0.88261E+01  5760   0.261E+03 0.267E+02
 gam= 0.866 trial= 0.171  step= 0.060 mean= 0.171
 gam= 1.010 g(H,U,f)=  0.107E+03 0.153E+03 0.375E+01 ort(H,U,f) =-0.664E+01-0.946E+01-0.173E+01
CGA:  36    -0.138036022054E+03   -0.82563E+01   -0.85756E+01  5760   0.264E+03-0.178E+02
 gam= 1.010 trial= 0.165  step= 0.063 mean= 0.165
 gam= 1.279 g(H,U,f)=  0.117E+03 0.210E+03 0.110E+02 ort(H,U,f) = 0.139E+02-0.165E+01-0.470E+01
CGA:  37    -0.146198643890E+03   -0.81626E+01   -0.77063E+01  5760   0.337E+03 0.753E+01
 gam= 1.279 trial= 0.160  step= 0.059 mean= 0.160
 gam= 1.182 g(H,U,f)=  0.112E+03 0.272E+03 0.146E+02 ort(H,U,f) = 0.954E+01-0.131E+01-0.549E+01
CGA:  38    -0.156434971494E+03   -0.10236E+02   -0.10199E+02  5760   0.399E+03 0.274E+01
 gam= 1.182 trial= 0.155  step= 0.041 mean= 0.155
 gam= 0.747 g(H,U,f)=  0.926E+02 0.198E+03 0.708E+01 ort(H,U,f) = 0.394E+01 0.610E+02-0.106E+01
CGA:  39    -0.166402303851E+03   -0.99673E+01   -0.82548E+01  5760   0.298E+03 0.638E+02
 gam= 0.747 trial= 0.149  step= 0.040 mean= 0.149
 gam= 0.599 g(H,U,f)=  0.697E+02 0.105E+03 0.362E+01 ort(H,U,f) = 0.444E+01 0.360E+02 0.368E+01
CGA:  40    -0.173901321181E+03   -0.74990E+01   -0.69210E+01  5760   0.178E+03 0.441E+02
 gam= 0.599 trial= 0.144  step= 0.033 mean= 0.144
 gam= 0.667 g(H,U,f)=  0.556E+02 0.602E+02 0.300E+01 ort(H,U,f) = 0.310E+02 0.156E+02 0.205E+01
CGA:  41    -0.177858275582E+03   -0.39570E+01   -0.33539E+01  5760   0.119E+03 0.487E+02
 gam= 0.667 trial= 0.138  step= 0.039 mean= 0.138
 gam= 0.000 g(H,U,f)=  0.481E+02 0.574E+02 0.353E+01 ort(H,U,f) = 0.432E+02-0.325E+02-0.468E+00
SDA:  42    -0.180856959113E+03   -0.29987E+01   -0.29161E+01  5760   0.109E+03 0.103E+02
 gam= 0.000 trial= 0.133  step= 0.116 mean= 0.133
 gam= 0.879 g(H,U,f)=  0.354E+02 0.559E+02 0.457E+01 ort(H,U,f) = 0.308E+02-0.287E+02-0.513E+01
CGA:  43    -0.187183505771E+03   -0.63265E+01   -0.63268E+01  5760   0.959E+02-0.308E+01
 gam= 0.879 trial= 0.132  step= 0.324 mean= 0.132
 gam= 0.637 g(H,U,f)=  0.265E+02 0.338E+02 0.809E+00 ort(H,U,f) = 0.297E+01-0.449E+01-0.214E+00
CGA:  44    -0.202126125948E+03   -0.14943E+02   -0.15116E+02  5760   0.611E+02-0.173E+01
 gam= 0.637 trial= 0.142  step= 0.246 mean= 0.142
 gam= 0.384 g(H,U,f)=  0.101E+02 0.127E+02 0.701E+00 ort(H,U,f) =-0.545E+01 0.339E+01 0.140E+00
CGA:  45    -0.209416375707E+03   -0.72902E+01   -0.73896E+01  5760   0.235E+02-0.192E+01
 gam= 0.384 trial= 0.147  step= 0.219 mean= 0.147
 gam= 0.921 g(H,U,f)=  0.564E+01 0.151E+02 0.935E+00 ort(H,U,f) =-0.446E+00 0.244E+01-0.448E+00
CGA:  46    -0.211992788576E+03   -0.25764E+01   -0.24914E+01  5760   0.216E+02 0.155E+01
 gam= 0.921 trial= 0.151  step= 0.156 mean= 0.151
 gam= 0.774 g(H,U,f)=  0.574E+01 0.101E+02 0.919E+00 ort(H,U,f) =-0.172E+01 0.123E+01 0.125E+00
CGA:  47    -0.213783318911E+03   -0.17905E+01   -0.17939E+01  5760   0.168E+02-0.367E+00
 gam= 0.774 trial= 0.151  step= 0.282 mean= 0.151
 gam= 0.754 g(H,U,f)=  0.488E+01 0.681E+01 0.952E+00 ort(H,U,f) =-0.188E+01 0.381E+01-0.840E-01
CGA:  48    -0.216292594411E+03   -0.25093E+01   -0.23271E+01  5760   0.126E+02 0.184E+01
 gam= 0.754 trial= 0.158  step= 0.157 mean= 0.158
 gam= 0.592 g(H,U,f)=  0.242E+01 0.390E+01 0.117E+01 ort(H,U,f) =-0.619E+00 0.813E+00-0.202E+00
CGA:  49    -0.217395462579E+03   -0.11029E+01   -0.11028E+01  5760   0.749E+01-0.744E-02
 gam= 0.592 trial= 0.158  step= 0.182 mean= 0.158
 gam= 0.500 g(H,U,f)=  0.171E+01 0.184E+01 0.196E+00 ort(H,U,f) = 0.771E-01 0.903E+00-0.934E-01
CGA:  50    -0.218094737179E+03   -0.69927E+00   -0.67978E+00  5760   0.375E+01 0.887E+00
 gam= 0.500 trial= 0.159  step= 0.256 mean= 0.159
 gam= 1.004 g(H,U,f)=  0.115E+01 0.193E+01 0.676E+00 ort(H,U,f) = 0.233E+00 0.934E-02-0.262E+00
CGA:  51    -0.218635649303E+03   -0.54091E+00   -0.53589E+00  5760   0.376E+01-0.190E-01
 gam= 1.004 trial= 0.164  step= 0.152 mean= 0.164
 gam= 0.633 g(H,U,f)=  0.906E+00 0.122E+01 0.258E+00 ort(H,U,f) = 0.121E+00-0.225E-01-0.135E+00
CGA:  52    -0.218920033735E+03   -0.28438E+00   -0.28370E+00  5760   0.238E+01-0.363E-01
 gam= 0.633 trial= 0.163  step= 0.234 mean= 0.163
 gam= 0.537 g(H,U,f)=  0.475E+00 0.676E+00 0.129E+00 ort(H,U,f) =-0.981E-01 0.319E+00 0.125E+00
CGA:  53    -0.219210793686E+03   -0.29076E+00   -0.27659E+00  5760   0.128E+01 0.346E+00
 gam= 0.537 trial= 0.167  step= 0.190 mean= 0.167
 gam= 1.018 g(H,U,f)=  0.345E+00 0.728E+00 0.231E+00 ort(H,U,f) = 0.131E-01 0.230E+00-0.612E-01
CGA:  54    -0.219353614439E+03   -0.14282E+00   -0.13913E+00  5760   0.130E+01 0.182E+00
 gam= 1.018 trial= 0.168  step= 0.243 mean= 0.168
 gam= 1.132 g(H,U,f)=  0.549E+00 0.790E+00 0.137E+00 ort(H,U,f) =-0.216E+00 0.246E+00-0.129E+00
CGA:  55    -0.219529781913E+03   -0.17617E+00   -0.18056E+00  5760   0.148E+01-0.988E-01
 gam= 1.132 trial= 0.171  step= 0.316 mean= 0.171
 gam= 0.896 g(H,U,f)=  0.596E+00 0.650E+00 0.761E-01 ort(H,U,f) =-0.489E+00 0.540E+00-0.669E-01
CGA:  56    -0.219743360653E+03   -0.21358E+00   -0.21524E+00  5760   0.132E+01-0.162E-01
 gam= 0.896 trial= 0.179  step= 0.160 mean= 0.179
 gam= 0.974 g(H,U,f)=  0.548E+00 0.544E+00 0.195E+00 ort(H,U,f) =-0.325E+00 0.352E+00-0.104E-01
CGA:  57    -0.219848046391E+03   -0.10469E+00   -0.10438E+00  5760   0.129E+01 0.167E-01
 gam= 0.974 trial= 0.178  step= 0.195 mean= 0.178
 gam= 1.167 g(H,U,f)=  0.605E+00 0.707E+00 0.191E+00 ort(H,U,f) =-0.241E+00 0.117E+00 0.154E+00
CGA:  58    -0.219975154833E+03   -0.12711E+00   -0.12732E+00  5760   0.150E+01 0.291E-01
 gam= 1.167 trial= 0.179  step= 0.154 mean= 0.179
 gam= 0.961 g(H,U,f)=  0.564E+00 0.811E+00 0.687E-01 ort(H,U,f) =-0.996E-01 0.172E+00 0.718E-01
CGA:  59    -0.220092141075E+03   -0.11699E+00   -0.11866E+00  5760   0.144E+01 0.144E+00
 gam= 0.961 trial= 0.177  step= 0.137 mean= 0.177
 gam= 0.712 g(H,U,f)=  0.351E+00 0.642E+00 0.341E-01 ort(H,U,f) =-0.296E-01 0.233E+00-0.222E-01
CGA:  60    -0.220197405314E+03   -0.10526E+00   -0.10869E+00  5760   0.103E+01 0.181E+00
 gam= 0.712 trial= 0.175  step= 0.151 mean= 0.175
 gam= 0.775 g(H,U,f)=  0.270E+00 0.521E+00 0.593E-02 ort(H,U,f) =-0.971E-01 0.254E+00 0.127E-01
CGA:  61    -0.220282667697E+03   -0.85262E-01   -0.87211E-01  5760   0.797E+00 0.169E+00
 gam= 0.775 trial= 0.174  step= 0.165 mean= 0.174
 gam= 1.265 g(H,U,f)=  0.319E+00 0.557E+00 0.132E+00 ort(H,U,f) =-0.860E-01 0.267E+00-0.384E-01
CGA:  62    -0.220358596245E+03   -0.75929E-01   -0.76477E-01  5760   0.101E+01 0.143E+00
 gam= 1.265 trial= 0.174  step= 0.157 mean= 0.174
 gam= 0.885 g(H,U,f)=  0.357E+00 0.501E+00 0.341E-01 ort(H,U,f) =-0.171E+00 0.369E+00 0.197E-01
CGA:  63    -0.220449711891E+03   -0.91116E-01   -0.93135E-01  5760   0.892E+00 0.218E+00
 gam= 0.885 trial= 0.173  step= 0.170 mean= 0.173
 gam= 1.032 g(H,U,f)=  0.313E+00 0.562E+00 0.460E-01 ort(H,U,f) =-0.136E+00 0.366E+00-0.255E-01
CGA:  64    -0.220541318672E+03   -0.91607E-01   -0.91964E-01  5760   0.920E+00 0.205E+00
 gam= 1.032 trial= 0.173  step= 0.148 mean= 0.173
 gam= 0.863 g(H,U,f)=  0.239E+00 0.513E+00 0.429E-01 ort(H,U,f) =-0.195E+00 0.362E+00-0.291E-01
CGA:  65    -0.220623934947E+03   -0.82616E-01   -0.83655E-01  5760   0.795E+00 0.138E+00
 gam= 0.863 trial= 0.171  step= 0.165 mean= 0.171
 gam= 0.992 g(H,U,f)=  0.260E+00 0.494E+00 0.333E-01 ort(H,U,f) =-0.240E+00 0.367E+00-0.124E-02
CGA:  66    -0.220698784466E+03   -0.74850E-01   -0.75299E-01  5760   0.788E+00 0.126E+00
 gam= 0.992 trial= 0.171  step= 0.146 mean= 0.171
 gam= 1.020 g(H,U,f)=  0.302E+00 0.445E+00 0.569E-01 ort(H,U,f) =-0.199E+00 0.320E+00-0.206E-02
CGA:  67    -0.220764615799E+03   -0.65831E-01   -0.66819E-01  5760   0.804E+00 0.119E+00
 gam= 1.020 trial= 0.170  step= 0.118 mean= 0.170
 gam= 0.686 g(H,U,f)=  0.268E+00 0.281E+00 0.319E-02 ort(H,U,f) =-0.809E-01 0.140E+00 0.180E-01
CGA:  68    -0.220817358038E+03   -0.52742E-01   -0.54791E-01  5760   0.552E+00 0.770E-01
 gam= 0.686 trial= 0.167  step= 0.119 mean= 0.167
 gam= 0.967 g(H,U,f)=  0.219E+00 0.262E+00 0.532E-01 ort(H,U,f) = 0.854E-01-0.364E-01-0.790E-01
CGA:  69    -0.220852208838E+03   -0.34851E-01   -0.36127E-01  5760   0.534E+00-0.300E-01
 gam= 0.967 trial= 0.165  step= 0.120 mean= 0.165
 gam= 0.766 g(H,U,f)=  0.168E+00 0.236E+00 0.516E-02 ort(H,U,f) = 0.125E+00-0.107E+00-0.220E-01
CGA:  70    -0.220882663261E+03   -0.30454E-01   -0.30225E-01  5760   0.409E+00-0.459E-02
 gam= 0.766 trial= 0.163  step= 0.161 mean= 0.163
 gam= 1.157 g(H,U,f)=  0.137E+00 0.294E+00 0.419E-01 ort(H,U,f) = 0.625E-01-0.863E-02-0.144E-01
CGA:  71    -0.220915192749E+03   -0.32529E-01   -0.32560E-01  5760   0.473E+00 0.394E-01
 gam= 1.157 trial= 0.163  step= 0.128 mean= 0.163
 gam= 0.794 g(H,U,f)=  0.125E+00 0.226E+00 0.240E-01 ort(H,U,f) =-0.391E-01 0.107E+00-0.367E-01
CGA:  72    -0.220947541266E+03   -0.32349E-01   -0.33327E-01  5760   0.376E+00 0.310E-01
 gam= 0.794 trial= 0.161  step= 0.167 mean= 0.161
 gam= 0.000 g(H,U,f)=  0.145E+00 0.209E+00 0.363E-01 ort(H,U,f) =-0.100E+00 0.152E+00-0.828E-02
SDA:  73    -0.220981069160E+03   -0.33528E-01   -0.33400E-01  5760   0.391E+00 0.433E-01
 gam= 0.000 trial= 0.161  step= 0.289 mean= 0.161
 gam= 1.784 g(H,U,f)=  0.759E-01 0.403E+00 0.219E+00 ort(H,U,f) = 0.506E-01 0.678E-01-0.754E-01
CGA:  74    -0.221042793118E+03   -0.61724E-01   -0.56559E-01  5760   0.697E+00 0.430E-01
 gam= 1.784 trial= 0.168  step= 0.158 mean= 0.168
 gam= 0.575 g(H,U,f)=  0.933E-01 0.232E+00 0.759E-01 ort(H,U,f) =-0.825E-01 0.125E+00-0.358E-01
CGA:  75    -0.221103792415E+03   -0.60999E-01   -0.60969E-01  5760   0.401E+00 0.631E-02
 gam= 0.575 trial= 0.167  step= 0.263 mean= 0.167
 gam= 0.618 g(H,U,f)=  0.674E-01 0.128E+00 0.525E-01 ort(H,U,f) =-0.432E-01 0.145E+00-0.311E-01
CGA:  76    -0.221162741482E+03   -0.58949E-01   -0.53275E-01  5760   0.248E+00 0.708E-01
 gam= 0.618 trial= 0.172  step= 0.206 mean= 0.172
 gam= 1.651 g(H,U,f)=  0.578E-01 0.202E+00 0.150E+00 ort(H,U,f) =-0.141E-02 0.420E-01-0.482E-01
CGA:  77    -0.221192395628E+03   -0.29654E-01   -0.30101E-01  5760   0.409E+00-0.762E-02
 gam= 1.651 trial= 0.174  step= 0.158 mean= 0.174
 gam= 0.315 g(H,U,f)=  0.488E-01 0.627E-01 0.174E-01 ort(H,U,f) =-0.484E-01 0.874E-01 0.209E-01
CGA:  78    -0.221223044460E+03   -0.30649E-01   -0.31398E-01  5760   0.129E+00 0.598E-01
 gam= 0.315 trial= 0.173  step= 0.138 mean= 0.173
 gam= 1.254 g(H,U,f)=  0.397E-01 0.833E-01 0.386E-01 ort(H,U,f) = 0.123E-01 0.154E-01-0.343E-01
CGA:  79    -0.221232898797E+03   -0.98543E-02   -0.10174E-01  5760   0.162E+00-0.660E-02
 gam= 1.254 trial= 0.171  step= 0.173 mean= 0.171
 gam= 0.415 g(H,U,f)=  0.271E-01 0.356E-01 0.437E-02 ort(H,U,f) =-0.172E-01 0.984E-02-0.203E-02
CGA:  80    -0.221246131010E+03   -0.13232E-01   -0.13243E-01  5760   0.671E-01-0.938E-02
 gam= 0.415 trial= 0.171  step= 0.156 mean= 0.171
 gam= 1.529 g(H,U,f)=  0.221E-01 0.536E-01 0.269E-01 ort(H,U,f) = 0.497E-02 0.402E-02-0.972E-02
CGA:  81    -0.221251059656E+03   -0.49286E-02   -0.49220E-02  5760   0.103E+00-0.731E-03
 gam= 1.529 trial= 0.170  step= 0.154 mean= 0.170
 gam= 0.358 g(H,U,f)=  0.134E-01 0.198E-01 0.346E-02 ort(H,U,f) =-0.141E-01 0.139E-01 0.355E-02
CGA:  82    -0.221258847373E+03   -0.77877E-02   -0.78364E-02  5760   0.367E-01 0.328E-02
 gam= 0.358 trial= 0.170  step= 0.130 mean= 0.170
 gam= 1.346 g(H,U,f)=  0.105E-01 0.263E-01 0.126E-01 ort(H,U,f) = 0.186E-02 0.532E-02-0.861E-02
CGA:  83    -0.221261276394E+03   -0.24290E-02   -0.24566E-02  5760   0.494E-01-0.143E-02
 gam= 1.346 trial= 0.168  step= 0.218 mean= 0.168
 gam= 1.024 g(H,U,f)=  0.132E-01 0.273E-01 0.101E-01 ort(H,U,f) =-0.108E-01 0.131E-01 0.499E-03
CGA:  84    -0.221266538548E+03   -0.52622E-02   -0.51819E-02  5760   0.505E-01 0.286E-02
 gam= 1.024 trial= 0.170  step= 0.108 mean= 0.170
 gam= 0.954 g(H,U,f)=  0.157E-01 0.266E-01 0.589E-02 ort(H,U,f) =-0.653E-02 0.133E-01-0.802E-02
CGA:  85    -0.221269332820E+03   -0.27943E-02   -0.28877E-02  5760   0.482E-01-0.128E-02
 gam= 0.954 trial= 0.167  step= 0.256 mean= 0.167
 gam= 1.096 g(H,U,f)=  0.139E-01 0.257E-01 0.132E-01 ort(H,U,f) =-0.127E-01 0.123E-01-0.274E-02
CGA:  86    -0.221275226332E+03   -0.58935E-02   -0.60186E-02  5760   0.528E-01-0.319E-02
 gam= 1.096 trial= 0.172  step= 0.089 mean= 0.172
 gam= 0.706 g(H,U,f)=  0.170E-01 0.172E-01 0.315E-02 ort(H,U,f) =-0.737E-02 0.102E-01-0.258E-02
CGA:  87    -0.221277399341E+03   -0.21730E-02   -0.21958E-02  5760   0.373E-01 0.238E-03
 gam= 0.706 trial= 0.167  step= 0.256 mean= 0.167
 gam= 1.729 g(H,U,f)=  0.976E-02 0.333E-01 0.214E-01 ort(H,U,f) = 0.629E-03 0.789E-02 0.162E-03
CGA:  88    -0.221282511330E+03   -0.51120E-02   -0.48011E-02  5760   0.645E-01 0.868E-02
 gam= 1.729 trial= 0.172  step= 0.085 mean= 0.172
 gam= 0.239 g(H,U,f)=  0.709E-02 0.820E-02 0.105E-03 ort(H,U,f) =-0.678E-02 0.713E-02-0.164E-02
CGA:  89    -0.221285368821E+03   -0.28575E-02   -0.33832E-02  5760   0.154E-01-0.129E-02
 gam= 0.239 trial= 0.167  step= 0.350 mean= 0.167
 gam= 1.930 g(H,U,f)=  0.540E-02 0.155E-01 0.886E-02 ort(H,U,f) =-0.577E-03 0.818E-03-0.278E-02
CGA:  90    -0.221287896806E+03   -0.25280E-02   -0.26426E-02  5760   0.297E-01-0.254E-02
 gam= 1.930 trial= 0.177  step= 0.083 mean= 0.177
 gam= 0.326 g(H,U,f)=  0.507E-02 0.452E-02 0.871E-04 ort(H,U,f) =-0.148E-02 0.157E-02-0.266E-04
CGA:  91    -0.221288949879E+03   -0.10531E-02   -0.10270E-02  5760   0.968E-02 0.591E-04
 gam= 0.326 trial= 0.172  step= 0.251 mean= 0.172
 gam= 2.200 g(H,U,f)=  0.290E-02 0.111E-01 0.734E-02 ort(H,U,f) = 0.588E-03 0.665E-03-0.332E-03
CGA:  92    -0.221290184095E+03   -0.12342E-02   -0.12175E-02  5760   0.213E-01 0.921E-03
 gam= 2.200 trial= 0.176  step= 0.094 mean= 0.176
 gam= 0.252 g(H,U,f)=  0.246E-02 0.270E-02 0.190E-03 ort(H,U,f) =-0.401E-02 0.378E-02 0.835E-03
CGA:  93    -0.221291130580E+03   -0.94649E-03   -0.10955E-02  5760   0.536E-02 0.603E-03
 gam= 0.252 trial= 0.172  step= 0.164 mean= 0.172
 gam= 2.066 g(H,U,f)=  0.190E-02 0.579E-02 0.338E-02 ort(H,U,f) = 0.356E-03 0.860E-03-0.191E-02
CGA:  94    -0.221291581964E+03   -0.45138E-03   -0.45190E-03  5760   0.111E-01-0.689E-03
 gam= 2.066 trial= 0.171  step= 0.159 mean= 0.171
 gam= 0.696 g(H,U,f)=  0.194E-02 0.410E-02 0.166E-02 ort(H,U,f) =-0.259E-02 0.225E-02-0.398E-03
CGA:  95    -0.221292355816E+03   -0.77385E-03   -0.76813E-03  5760   0.770E-02-0.741E-03
 gam= 0.696 trial= 0.171  step= 0.082 mean= 0.171
 gam= 0.741 g(H,U,f)=  0.213E-02 0.310E-02 0.477E-03 ort(H,U,f) =-0.896E-03 0.145E-02-0.681E-03
CGA:  96    -0.221292641041E+03   -0.28522E-03   -0.29471E-03  5760   0.570E-02-0.125E-03
 gam= 0.741 trial= 0.166  step= 0.231 mean= 0.166
 gam= 1.740 g(H,U,f)=  0.165E-02 0.519E-02 0.308E-02 ort(H,U,f) =-0.613E-03 0.117E-02-0.240E-03
CGA:  97    -0.221293297807E+03   -0.65677E-03   -0.64819E-03  5760   0.992E-02 0.319E-03
 gam= 1.740 trial= 0.170  step= 0.083 mean= 0.170
 gam= 0.442 g(H,U,f)=  0.198E-02 0.226E-02 0.152E-03 ort(H,U,f) =-0.184E-02 0.182E-02-0.409E-03
CGA:  98    -0.221293699482E+03   -0.40167E-03   -0.43522E-03  5760   0.439E-02-0.432E-03
 gam= 0.442 trial= 0.165  step= 0.218 mean= 0.165
 gam= 2.418 g(H,U,f)=  0.156E-02 0.533E-02 0.371E-02 ort(H,U,f) =-0.141E-03 0.856E-03-0.101E-02
CGA:  99    -0.221294153347E+03   -0.45387E-03   -0.45788E-03  5760   0.106E-01-0.291E-03
 gam= 2.418 trial= 0.168  step= 0.088 mean= 0.168
 gam= 0.405 g(H,U,f)=  0.176E-02 0.201E-02 0.523E-03 ort(H,U,f) =-0.212E-02 0.204E-02 0.417E-03
CGA: 100    -0.221294552053E+03   -0.39871E-03   -0.43361E-03  5760   0.430E-02 0.341E-03
 gam= 0.405 trial= 0.164  step= 0.100 mean= 0.164
 gam= 1.248 g(H,U,f)=  0.177E-02 0.272E-02 0.872E-03 ort(H,U,f) = 0.285E-03 0.320E-03-0.910E-03
CGA: 101    -0.221294762636E+03   -0.21058E-03   -0.22075E-03  5760   0.537E-02-0.305E-03
 gam= 1.248 trial= 0.161  step= 0.180 mean= 0.161
 gam= 1.291 g(H,U,f)=  0.135E-02 0.356E-02 0.201E-02 ort(H,U,f) =-0.699E-03 0.662E-03-0.373E-03
CGA: 102    -0.221295208726E+03   -0.44609E-03   -0.44963E-03  5760   0.693E-02-0.410E-03
 gam= 1.291 trial= 0.162  step= 0.065 mean= 0.162
 gam= 0.445 g(H,U,f)=  0.157E-02 0.150E-02 0.166E-04 ort(H,U,f) =-0.131E-02 0.123E-02 0.139E-04
CGA: 103    -0.221295410000E+03   -0.20127E-03   -0.20947E-03  5760   0.308E-02-0.692E-04
 gam= 0.445 trial= 0.157  step= 0.161 mean= 0.157
 gam= 0.000 g(H,U,f)=  0.121E-02 0.399E-02 0.253E-02 ort(H,U,f) = 0.703E-04 0.545E-03-0.688E-03
SDA: 104    -0.221295655231E+03   -0.24523E-03   -0.24528E-03  5760   0.773E-02-0.726E-04
 gam= 0.000 trial= 0.157  step= 0.069 mean= 0.157
 gam= 0.163 g(H,U,f)=  0.403E-03 0.737E-03 0.121E-03 ort(H,U,f) = 0.404E-03-0.127E-03-0.511E-03
CGA: 105    -0.221295885796E+03   -0.23057E-03   -0.26776E-03  5760   0.126E-02-0.234E-03
 gam= 0.163 trial= 0.153  step= 0.379 mean= 0.153
 gam= 1.156 g(H,U,f)=  0.344E-03 0.872E-03 0.243E-03 ort(H,U,f) =-0.136E-03 0.185E-03-0.367E-04
CGA: 106    -0.221296117032E+03   -0.23124E-03   -0.23201E-03  5760   0.146E-02 0.115E-04
 gam= 1.156 trial= 0.164  step= 0.248 mean= 0.164
 gam= 1.784 g(H,U,f)=  0.530E-03 0.147E-02 0.606E-03 ort(H,U,f) =-0.136E-03 0.499E-03-0.310E-03
CGA: 107    -0.221296311571E+03   -0.19454E-03   -0.18279E-03  5760   0.260E-02 0.531E-04
 gam= 1.784 trial= 0.168  step= 0.265 mean= 0.168
 gam= 1.107 g(H,U,f)=  0.894E-03 0.148E-02 0.507E-03 ort(H,U,f) =-0.878E-03 0.801E-03-0.154E-04
CGA: 108    -0.221296656873E+03   -0.34530E-03   -0.35734E-03  5760   0.288E-02-0.919E-04
 gam= 1.107 trial= 0.173  step= 0.204 mean= 0.173
 gam= 0.769 g(H,U,f)=  0.846E-03 0.965E-03 0.406E-03 ort(H,U,f) =-0.520E-03 0.109E-02-0.376E-03
CGA: 109    -0.221296950960E+03   -0.29409E-03   -0.28361E-03  5760   0.222E-02 0.194E-03
 gam= 0.769 trial= 0.175  step= 0.242 mean= 0.175
 gam= 1.120 g(H,U,f)=  0.661E-03 0.122E-02 0.607E-03 ort(H,U,f) =-0.229E-03 0.342E-03-0.126E-03
CGA: 110    -0.221297231982E+03   -0.28102E-03   -0.28576E-03  5760   0.248E-02-0.139E-04
 gam= 1.120 trial= 0.178  step= 0.172 mean= 0.178
 gam= 0.835 g(H,U,f)=  0.829E-03 0.103E-02 0.220E-03 ort(H,U,f) =-0.701E-04 0.412E-03-0.319E-03
CGA: 111    -0.221297442649E+03   -0.21067E-03   -0.21204E-03  5760   0.208E-02 0.227E-04
 gam= 0.835 trial= 0.178  step= 0.325 mean= 0.178
 gam= 0.838 g(H,U,f)=  0.675E-03 0.884E-03 0.179E-03 ort(H,U,f) =-0.530E-03 0.370E-03 0.388E-04
CGA: 112    -0.221297765781E+03   -0.32313E-03   -0.34085E-03  5760   0.174E-02-0.121E-03
 gam= 0.838 trial= 0.185  step= 0.219 mean= 0.185
 gam= 1.521 g(H,U,f)=  0.575E-03 0.134E-02 0.733E-03 ort(H,U,f) =-0.653E-04 0.401E-03-0.406E-03
CGA: 113    -0.221297949165E+03   -0.18338E-03   -0.17932E-03  5760   0.264E-02-0.707E-04
 gam= 1.521 trial= 0.187  step= 0.238 mean= 0.187
 gam= 0.731 g(H,U,f)=  0.745E-03 0.100E-02 0.186E-03 ort(H,U,f) =-0.716E-03 0.734E-03-0.813E-04
CGA: 114    -0.221298246892E+03   -0.29773E-03   -0.30145E-03  5760   0.193E-02-0.632E-04
 gam= 0.731 trial= 0.189  step= 0.377 mean= 0.189
 gam= 3.280 g(H,U,f)=  0.996E-03 0.314E-02 0.220E-02 ort(H,U,f) =-0.139E-03 0.464E-03-0.575E-03
CGA: 115    -0.221298606287E+03   -0.35939E-03   -0.35603E-03  5760   0.634E-02-0.250E-03
 gam= 3.280 trial= 0.199  step= 0.198 mean= 0.199
 gam= 0.373 g(H,U,f)=  0.142E-02 0.931E-03 0.866E-05 ort(H,U,f) =-0.249E-02 0.256E-02 0.599E-04
CGA: 116    -0.221299152598E+03   -0.54631E-03   -0.54640E-03  5760   0.236E-02 0.132E-03
 gam= 0.373 trial= 0.199  step= 0.969 mean= 0.199
 gam= 2.154 g(H,U,f)=  0.248E-02 0.228E-02 0.330E-03 ort(H,U,f) =-0.976E-03 0.123E-02 0.787E-04
CGA: 117    -0.221300433780E+03   -0.12812E-02   -0.11677E-02  5760   0.509E-02 0.336E-03
 gam= 2.154 trial= 0.237  step= 0.255 mean= 0.237
 gam= 4.066 g(H,U,f)=  0.333E-02 0.891E-02 0.844E-02 ort(H,U,f) = 0.551E-03 0.941E-03-0.326E-02
CGA: 118    -0.221301165375E+03   -0.73159E-03   -0.73962E-03  5760   0.207E-01-0.176E-02
 gam= 4.066 trial= 0.238  step= 0.060 mean= 0.238
 gam= 1.640 g(H,U,f)=  0.477E-02 0.139E-01 0.153E-01 ort(H,U,f) = 0.422E-02 0.713E-02-0.108E-01
CGA: 119    -0.221301796568E+03   -0.63119E-03   -0.40791E-03  5760   0.339E-01 0.527E-03
 gam= 1.640 trial= 0.229  step= 0.096 mean= 0.229
 gam= 0.807 g(H,U,f)=  0.886E-02 0.110E-01 0.753E-02 ort(H,U,f) =-0.352E-02 0.130E-01-0.121E-01
CGA: 120    -0.221303475827E+03   -0.16793E-02   -0.16710E-02  5760   0.274E-01-0.263E-02
 gam= 0.807 trial= 0.222  step= 0.208 mean= 0.222
 gam= 1.145 g(H,U,f)=  0.178E-01 0.128E-01 0.733E-03 ort(H,U,f) =-0.189E-01 0.189E-01 0.501E-02
CGA: 121    -0.221306040491E+03   -0.25647E-02   -0.26247E-02  5760   0.313E-01 0.509E-02
 gam= 1.145 trial= 0.222  step= 0.152 mean= 0.222
 gam= 0.000 g(H,U,f)=  0.195E-01 0.249E-01 0.321E-01 ort(H,U,f) =-0.838E-03 0.396E-01-0.551E-01
CGA: 122    -0.221309158223E+03   -0.31177E-02   -0.28181E-02  5760   0.765E-01-0.163E-01
 gam= 0.000 trial= 0.218  step= 0.105 mean= 0.218
 gam= 0.672 g(H,U,f)=  0.142E-01 0.226E-01 0.146E-01 ort(H,U,f) = 0.126E-01 0.686E-02-0.223E-01
CGA: 123    -0.221312993290E+03   -0.38351E-02   -0.40156E-02  5760   0.514E-01-0.284E-02
 gam= 0.672 trial= 0.213  step= 0.321 mean= 0.213
 gam= 0.755 g(H,U,f)=  0.132E-01 0.238E-01 0.181E-02 ort(H,U,f) =-0.652E-02 0.569E-02 0.996E-04
CGA: 124    -0.221320865268E+03   -0.78720E-02   -0.79474E-02  5760   0.388E-01-0.731E-03
 gam= 0.755 trial= 0.218  step= 0.435 mean= 0.218
 gam= 2.191 g(H,U,f)=  0.110E-01 0.251E-01 0.490E-01 ort(H,U,f) =-0.889E-02 0.160E-01-0.665E-02
CGA: 125    -0.221329911462E+03   -0.90462E-02   -0.83136E-02  5760   0.850E-01 0.467E-03
 gam= 2.191 trial= 0.229  step= 0.171 mean= 0.229
 gam= 1.146 g(H,U,f)=  0.325E-01 0.400E-01 0.249E-01 ort(H,U,f) =-0.286E-01 0.536E-01-0.246E-01
CGA: 126    -0.221336960098E+03   -0.70486E-02   -0.73454E-02  5760   0.974E-01 0.507E-03
 gam= 1.146 trial= 0.226  step= 0.471 mean= 0.226
 gam= 1.467 g(H,U,f)=  0.646E-01 0.479E-01 0.304E-01 ort(H,U,f) =-0.494E-01 0.517E-01 0.109E-01
CGA: 127    -0.221362713542E+03   -0.25753E-01   -0.23096E-01  5760   0.143E+00 0.132E-01
 gam= 1.467 trial= 0.238  step= 0.566 mean= 0.238
 gam= 0.000 g(H,U,f)=  0.187E+00 0.316E+00 0.177E+00 ort(H,U,f) =-0.866E-01-0.161E+00-0.131E+00
CGA: 128    -0.221389056426E+03   -0.26343E-01   -0.45982E-01  5760   0.679E+00-0.378E+00
 gam= 0.000 trial= 0.255  step= 0.170 mean= 0.255
 gam= 0.134 g(H,U,f)=  0.552E-01 0.325E-01 0.363E-02 ort(H,U,f) = 0.384E-01-0.912E-02-0.111E-01
CGA: 129    -0.221439310542E+03   -0.50254E-01   -0.57667E-01  5760   0.913E-01 0.182E-01
 gam= 0.134 trial= 0.250  step= 0.823 mean= 0.250
 gam= 1.069 g(H,U,f)=  0.434E-01 0.530E-01 0.122E-02 ort(H,U,f) =-0.153E-01 0.826E-02-0.174E-03
CGA: 130    -0.221474768285E+03   -0.35458E-01   -0.38556E-01  5760   0.976E-01-0.725E-02
 gam= 1.069 trial= 0.279  step= 0.394 mean= 0.279
 gam= 0.467 g(H,U,f)=  0.211E-01 0.220E-01 0.253E-02 ort(H,U,f) =-0.149E-01 0.162E-01 0.317E-02
CGA: 131    -0.221492431996E+03   -0.17664E-01   -0.17686E-01  5760   0.456E-01 0.456E-02
 gam= 0.467 trial= 0.285  step= 0.459 mean= 0.285
 gam= 0.629 g(H,U,f)=  0.155E-01 0.131E-01 0.125E-03 ort(H,U,f) =-0.868E-02 0.140E-01 0.523E-03
CGA: 132    -0.221503982967E+03   -0.11551E-01   -0.10944E-01  5760   0.287E-01 0.588E-02
 gam= 0.629 trial= 0.293  step= 0.616 mean= 0.293
 gam= 1.059 g(H,U,f)=  0.158E-01 0.142E-01 0.342E-03 ort(H,U,f) =-0.530E-02 0.740E-02 0.499E-03
CGA: 133    -0.221514387937E+03   -0.10405E-01   -0.99725E-02  5760   0.304E-01 0.261E-02
 gam= 1.059 trial= 0.310  step= 1.240 mean= 0.310
 gam= 0.000 g(H,U,f)=  0.951E-01 0.233E+00 0.275E-01 ort(H,U,f) =-0.209E-01-0.205E-01-0.617E-02
CGA: 134    -0.221493326516E+03    0.21061E-01   -0.20533E-01  5760   0.355E+00-0.475E-01
 gam= 0.000 trial= 0.356  step= 0.137 mean= 0.356
 gam= 0.104 g(H,U,f)=  0.228E-01 0.141E-01 0.915E-04 ort(H,U,f) = 0.684E-02-0.209E-01-0.398E-03
CGA: 135    -0.221526298849E+03   -0.32972E-01   -0.24368E-01  5760   0.369E-01-0.145E-01
 gam= 0.104 trial= 0.345  step= 0.404 mean= 0.345
 gam= 0.506 g(H,U,f)=  0.672E-02 0.119E-01 0.547E-04 ort(H,U,f) = 0.255E-02-0.320E-02 0.294E-04
CGA: 136    -0.221533389009E+03   -0.70902E-02   -0.71443E-02  5760   0.187E-01-0.628E-03
 gam= 0.506 trial= 0.348  step= 0.462 mean= 0.348
 gam= 0.425 g(H,U,f)=  0.277E-02 0.478E-02 0.394E-03 ort(H,U,f) =-0.928E-03 0.974E-03-0.217E-03
CGA: 137    -0.221537571438E+03   -0.41824E-02   -0.42451E-02  5760   0.795E-02-0.171E-03
 gam= 0.425 trial= 0.354  step= 0.609 mean= 0.354
 gam= 1.285 g(H,U,f)=  0.429E-02 0.588E-02 0.435E-04 ort(H,U,f) =-0.237E-02 0.193E-02 0.121E-04
CGA: 138    -0.221539634790E+03   -0.20634E-02   -0.23974E-02  5760   0.102E-01-0.436E-03
 gam= 1.285 trial= 0.367  step= 0.367 mean= 0.367
 gam= 0.833 g(H,U,f)=  0.387E-02 0.455E-02 0.838E-04 ort(H,U,f) =-0.217E-02 0.198E-02 0.108E-03
CGA: 139    -0.221541403986E+03   -0.17692E-02   -0.17693E-02  5760   0.851E-02-0.841E-04
 gam= 0.833 trial= 0.367  step= 0.634 mean= 0.367
 gam= 1.222 g(H,U,f)=  0.356E-02 0.683E-02 0.809E-05 ort(H,U,f) =-0.147E-02 0.493E-03 0.185E-04
CGA: 140    -0.221543865226E+03   -0.24612E-02   -0.26763E-02  5760   0.104E-01-0.956E-03
 gam= 1.222 trial= 0.380  step= 0.400 mean= 0.380
 gam= 0.370 g(H,U,f)=  0.217E-02 0.167E-02 0.339E-05 ort(H,U,f) =-0.160E-02 0.183E-02 0.291E-04
CGA: 141    -0.221545712865E+03   -0.18476E-02   -0.18446E-02  5760   0.385E-02 0.259E-03
 gam= 0.370 trial= 0.381  step= 0.543 mean= 0.381
 gam= 1.265 g(H,U,f)=  0.165E-02 0.320E-02 0.111E-04 ort(H,U,f) =-0.148E-03 0.156E-03 0.844E-05
CGA: 142    -0.221546786095E+03   -0.10732E-02   -0.10713E-02  5760   0.487E-02 0.161E-04
 gam= 1.265 trial= 0.389  step= 0.391 mean= 0.389
 gam= 1.034 g(H,U,f)=  0.159E-02 0.341E-02 0.358E-04 ort(H,U,f) =-0.501E-03 0.704E-03-0.747E-05
CGA: 143    -0.221547738196E+03   -0.95210E-03   -0.95584E-03  5760   0.503E-02 0.196E-03
 gam= 1.034 trial= 0.389  step= 0.418 mean= 0.389
 gam= 0.708 g(H,U,f)=  0.178E-02 0.176E-02 0.247E-04 ort(H,U,f) =-0.120E-02 0.102E-02-0.590E-05
CGA: 144    -0.221548824947E+03   -0.10868E-02   -0.10936E-02  5760   0.356E-02-0.192E-03
 gam= 0.708 trial= 0.391  step= 0.452 mean= 0.391
 gam= 0.696 g(H,U,f)=  0.120E-02 0.128E-02 0.264E-05 ort(H,U,f) =-0.436E-03 0.366E-03 0.531E-05
CGA: 145    -0.221549594098E+03   -0.76915E-03   -0.77444E-03  5760   0.248E-02-0.649E-04
 gam= 0.696 trial= 0.394  step= 0.584 mean= 0.394
 gam= 0.647 g(H,U,f)=  0.794E-03 0.797E-03 0.142E-04 ort(H,U,f) =-0.307E-03 0.327E-03-0.144E-05
CGA: 146    -0.221550307538E+03   -0.71344E-03   -0.71103E-03  5760   0.161E-02 0.180E-04
 gam= 0.647 trial= 0.403  step= 0.395 mean= 0.403
 gam= 0.777 g(H,U,f)=  0.481E-03 0.762E-03 0.398E-05 ort(H,U,f) =-0.150E-04 0.128E-03 0.627E-05
CGA: 147    -0.221550627190E+03   -0.31965E-03   -0.31958E-03  5760   0.125E-02 0.119E-03
 gam= 0.777 trial= 0.403  step= 0.309 mean= 0.403
 gam= 0.637 g(H,U,f)=  0.308E-03 0.482E-03 0.487E-05 ort(H,U,f) =-0.662E-04 0.254E-03 0.426E-05
CGA: 148    -0.221550874393E+03   -0.24720E-03   -0.20676E-03  5760   0.795E-03 0.192E-03
 gam= 0.637 trial= 0.398  step= 0.648 mean= 0.398
 gam= 2.579 g(H,U,f)=  0.666E-03 0.138E-02 0.149E-05 ort(H,U,f) =-0.249E-03 0.726E-04 0.878E-06
CGA: 149    -0.221551105109E+03   -0.23072E-03   -0.29720E-03  5760   0.205E-02-0.176E-03
 gam= 2.579 trial= 0.411  step= 0.333 mean= 0.411
 gam= 0.751 g(H,U,f)=  0.885E-03 0.652E-03 0.102E-05 ort(H,U,f) =-0.964E-03 0.883E-03 0.101E-04
CGA: 150    -0.221551376915E+03   -0.27181E-03   -0.26570E-03  5760   0.154E-02-0.706E-04
 gam= 0.751 trial= 0.407  step= 0.257 mean= 0.407
 gam= 0.944 g(H,U,f)=  0.753E-03 0.695E-03 0.386E-05 ort(H,U,f) =-0.374E-03 0.529E-03 0.173E-04
CGA: 151    -0.221551570407E+03   -0.19349E-03   -0.19056E-03  5760   0.145E-02 0.172E-03
 gam= 0.944 trial= 0.399  step= 0.368 mean= 0.399
 gam= 1.067 g(H,U,f)=  0.769E-03 0.733E-03 0.468E-04 ort(H,U,f) =-0.373E-03 0.306E-03-0.555E-04
CGA: 152    -0.221551875546E+03   -0.30514E-03   -0.29741E-03  5760   0.155E-02-0.122E-03
 gam= 1.067 trial= 0.398  step= 0.568 mean= 0.398
 gam= 1.316 g(H,U,f)=  0.102E-02 0.101E-02 0.142E-04 ort(H,U,f) =-0.437E-03 0.523E-03-0.108E-04
CGA: 153    -0.221552284190E+03   -0.40864E-03   -0.40265E-03  5760   0.204E-02 0.744E-04
 gam= 1.316 trial= 0.406  step= 0.358 mean= 0.406
 gam= 0.936 g(H,U,f)=  0.917E-03 0.977E-03 0.121E-04 ort(H,U,f) =-0.481E-03 0.584E-03 0.690E-05
CGA: 154    -0.221552671893E+03   -0.38770E-03   -0.38191E-03  5760   0.191E-02 0.109E-03
 gam= 0.936 trial= 0.404  step= 0.302 mean= 0.404
 gam= 0.704 g(H,U,f)=  0.824E-03 0.516E-03 0.568E-06 ort(H,U,f) =-0.498E-03 0.478E-03 0.370E-05
CGA: 155    -0.221552991578E+03   -0.31968E-03   -0.30283E-03  5760   0.134E-02-0.167E-04
 gam= 0.704 trial= 0.399  step= 0.522 mean= 0.399
 gam= 1.180 g(H,U,f)=  0.809E-03 0.774E-03 0.307E-06 ort(H,U,f) =-0.199E-03 0.199E-03 0.441E-05
CGA: 156    -0.221553338365E+03   -0.34679E-03   -0.34670E-03  5760   0.158E-02 0.410E-05
 gam= 1.180 trial= 0.405  step= 0.402 mean= 0.405
 gam= 0.849 g(H,U,f)=  0.635E-03 0.687E-03 0.225E-04 ort(H,U,f) =-0.195E-03 0.248E-03 0.430E-05
CGA: 157    -0.221553657639E+03   -0.31927E-03   -0.31926E-03  5760   0.134E-02 0.574E-04
 gam= 0.849 trial= 0.405  step= 0.287 mean= 0.405
 gam= 0.582 g(H,U,f)=  0.482E-03 0.262E-03 0.390E-04 ort(H,U,f) =-0.110E-03 0.172E-03-0.675E-04
CGA: 158    -0.221553885668E+03   -0.22803E-03   -0.20012E-03  5760   0.783E-03-0.605E-05
 gam= 0.582 trial= 0.399  step= 0.388 mean= 0.399
 gam= 0.800 g(H,U,f)=  0.341E-03 0.284E-03 0.786E-06 ort(H,U,f) = 0.275E-04-0.349E-04 0.633E-05
CGA: 159    -0.221554036887E+03   -0.15122E-03   -0.15111E-03  5760   0.626E-03-0.108E-05
 gam= 0.800 trial= 0.398  step= 0.429 mean= 0.398
 gam= 0.594 g(H,U,f)=  0.192E-03 0.180E-03 0.147E-06 ort(H,U,f) =-0.374E-04 0.428E-04 0.168E-05
CGA: 160    -0.221554171169E+03   -0.13428E-03   -0.13410E-03  5760   0.372E-03 0.716E-05
 gam= 0.594 trial= 0.400  step= 0.333 mean= 0.400
 gam= 0.685 g(H,U,f)=  0.116E-03 0.138E-03 0.324E-06 ort(H,U,f) =-0.878E-05 0.272E-04-0.291E-06
CGA: 161    -0.221554234532E+03   -0.63362E-04   -0.62600E-04  5760   0.254E-03 0.181E-04
 gam= 0.685 trial= 0.396  step= 0.332 mean= 0.396
 gam= 0.787 g(H,U,f)=  0.937E-04 0.106E-03 0.169E-06 ort(H,U,f) =-0.190E-04 0.163E-04-0.112E-06
CGA: 162    -0.221554280957E+03   -0.46425E-04   -0.44340E-04  5760   0.200E-03-0.278E-05
 gam= 0.787 trial= 0.393  step= 0.520 mean= 0.393
 gam= 1.072 g(H,U,f)=  0.995E-04 0.115E-03 0.306E-06 ort(H,U,f) =-0.447E-04 0.416E-04 0.397E-07
CGA: 163    -0.221554331844E+03   -0.50887E-04   -0.51442E-04  5760   0.215E-03-0.304E-05
 gam= 1.072 trial= 0.400  step= 0.498 mean= 0.400
 gam= 0.834 g(H,U,f)=  0.990E-04 0.800E-04 0.709E-07 ort(H,U,f) =-0.793E-04 0.773E-04 0.275E-06
CGA: 164    -0.221554384301E+03   -0.52457E-04   -0.52599E-04  5760   0.179E-03-0.174E-05
 gam= 0.834 trial= 0.404  step= 0.518 mean= 0.404
 gam= 0.000 g(H,U,f)=  0.111E-03 0.875E-04 0.543E-06 ort(H,U,f) =-0.566E-04 0.631E-04-0.114E-06
SDA: 165    -0.221554430035E+03   -0.45733E-04   -0.46006E-04  5760   0.199E-03 0.642E-05
 gam= 0.000 trial= 0.410  step= 0.301 mean= 0.410
 gam= 0.675 g(H,U,f)=  0.582E-04 0.755E-04 0.886E-06 ort(H,U,f) = 0.464E-04-0.176E-04-0.550E-06
CGA: 166    -0.221554461758E+03   -0.31724E-04   -0.30015E-04  5760   0.135E-03 0.282E-04
 gam= 0.675 trial= 0.405  step= 0.413 mean= 0.405
 gam= 1.064 g(H,U,f)=  0.383E-04 0.104E-03 0.480E-06 ort(H,U,f) = 0.641E-05-0.144E-04-0.287E-06
CGA: 167    -0.221554493072E+03   -0.31314E-04   -0.31691E-04  5760   0.143E-03-0.831E-05
 gam= 1.064 trial= 0.405  step= 0.399 mean= 0.405
 gam= 0.546 g(H,U,f)=  0.367E-04 0.415E-04 0.238E-07 ort(H,U,f) =-0.381E-04 0.276E-04 0.502E-08
CGA: 168    -0.221554519926E+03   -0.26854E-04   -0.26766E-04  5760   0.782E-04-0.105E-04
 gam= 0.546 trial= 0.405  step= 0.609 mean= 0.405
 gam= 0.795 g(H,U,f)=  0.351E-04 0.269E-04 0.132E-06 ort(H,U,f) =-0.220E-04 0.223E-04 0.701E-07
CGA: 169    -0.221554541866E+03   -0.21941E-04   -0.22046E-04  5760   0.621E-04 0.365E-06
 gam= 0.795 trial= 0.415  step= 0.815 mean= 0.415
 gam= 1.272 g(H,U,f)=  0.409E-04 0.380E-04 0.140E-06 ort(H,U,f) =-0.228E-04 0.227E-04 0.101E-06
CGA: 170    -0.221554566678E+03   -0.24812E-04   -0.25430E-04  5760   0.791E-04 0.433E-07
 gam= 1.272 trial= 0.435  step= 0.759 mean= 0.435
 gam= 2.086 g(H,U,f)=  0.682E-04 0.965E-04 0.329E-06 ort(H,U,f) =-0.275E-04 0.260E-04 0.141E-06
CGA: 171    -0.221554590994E+03   -0.24316E-04   -0.30035E-04  5760   0.165E-03-0.143E-05
 gam= 2.086 trial= 0.451  step= 0.257 mean= 0.451
 gam= 0.745 g(H,U,f)=  0.711E-04 0.517E-04 0.381E-07 ort(H,U,f) =-0.442E-04 0.457E-04 0.130E-06
CGA: 172    -0.221554614328E+03   -0.23334E-04   -0.20860E-04  5760   0.123E-03 0.168E-05
 gam= 0.745 trial= 0.441  step= 0.504 mean= 0.441
 gam= 1.400 g(H,U,f)=  0.771E-04 0.947E-04 0.177E-06 ort(H,U,f) =-0.132E-04 0.182E-04 0.273E-06
CGA: 173    -0.221554645673E+03   -0.31345E-04   -0.31247E-04  5760   0.172E-03 0.534E-05
 gam= 1.400 trial= 0.445  step= 0.222 mean= 0.445
 gam= 0.593 g(H,U,f)=  0.471E-04 0.546E-04 0.303E-06 ort(H,U,f) =-0.489E-05 0.319E-04 0.825E-06
CGA: 174    -0.221554670169E+03   -0.24495E-04   -0.19962E-04  5760   0.102E-03 0.278E-04
 gam= 0.593 trial= 0.433  step= 0.451 mean= 0.433
 gam= 0.779 g(H,U,f)=  0.392E-04 0.402E-04 0.116E-06 ort(H,U,f) =-0.220E-04 0.155E-04 0.368E-06
CGA: 175    -0.221554696842E+03   -0.26673E-04   -0.26737E-04  5760   0.795E-04-0.610E-05
 gam= 0.779 trial= 0.434  step= 0.295 mean= 0.434
 gam= 0.849 g(H,U,f)=  0.321E-04 0.352E-04 0.139E-06 ort(H,U,f) =-0.329E-05 0.171E-04-0.174E-06
CGA: 176    -0.221554708596E+03   -0.11754E-04   -0.11009E-04  5760   0.675E-04 0.136E-04
 gam= 0.849 trial= 0.427  step= 0.380 mean= 0.427
 gam= 1.076 g(H,U,f)=  0.248E-04 0.478E-04 0.247E-07 ort(H,U,f) =-0.327E-05-0.349E-06 0.681E-07
CGA: 177    -0.221554724082E+03   -0.15486E-04   -0.15018E-04  5760   0.726E-04-0.355E-05
 gam= 1.076 trial= 0.425  step= 0.443 mean= 0.425
 gam= 0.581 g(H,U,f)=  0.223E-04 0.198E-04 0.930E-07 ort(H,U,f) =-0.234E-04 0.262E-04 0.196E-06
CGA: 178    -0.221554739344E+03   -0.15262E-04   -0.15238E-04  5760   0.422E-04 0.301E-05
 gam= 0.581 trial= 0.426  step= 0.270 mean= 0.426
 gam= 0.987 g(H,U,f)=  0.211E-04 0.205E-04 0.395E-07 ort(H,U,f) =-0.283E-05 0.539E-05-0.536E-08
CGA: 179    -0.221554745784E+03   -0.64402E-05   -0.59205E-05  5760   0.416E-04 0.255E-05
 gam= 0.987 trial= 0.418  step= 0.468 mean= 0.418
 gam= 1.449 g(H,U,f)=  0.211E-04 0.392E-04 0.425E-07 ort(H,U,f) =-0.608E-05 0.490E-05 0.132E-06
CGA: 180    -0.221554756089E+03   -0.10305E-04   -0.10337E-04  5760   0.603E-04-0.105E-05
 gam= 1.449 trial= 0.421  step= 0.333 mean= 0.421
 gam= 0.814 g(H,U,f)=  0.234E-04 0.256E-04 0.120E-06 ort(H,U,f) =-0.183E-04 0.169E-04 0.357E-06
CGA: 181    -0.221554765896E+03   -0.98079E-05   -0.97932E-05  5760   0.491E-04-0.110E-05
 gam= 0.814 trial= 0.416  step= 0.245 mean= 0.416
 gam= 0.674 g(H,U,f)=  0.173E-04 0.157E-04 0.117E-06 ort(H,U,f) =-0.911E-05 0.151E-04-0.134E-06
CGA: 182    -0.221554772306E+03   -0.64099E-05   -0.59062E-05  5760   0.331E-04 0.589E-05
 gam= 0.674 trial= 0.408  step= 0.460 mean= 0.408
 gam= 1.154 g(H,U,f)=  0.188E-04 0.193E-04 0.107E-07 ort(H,U,f) =-0.744E-05 0.590E-05 0.828E-08
CGA: 183    -0.221554780765E+03   -0.84584E-05   -0.85199E-05  5760   0.382E-04-0.154E-05
 gam= 1.154 trial= 0.410  step= 0.397 mean= 0.410
 gam= 1.127 g(H,U,f)=  0.190E-04 0.238E-04 0.301E-06 ort(H,U,f) =-0.729E-05 0.114E-04 0.872E-07
CGA: 184    -0.221554788021E+03   -0.72564E-05   -0.72367E-05  5760   0.430E-04 0.424E-05
 gam= 1.127 trial= 0.410  step= 0.382 mean= 0.410
 gam= 1.073 g(H,U,f)=  0.215E-04 0.247E-04 0.358E-07 ort(H,U,f) =-0.137E-04 0.947E-05-0.815E-07
CGA: 185    -0.221554797357E+03   -0.93354E-05   -0.91237E-05  5760   0.462E-04-0.433E-05
 gam= 1.073 trial= 0.408  step= 0.338 mean= 0.408
 gam= 0.901 g(H,U,f)=  0.230E-04 0.186E-04 0.192E-07 ort(H,U,f) =-0.108E-04 0.112E-04 0.104E-06
CGA: 186    -0.221554804330E+03   -0.69738E-05   -0.70104E-05  5760   0.416E-04 0.470E-06
 gam= 0.901 trial= 0.405  step= 0.300 mean= 0.405
 gam= 0.860 g(H,U,f)=  0.182E-04 0.175E-04 0.444E-07 ort(H,U,f) =-0.399E-05 0.392E-05 0.222E-06
CGA: 187    -0.221554810619E+03   -0.62885E-05   -0.63026E-05  5760   0.358E-04 0.153E-06
 gam= 0.860 trial= 0.399  step= 0.296 mean= 0.399
 gam= 0.887 g(H,U,f)=  0.156E-04 0.161E-04 0.368E-07 ort(H,U,f) =-0.839E-06 0.288E-05-0.520E-07
CGA: 188    -0.221554816089E+03   -0.54705E-05   -0.53165E-05  5760   0.317E-04 0.199E-05
 gam= 0.887 trial= 0.394  step= 0.378 mean= 0.394
 gam= 0.640 g(H,U,f)=  0.986E-05 0.104E-04 0.128E-07 ort(H,U,f) =-0.621E-05 0.558E-05-0.391E-07
CGA: 189    -0.221554822424E+03   -0.63350E-05   -0.63280E-05  5760   0.203E-04-0.664E-06
 gam= 0.640 trial= 0.393  step= 0.268 mean= 0.393
 gam= 0.753 g(H,U,f)=  0.825E-05 0.699E-05 0.479E-07 ort(H,U,f) =-0.221E-05 0.327E-05 0.376E-07
CGA: 190    -0.221554825205E+03   -0.27804E-05   -0.26599E-05  5760   0.153E-04 0.110E-05
 gam= 0.753 trial= 0.387  step= 0.445 mean= 0.387
 gam= 1.146 g(H,U,f)=  0.777E-05 0.973E-05 0.342E-07 ort(H,U,f) =-0.261E-05 0.626E-06-0.198E-08
CGA: 191    -0.221554828655E+03   -0.34506E-05   -0.35869E-05  5760   0.175E-04-0.199E-05
 gam= 1.146 trial= 0.390  step= 0.366 mean= 0.390
 gam= 0.903 g(H,U,f)=  0.727E-05 0.854E-05 0.122E-07 ort(H,U,f) =-0.395E-05 0.405E-05 0.534E-07
CGA: 192    -0.221554831445E+03   -0.27894E-05   -0.27911E-05  5760   0.158E-04 0.158E-06
 gam= 0.903 trial= 0.389  step= 0.324 mean= 0.389
 gam= 0.786 g(H,U,f)=  0.662E-05 0.579E-05 0.379E-07 ort(H,U,f) =-0.367E-05 0.494E-05 0.527E-07
CGA: 193    -0.221554834019E+03   -0.25746E-05   -0.25855E-05  5760   0.124E-04 0.132E-05
 gam= 0.786 trial= 0.386  step= 0.289 mean= 0.386
 gam= 0.795 g(H,U,f)=  0.531E-05 0.457E-05 0.142E-07 ort(H,U,f) =-0.158E-05 0.228E-05-0.241E-07
CGA: 194    -0.221554835964E+03   -0.19446E-05   -0.19484E-05  5760   0.989E-05 0.671E-06
 gam= 0.795 trial= 0.381  step= 0.551 mean= 0.381
 gam= 1.647 g(H,U,f)=  0.662E-05 0.966E-05 0.148E-07 ort(H,U,f) =-0.249E-05 0.150E-05-0.202E-07
CGA: 195    -0.221554838742E+03   -0.27785E-05   -0.28729E-05  5760   0.163E-04-0.101E-05
 gam= 1.647 trial= 0.389  step= 0.354 mean= 0.389
 gam= 0.000 g(H,U,f)=  0.729E-05 0.697E-05 0.342E-07 ort(H,U,f) =-0.601E-05 0.574E-05-0.188E-09
SDA: 196    -0.221554841356E+03   -0.26131E-05   -0.25884E-05  5760   0.143E-04-0.276E-06
 gam= 0.000 trial= 0.388  step= 0.311 mean= 0.388
 gam= 0.430 g(H,U,f)=  0.267E-05 0.338E-05 0.944E-07 ort(H,U,f) = 0.233E-05-0.835E-06-0.537E-07
CGA: 197    -0.221554843606E+03   -0.22500E-05   -0.22251E-05  5760   0.614E-05 0.144E-05
 gam= 0.430 trial= 0.384  step= 0.260 mean= 0.384
 gam= 0.648 g(H,U,f)=  0.150E-05 0.242E-05 0.532E-07 ort(H,U,f) = 0.106E-05-0.364E-06-0.497E-07
CGA: 198    -0.221554844607E+03   -0.10017E-05   -0.87763E-06  5760   0.398E-05 0.649E-06
 gam= 0.648 trial= 0.378  step= 0.643 mean= 0.378
 gam= 0.825 g(H,U,f)=  0.157E-05 0.169E-05 0.204E-07 ort(H,U,f) =-0.134E-05 0.719E-06-0.959E-08
CGA: 199    -0.221554845876E+03   -0.12686E-05   -0.14152E-05  5760   0.328E-05-0.630E-06
 gam= 0.825 trial= 0.391  step= 0.547 mean= 0.391
 gam= 0.997 g(H,U,f)=  0.192E-05 0.132E-05 0.306E-07 ort(H,U,f) =-0.112E-05 0.105E-05-0.118E-07
CGA: 200    -0.221554846568E+03   -0.69205E-06   -0.75437E-06  5760   0.327E-05-0.818E-07
 gam= 0.997 trial= 0.399  step= 0.350 mean= 0.399
 final diagonalization
   1 F= -.23282049E+03 E0= -.23281791E+03  d E =-.517218E-02  mag=     6.0000
