 vasp.5.4.4.18Apr17-6-g9f103f2a35 (build Nov 22 2021 14:44:17) complex          
  
 executed on             LinuxIFC date 2022.08.08  10:58:21
 running on   64 total cores
 distrk:  each k-point on   64 cores,    1 groups
 distr:  one band on NCORES_PER_BAND=   4 cores,   16 groups


--------------------------------------------------------------------------------------------------------


 INCAR:
 POTCAR:    PAW_PBE Li 17Jan2003                  
 POTCAR:    PAW_PBE Co 02Aug2007                  
 POTCAR:    PAW_PBE O 08Apr2002                   
 POTCAR:    PAW_PBE Li 17Jan2003                  
   VRHFIN =Li: s1p0                                                             
   LEXCH  = PE                                                                  
   EATOM  =     5.3001 eV,    0.3895 Ry                                         
                                                                                
   TITEL  = PAW_PBE Li 17Jan2003                                                
   LULTRA =        F    use ultrasoft PP ?                                      
   IUNSCR =        1    unscreen: 0-lin 1-nonlin 2-no                           
   RPACOR =    1.500    partial core radius                                     
   POMASS =    7.010; ZVAL   =    1.000    mass and valenz                      
   RCORE  =    2.050    outmost cutoff radius                                   
   RWIGS  =    2.600; RWIGS  =    1.376    wigner-seitz radius (au A)           
   ENMAX  =  140.000; ENMIN  =  100.000 eV                                      
   ICORE  =        2    local potential                                         
   LCOR   =        T    correct aug charges                                     
   LPAW   =        T    paw PP                                                  
   EAUG   =  331.638                                                            
   DEXC   =    0.000                                                            
   RMAX   =    2.098    core radius for proj-oper                               
   RAUG   =    1.300    factor for augmentation sphere                          
   RDEP   =    2.094    radius for radial grids                                 
   RDEPT  =    1.810    core radius for aug-charge                              
                                                                                
   Atomic configuration                                                         
    4 entries                                                                   
     n  l   j            E        occ.                                          
     1  0  0.50       -51.8549   2.0000                                         
     2  0  0.50        -2.8742   1.0000                                         
     2  1  0.50        -1.3606   0.0000                                         
     3  2  1.50        -1.3606   0.0000                                         
   Description                                                                  
     l       E           TYP  RCUT    TYP  RCUT                                 
     0     -2.8742052     23  2.050                                             
     0     27.2116520     23  2.050                                             
     1     -1.3605826     23  2.050                                             
     2     -1.3605826     23  2.050                                             
  local pseudopotential read in
  partial core-charges read in
  partial kinetic energy density read in
  atomic valenz-charges read in
  non local Contribution for L=           0  read in
    real space projection operators read in
  non local Contribution for L=           0  read in
    real space projection operators read in
  non local Contribution for L=           1  read in
    real space projection operators read in
    PAW grid and wavefunctions read in
 
   number of l-projection  operators is LMAX  =           3
   number of lm-projection operators is LMMAX =           5
 
 POTCAR:    PAW_PBE Co 02Aug2007                  
   VRHFIN =Co: d8 s1                                                            
   LEXCH  = PE                                                                  
   EATOM  =   813.3670 eV,   59.7808 Ry                                         
                                                                                
   TITEL  = PAW_PBE Co 02Aug2007                                                
   LULTRA =        F    use ultrasoft PP ?                                      
   IUNSCR =        1    unscreen: 0-lin 1-nonlin 2-no                           
   RPACOR =    2.000    partial core radius                                     
   POMASS =   58.933; ZVAL   =    9.000    mass and valenz                      
   RCORE  =    2.300    outmost cutoff radius                                   
   RWIGS  =    2.460; RWIGS  =    1.302    wigner-seitz radius (au A)           
   ENMAX  =  267.968; ENMIN  =  200.976 eV                                      
   RCLOC  =    1.203    cutoff for local pot                                    
   LCOR   =        T    correct aug charges                                     
   LPAW   =        T    paw PP                                                  
   EAUG   =  477.818                                                            
   DEXC   =    0.000                                                            
   RMAX   =    2.360    core radius for proj-oper                               
   RAUG   =    1.300    factor for augmentation sphere                          
   RDEP   =    2.393    radius for radial grids                                 
   RDEPT  =    1.864    core radius for aug-charge                              
                                                                                
   Atomic configuration                                                         
    9 entries                                                                   
     n  l   j            E        occ.                                          
     1  0  0.50     -7587.6674   2.0000                                         
     2  0  0.50      -893.6084   2.0000                                         
     2  1  1.50      -764.5805   6.0000                                         
     3  0  0.50       -97.5973   2.0000                                         
     3  1  1.50       -60.9648   6.0000                                         
     3  2  2.50        -4.2382   8.0000                                         
     4  0  0.50        -4.3746   1.0000                                         
     4  1  1.50        -4.0817   0.0000                                         
     4  3  2.50        -1.3606   0.0000                                         
   Description                                                                  
     l       E           TYP  RCUT    TYP  RCUT                                 
     2     -4.2382362     23  2.300                                             
     2     -5.5988188     23  2.300                                             
     0     -4.3745797     23  2.300                                             
     0      5.7660125     23  2.300                                             
     1     -2.7211652     23  2.300                                             
     1     16.9860234     23  2.300                                             
  local pseudopotential read in
  partial core-charges read in
  partial kinetic energy density read in
  atomic valenz-charges read in
  non local Contribution for L=           2  read in
    real space projection operators read in
  non local Contribution for L=           2  read in
    real space projection operators read in
  non local Contribution for L=           0  read in
    real space projection operators read in
  non local Contribution for L=           0  read in
    real space projection operators read in
  non local Contribution for L=           1  read in
    real space projection operators read in
  non local Contribution for L=           1  read in
    real space projection operators read in
    PAW grid and wavefunctions read in
 
   number of l-projection  operators is LMAX  =           6
   number of lm-projection operators is LMMAX =          18
 
 POTCAR:    PAW_PBE O 08Apr2002                   
   VRHFIN =O: s2p4                                                              
   LEXCH  = PE                                                                  
   EATOM  =   432.3788 eV,   31.7789 Ry                                         
                                                                                
   TITEL  = PAW_PBE O 08Apr2002                                                 
   LULTRA =        F    use ultrasoft PP ?                                      
   IUNSCR =        1    unscreen: 0-lin 1-nonlin 2-no                           
   RPACOR =    1.200    partial core radius                                     
   POMASS =   16.000; ZVAL   =    6.000    mass and valenz                      
   RCORE  =    1.520    outmost cutoff radius                                   
   RWIGS  =    1.550; RWIGS  =    0.820    wigner-seitz radius (au A)           
   ENMAX  =  400.000; ENMIN  =  300.000 eV                                      
   ICORE  =        2    local potential                                         
   LCOR   =        T    correct aug charges                                     
   LPAW   =        T    paw PP                                                  
   EAUG   =  605.392                                                            
   DEXC   =    0.000                                                            
   RMAX   =    1.553    core radius for proj-oper                               
   RAUG   =    1.300    factor for augmentation sphere                          
   RDEP   =    1.550    radius for radial grids                                 
   RDEPT  =    1.329    core radius for aug-charge                              
                                                                                
   Atomic configuration                                                         
    4 entries                                                                   
     n  l   j            E        occ.                                          
     1  0  0.50      -514.6923   2.0000                                         
     2  0  0.50       -23.9615   2.0000                                         
     2  1  0.50        -9.0305   4.0000                                         
     3  2  1.50        -9.5241   0.0000                                         
   Description                                                                  
     l       E           TYP  RCUT    TYP  RCUT                                 
     0    -23.9615318     23  1.200                                             
     0     -9.5240782     23  1.200                                             
     1     -9.0304911     23  1.520                                             
     1      8.1634956     23  1.520                                             
     2     -9.5240782      7  1.500                                             
  local pseudopotential read in
  partial core-charges read in
  partial kinetic energy density read in
  kinetic energy density of atom read in
  atomic valenz-charges read in
  non local Contribution for L=           0  read in
    real space projection operators read in
  non local Contribution for L=           0  read in
    real space projection operators read in
  non local Contribution for L=           1  read in
    real space projection operators read in
  non local Contribution for L=           1  read in
    real space projection operators read in
    PAW grid and wavefunctions read in
 
   number of l-projection  operators is LMAX  =           4
   number of lm-projection operators is LMMAX =           8
 
 Optimization of the real space projectors (new method)

 maximal supplied QI-value         = 18.33
 optimisation between [QCUT,QGAM] = [ 12.46, 24.93] = [ 43.51,174.03] Ry 
 Optimized for a Real-space Cutoff    1.13 Angstroem

   l    n(q)    QCUT    max X(q) W(low)/X(q) W(high)/X(q)  e(spline) 
   0      8    12.465    33.825    0.12E-03    0.29E-03    0.99E-07
   0      8    12.465     8.944    0.86E-04    0.22E-03    0.72E-07
   1      8    12.465     4.214    0.27E-03    0.11E-03    0.82E-07
 Optimization of the real space projectors (new method)

 maximal supplied QI-value         = 16.25
 optimisation between [QCUT,QGAM] = [ 12.51, 25.03] = [ 43.85,175.40] Ry 
 Optimized for a Real-space Cutoff    1.31 Angstroem

   l    n(q)    QCUT    max X(q) W(low)/X(q) W(high)/X(q)  e(spline) 
   2      9    12.514    65.824    0.30E-03    0.46E-03    0.43E-06
   2      9    12.514    61.429    0.31E-03    0.46E-03    0.44E-06
   0     10    12.514    56.174    0.90E-04    0.33E-03    0.30E-06
   0     10    12.514    31.263    0.81E-04    0.30E-03    0.28E-06
   1      9    12.514    19.828    0.38E-03    0.65E-04    0.24E-06
   1      9    12.514    15.139    0.32E-03    0.60E-04    0.20E-06
 Optimization of the real space projectors (new method)

 maximal supplied QI-value         = 24.76
 optimisation between [QCUT,QGAM] = [ 12.38, 25.00] = [ 42.90,175.06] Ry 
 Optimized for a Real-space Cutoff    1.13 Angstroem

   l    n(q)    QCUT    max X(q) W(low)/X(q) W(high)/X(q)  e(spline) 
   0      8    12.378    20.381    0.16E-03    0.54E-05    0.27E-06
   0      8    12.378    15.268    0.17E-03    0.61E-05    0.29E-06
   1      8    12.378     5.964    0.38E-03    0.23E-03    0.28E-06
   1      8    12.378     5.382    0.33E-03    0.20E-03    0.25E-06
  PAW_PBE Li 17Jan2003                  :
 energy of atom  1       EATOM=   -5.3001
 kinetic energy error for atom=    0.0000 (will be added to EATOM!!)
  PAW_PBE Co 02Aug2007                  :
 energy of atom  2       EATOM= -813.3670
 kinetic energy error for atom=    0.0018 (will be added to EATOM!!)
  PAW_PBE O 08Apr2002                   :
 energy of atom  3       EATOM= -432.3788
 kinetic energy error for atom=    0.0168 (will be added to EATOM!!)
 
 
 POSCAR: Li6 Co12 O24                            
  positions in cartesian coordinates
  No initial velocities read in
 exchange correlation table for  LEXCH =        8
   RHO(1)=    0.500       N(1)  =     2000
   RHO(2)=  100.500       N(2)  =     4000
 


--------------------------------------------------------------------------------------------------------


 ion  position               nearest neighbor table
   1  0.220  0.118  0.999-  24 2.05  35 2.31  26 2.32  36 2.49   8 2.76  16 2.99
   2  0.297  0.197  0.354-  34 1.98  20 2.17  31 2.23  32 2.39  21 2.47  14 2.79   8 2.83  13 2.89
                            12 3.06
   3  0.142  0.895  0.657-  28 1.91  27 2.01  40 2.13  42 2.15  39 2.19  29 2.27  14 2.61   6 2.66
                             5 2.72  16 2.73  12 2.82   4 2.82   4 2.89  11 2.91  15 2.96  17 3.01
   4  0.114  0.386  0.659-  27 1.88  28 2.03  39 2.05  30 2.15  40 2.16  41 2.21  13 2.82  12 2.82
                            15 2.82   3 2.82   6 2.84  11 2.84   5 2.85  16 2.86   3 2.89   5 2.89
   5  0.612  0.896  0.660-  30 1.96  42 1.99  41 2.02  27 2.11  40 2.19  29 2.27   6 2.61   3 2.72
                            14 2.73  12 2.81  15 2.83   4 2.85   4 2.89  13 2.93  18 2.94  17 2.96
   6  0.610  0.351  0.674-  42 1.95  39 2.03  30 2.05  41 2.05  29 2.17  28 2.18  16 2.58   5 2.61
                             3 2.66  18 2.78   4 2.84  17 2.88  14 2.88   4 2.98  11 3.02  13 3.05
   7  0.290  0.786  0.174-  20 1.85  22 1.86  23 1.89  25 1.92  24 1.94  19 2.10  10 2.84   8 2.84
                             9 2.86   8 2.86  10 2.90   9 2.94
   8  0.293  0.286  0.172-  26 1.84  24 1.84  19 1.88  20 1.89  23 1.91  21 1.94   1 2.76   9 2.82
                             2 2.83   7 2.84   7 2.86  10 2.88  10 2.92   9 2.94
   9  0.790  0.769  0.184-  21 1.85  25 1.90  20 1.94  26 2.01  22 2.02  23 2.04  10 2.80   8 2.82
                             7 2.86  10 2.92   8 2.94   7 2.94
  10  0.786  0.278  0.169-  25 1.82  19 1.90  22 1.91  21 1.92  26 1.93  24 1.96   9 2.80   7 2.84
                             8 2.88   7 2.90   8 2.92   9 2.92
  11  0.921  0.535  0.507-  31 1.83  29 1.88  34 1.92  32 1.96  30 1.96  27 2.03  12 2.81   4 2.84
                            13 2.84  14 2.85  14 2.89  12 2.89   3 2.91  13 2.95   6 3.02
  12  0.930  0.046  0.511-  33 1.90  31 1.91  32 1.93  28 1.99  30 2.01  29 2.09   5 2.81  11 2.81
                             4 2.82   3 2.82  13 2.82  14 2.88  11 2.89  14 2.92  13 2.92   2 3.06
  13  0.429  0.531  0.509-  32 1.73  33 1.88  29 1.91  34 1.94  28 1.95  27 2.01  14 2.79   4 2.82
                            12 2.82  11 2.84   2 2.89  14 2.92  12 2.92   5 2.93  11 2.95   6 3.05
  14  0.424  0.040  0.515-  34 1.83  30 1.90  28 1.97  33 1.99  31 2.00  27 2.02   3 2.61   5 2.73
                            13 2.79   2 2.79  11 2.85  12 2.88   6 2.88  11 2.89  12 2.92  13 2.92
  15  0.307  0.697  0.813-  36 1.88  41 1.90  42 1.91  35 1.93  37 2.00  39 2.02  17 2.81   4 2.82
                            16 2.82   5 2.83  18 2.86  16 2.89  18 2.90   3 2.96  17 2.99
  16  0.300  0.199  0.806-  35 1.87  40 1.88  36 1.89  42 1.90  38 2.03  41 2.08   6 2.58   3 2.73
                            17 2.79  15 2.82   4 2.86  18 2.88  15 2.89  18 2.94  17 2.97   1 2.99
  17  0.807  0.726  0.818-  37 1.82  38 1.84  40 1.89  35 1.89  41 1.97  39 2.04  18 2.78  16 2.79
                            15 2.81   6 2.88  18 2.92   5 2.96  16 2.97  15 2.99   3 3.01
  18  0.802  0.211  0.823-  37 1.89  36 1.89  38 1.91  42 1.99  39 2.03  40 2.08   6 2.78  17 2.78
                            15 2.86  16 2.88  15 2.90  17 2.92  16 2.94   5 2.94   4 2.99
  19  0.106  0.408  0.238-   8 1.88  10 1.90   7 2.10
  20  0.147  0.957  0.236-   7 1.85   8 1.89   9 1.94   2 2.17
  21  0.627  0.434  0.239-   9 1.85  10 1.92   8 1.94   2 2.47
  22  0.611  0.954  0.238-   7 1.86  10 1.91   9 2.02
  23  0.446  0.624  0.110-   7 1.89   8 1.91   9 2.04
  24  0.439  0.122  0.108-   8 1.84   7 1.94  10 1.96   1 2.05
  25  0.946  0.610  0.117-  10 1.82   9 1.90   7 1.92
  26  0.966  0.115  0.114-   8 1.84  10 1.93   9 2.01   1 2.32
  27  0.259  0.687  0.583-   4 1.88  13 2.01   3 2.01  14 2.02  11 2.03   5 2.11
  28  0.266  0.210  0.584-   3 1.91  13 1.95  14 1.97  12 1.99   4 2.03   6 2.18
  29  0.756  0.673  0.576-  11 1.88  13 1.91  12 2.09   6 2.17   5 2.27   3 2.27
  30  0.752  0.207  0.580-  14 1.90   5 1.96  11 1.96  12 2.01   6 2.05   4 2.15
  31  0.072  0.861  0.449-  11 1.83  12 1.91  14 2.00   2 2.23
  32  0.125  0.391  0.452-  13 1.73  12 1.93  11 1.96   2 2.39
  33  0.594  0.868  0.451-  13 1.88  12 1.90  14 1.99
  34  0.579  0.347  0.447-  14 1.83  11 1.92  13 1.94   2 1.98
  35  0.150  0.879  0.872-  16 1.87  17 1.89  15 1.93   1 2.31
  36  0.150  0.363  0.873-  15 1.88  18 1.89  16 1.89   1 2.49
  37  0.653  0.873  0.882-  17 1.82  18 1.89  15 2.00
  38  0.649  0.400  0.876-  17 1.84  18 1.91  16 2.03
  39  0.959  0.543  0.744-  15 2.02   6 2.03  18 2.03  17 2.04   4 2.05   3 2.19
  40  0.967  0.040  0.746-  16 1.88  17 1.89  18 2.08   3 2.13   4 2.16   5 2.19
  41  0.483  0.571  0.741-  15 1.90  17 1.97   5 2.02   6 2.05  16 2.08   4 2.21
  42  0.468  0.033  0.750-  16 1.90  15 1.91   6 1.95  18 1.99   5 1.99   3 2.15
 

IMPORTANT INFORMATION: All symmetrisations will be switched off!
NOSYMM: (Re-)initialisation of all symmetry stuff for point group C_1.

 
 

Automatic generation of k-mesh.
 generate k-points for:    6    6    2
Space group operators:
 irot       det(A)        alpha          n_x          n_y          n_z        tau_x        tau_y        tau_z
    1     1.000000     0.000001     1.000000     0.000000     0.000000     0.000000     0.000000     0.000000
 
 Subroutine IBZKPT returns following result:
 ===========================================
 
 Found     36 irreducible k-points:
 
 Following reciprocal coordinates:
            Coordinates               Weight
  0.083333  0.083333  0.250000      2.000000
  0.250000  0.083333  0.250000      2.000000
  0.416667  0.083333  0.250000      2.000000
 -0.416667  0.083333  0.250000      2.000000
 -0.250000  0.083333  0.250000      2.000000
 -0.083333  0.083333  0.250000      2.000000
  0.083333  0.250000  0.250000      2.000000
  0.250000  0.250000  0.250000      2.000000
  0.416667  0.250000  0.250000      2.000000
 -0.416667  0.250000  0.250000      2.000000
 -0.250000  0.250000  0.250000      2.000000
 -0.083333  0.250000  0.250000      2.000000
  0.083333  0.416667  0.250000      2.000000
  0.250000  0.416667  0.250000      2.000000
  0.416667  0.416667  0.250000      2.000000
 -0.416667  0.416667  0.250000      2.000000
 -0.250000  0.416667  0.250000      2.000000
 -0.083333  0.416667  0.250000      2.000000
  0.083333 -0.416667  0.250000      2.000000
  0.250000 -0.416667  0.250000      2.000000
  0.416667 -0.416667  0.250000      2.000000
 -0.416667 -0.416667  0.250000      2.000000
 -0.250000 -0.416667  0.250000      2.000000
 -0.083333 -0.416667  0.250000      2.000000
  0.083333 -0.250000  0.250000      2.000000
  0.250000 -0.250000  0.250000      2.000000
  0.416667 -0.250000  0.250000      2.000000
 -0.416667 -0.250000  0.250000      2.000000
 -0.250000 -0.250000  0.250000      2.000000
 -0.083333 -0.250000  0.250000      2.000000
  0.083333 -0.083333  0.250000      2.000000
  0.250000 -0.083333  0.250000      2.000000
  0.416667 -0.083333  0.250000      2.000000
 -0.416667 -0.083333  0.250000      2.000000
 -0.250000 -0.083333  0.250000      2.000000
 -0.083333 -0.083333  0.250000      2.000000
 
 Following cartesian coordinates:
            Coordinates               Weight
  0.014385  0.025225  0.016741      2.000000
  0.043154  0.041897  0.017588      2.000000
  0.071924  0.058569  0.018434      2.000000
 -0.071924 -0.024792  0.014200      2.000000
 -0.043154 -0.008120  0.015047      2.000000
 -0.014385  0.008552  0.015894      2.000000
  0.014385  0.059002  0.016565      2.000000
  0.043154  0.075674  0.017412      2.000000
  0.071924  0.092346  0.018259      2.000000
 -0.071924  0.008985  0.014025      2.000000
 -0.043154  0.025657  0.014872      2.000000
 -0.014385  0.042329  0.015718      2.000000
  0.014385  0.092779  0.016389      2.000000
  0.043154  0.109451  0.017236      2.000000
  0.071924  0.126123  0.018083      2.000000
 -0.071924  0.042762  0.013849      2.000000
 -0.043154  0.059434  0.014696      2.000000
 -0.014385  0.076106  0.015543      2.000000
  0.014385 -0.076106  0.017268      2.000000
  0.043154 -0.059434  0.018114      2.000000
  0.071924 -0.042762  0.018961      2.000000
 -0.071924 -0.126123  0.014727      2.000000
 -0.043154 -0.109451  0.015574      2.000000
 -0.014385 -0.092779  0.016421      2.000000
  0.014385 -0.042329  0.017092      2.000000
  0.043154 -0.025657  0.017939      2.000000
  0.071924 -0.008985  0.018786      2.000000
 -0.071924 -0.092346  0.014552      2.000000
 -0.043154 -0.075674  0.015398      2.000000
 -0.014385 -0.059002  0.016245      2.000000
  0.014385 -0.008552  0.016916      2.000000
  0.043154  0.008120  0.017763      2.000000
  0.071924  0.024792  0.018610      2.000000
 -0.071924 -0.058569  0.014376      2.000000
 -0.043154 -0.041897  0.015223      2.000000
 -0.014385 -0.025225  0.016070      2.000000
 


--------------------------------------------------------------------------------------------------------




 Dimension of arrays:
   k-points           NKPTS =     36   k-points in BZ     NKDIM =     36   number of bands    NBANDS=    160
   number of dos      NEDOS =    301   number of ions     NIONS =     42
   non local maximal  LDIM  =      6   non local SUM 2l+1 LMDIM =     18
   total plane-waves  NPLWV = 124416
   max r-space proj   IRMAX =   2719   max aug-charges    IRDMAX=  11462
   dimension x,y,z NGX =    36 NGY =   36 NGZ =   96
   dimension x,y,z NGXF=    72 NGYF=   72 NGZF=  192
   support grid    NGXF=    72 NGYF=   72 NGZF=  192
   ions per type =               6  12  24
   NGX,Y,Z   is equivalent  to a cutoff of  10.33, 10.49, 10.47 a.u.
   NGXF,Y,Z  is equivalent  to a cutoff of  20.66, 20.99, 20.93 a.u.

 SYSTEM =  LiCoO2                                  
 POSCAR =  Li6 Co12 O24                            

 Startparameter for this run:
   NWRITE =      2    write-flag & timer
   PREC   = normal    normal or accurate (medium, high low for compatibility)
   ISTART =      0    job   : 0-new  1-cont  2-samecut
   ICHARG =      2    charge: 1-file 2-atom 10-const
   ISPIN  =      2    spin polarized calculation?
   LNONCOLLINEAR =      F non collinear calculations
   LSORBIT =      F    spin-orbit coupling
   INIWAV =      1    electr: 0-lowe 1-rand  2-diag
   LASPH  =      F    aspherical Exc in radial PAW
   METAGGA=      F    non-selfconsistent MetaGGA calc.

 Electronic Relaxation 1
   ENCUT  =  600.0 eV  44.10 Ry    6.64 a.u.  11.57 11.39 30.45*2*pi/ulx,y,z
   ENINI  =  600.0     initial cutoff
   ENAUG  =  605.4 eV  augmentation charge cutoff
   NELM   =    600;   NELMIN=  2; NELMDL= -5     # of ELM steps 
   EDIFF  = 0.1E-05   stopping-criterion for ELM
   LREAL  =      T    real-space projection
   NLSPLINE    = F    spline interpolate recip. space projectors
   LCOMPAT=      F    compatible to vasp.4.4
   GGA_COMPAT  = T    GGA compatible to vasp.4.4-vasp.4.6
   LMAXPAW     = -100 max onsite density
   LMAXMIX     =    2 max onsite mixed and CHGCAR
   VOSKOWN=      0    Vosko Wilk Nusair interpolation
   ROPT   =   -0.00050  -0.00050  -0.00050
 Ionic relaxation
   EDIFFG = 0.1E-04   stopping-criterion for IOM
   NSW    =      0    number of steps for IOM
   NBLOCK =      1;   KBLOCK =      1    inner block; outer block 
   IBRION =     -1    ionic relax: 0-MD 1-quasi-New 2-CG
   NFREE  =      0    steps in history (QN), initial steepest desc. (CG)
   ISIF   =      2    stress and relaxation
   IWAVPR =     10    prediction:  0-non 1-charg 2-wave 3-comb
   ISYM   =      0    0-nonsym 1-usesym 2-fastsym
   LCORR  =      T    Harris-Foulkes like correction to forces

   POTIM  = 0.5000    time-step for ionic-motion
   TEIN   =    0.0    initial temperature
   TEBEG  =    0.0;   TEEND  =   0.0 temperature during run
   SMASS  =  -3.00    Nose mass-parameter (am)
   estimated Nose-frequenzy (Omega)   =  0.10E-29 period in steps =****** mass=  -0.767E-27a.u.
   SCALEE = 1.0000    scale energy and forces
   NPACO  =    256;   APACO  = 16.0  distance and # of slots for P.C.
   PSTRESS=    0.0 pullay stress

  Mass of Ions in am
   POMASS =   7.01 58.93 16.00
  Ionic Valenz
   ZVAL   =   1.00  9.00  6.00
  Atomic Wigner-Seitz radii
   RWIGS  =  -1.00 -1.00 -1.00
  virtual crystal weights 
   VCA    =   1.00  1.00  1.00
   NELECT =     258.0000    total number of electrons
   NUPDOWN=       6.0000    fix difference up-down

 DOS related values:
   EMIN   =  10.00;   EMAX   =-10.00  energy-range for DOS
   EFERMI =   0.00
   ISMEAR =     0;   SIGMA  =   0.05  broadening in eV -4-tet -1-fermi 0-gaus

 Electronic relaxation 2 (details)
   IALGO  =     58    algorithm
   LDIAG  =      T    sub-space diagonalisation (order eigenvalues)
   LSUBROT=      F    optimize rotation matrix (better conditioning)
   TURBO    =      0    0=normal 1=particle mesh
   IRESTART =      0    0=no restart 2=restart with 2 vectors
   NREBOOT  =      0    no. of reboots
   NMIN     =      0    reboot dimension
   EREF     =   0.00    reference energy to select bands
   IMIX   =      4    mixing-type and parameters
     AMIX     =   0.40;   BMIX     =  1.00
     AMIX_MAG =   1.60;   BMIX_MAG =  1.00
     AMIN     =   0.10
     WC   =   100.;   INIMIX=   1;  MIXPRE=   1;  MAXMIX= -45

 Intra band minimization:
   WEIMIN = 0.0000     energy-eigenvalue tresh-hold
   EBREAK =  0.16E-08  absolut break condition
   DEPER  =   0.30     relativ break condition  

   TIME   =   0.40     timestep for ELM

  volume/ion in A,a.u.               =      10.37        69.99
  Fermi-wavevector in a.u.,A,eV,Ry     =   1.374825  2.598042 25.716963  1.890143
  Thomas-Fermi vector in A             =   2.500216
 
 Write flags
   LWAVE        =      F    write WAVECAR
   LDOWNSAMPLE  =      F    k-point downsampling of WAVECAR
   LCHARG       =      F    write CHGCAR
   LVTOT        =      F    write LOCPOT, total local potential
   LVHAR        =      F    write LOCPOT, Hartree potential only
   LELF         =      F    write electronic localiz. function (ELF)
   LORBIT       =     11    0 simple, 1 ext, 2 COOP (PROOUT), +10 PAW based schemes


 Dipole corrections
   LMONO  =      F    monopole corrections only (constant potential shift)
   LDIPOL =      F    correct potential (dipole corrections)
   IDIPOL =      0    1-x, 2-y, 3-z, 4-all directions 
   EPSILON=  1.0000000 bulk dielectric constant

 LDA+U is selected, type is set to LDAUTYPE =  2
   angular momentum for each species LDAUL =    -1    2   -1
   U (eV)           for each species LDAUU =   0.0  5.1  0.0
   J (eV)           for each species LDAUJ =   0.0  0.0  0.0
 Exchange correlation treatment:
   GGA     =    --    GGA type
   LEXCH   =     8    internal setting for exchange type
   VOSKOWN=      0    Vosko Wilk Nusair interpolation
   LHFCALC =     F    Hartree Fock is set to
   LHFONE  =     F    Hartree Fock one center treatment
   AEXX    =    0.0000 exact exchange contribution

 Linear response parameters
   LEPSILON=     F    determine dielectric tensor
   LRPA    =     F    only Hartree local field effects (RPA)
   LNABLA  =     F    use nabla operator in PAW spheres
   LVEL    =     F    velocity operator in full k-point grid
   LINTERFAST=   F  fast interpolation
   KINTER  =     0    interpolate to denser k-point grid
   CSHIFT  =0.1000    complex shift for real part using Kramers Kronig
   OMEGAMAX=  -1.0    maximum frequency
   DEG_THRESHOLD= 0.2000000E-02 threshold for treating states as degnerate
   RTIME   =   -0.100 relaxation time in fs
  (WPLASMAI=    0.000 imaginary part of plasma frequency in eV, 0.658/RTIME)
   DFIELD  = 0.0000000 0.0000000 0.0000000 field for delta impulse in time
 
 Orbital magnetization related:
   ORBITALMAG=     F  switch on orbital magnetization
   LCHIMAG   =     F  perturbation theory with respect to B field
   DQ        =  0.001000  dq finite difference perturbation B field
   LLRAUG    =     F  two centre corrections for induced B field



--------------------------------------------------------------------------------------------------------


 Static calculation
 charge density and potential will be updated during run
 spin polarized calculation
 Conjugate gradient for all bands (Freysoldt, et al. PRB 79, 241103 (2009))
 preconditioned conjugated gradient                                        
 perform sub-space diagonalisation
    before iterative eigenvector-optimisation
 modified Broyden-mixing scheme, WC =      100.0
 initial mixing is a Kerker type mixing with AMIX =  0.4000 and BMIX =      1.0000
 Hartree-type preconditioning will be used
 using additional bands           31
 real space projection scheme for non local part
 use partial core corrections
 no Harris-corrections to forces 
 use gradient corrections 
 use of overlap-Matrix (Vanderbilt PP)
 Gauss-broadening in eV      SIGMA  =   0.05


--------------------------------------------------------------------------------------------------------


  energy-cutoff  :      600.00
  volume of cell :      435.61
      direct lattice vectors                 reciprocal lattice vectors
     5.793157578  0.000000000  0.000000000     0.172617435  0.100034131  0.005080698
    -2.859506607  4.934322834  0.000000000     0.000000000  0.202662054 -0.001053900
    -0.494461596  0.079247594 15.239093781     0.000000000  0.000000000  0.065620700

  length of vectors
     5.793157578  5.703009720 15.247319492     0.199573093  0.202664794  0.065620700


 
 k-points in units of 2pi/SCALE and weight: read from INCAR                         
   0.01438479  0.02522468  0.01674074       0.028
   0.04315436  0.04189704  0.01758752       0.028
   0.07192393  0.05856939  0.01843431       0.028
  -0.07192393 -0.02479238  0.01420039       0.028
  -0.04315436 -0.00812003  0.01504718       0.028
  -0.01438479  0.00855233  0.01589396       0.028
   0.01438479  0.05900169  0.01656509       0.028
   0.04315436  0.07567405  0.01741187       0.028
   0.07192393  0.09234640  0.01825866       0.028
  -0.07192393  0.00898463  0.01402474       0.028
  -0.04315436  0.02565698  0.01487153       0.028
  -0.01438479  0.04232934  0.01571831       0.028
   0.01438479  0.09277870  0.01638944       0.028
   0.04315436  0.10945106  0.01723622       0.028
   0.07192393  0.12612341  0.01808301       0.028
  -0.07192393  0.04276163  0.01384909       0.028
  -0.04315436  0.05943399  0.01469588       0.028
  -0.01438479  0.07610634  0.01554266       0.028
   0.01438479 -0.07610634  0.01726769       0.028
   0.04315436 -0.05943399  0.01811447       0.028
   0.07192393 -0.04276163  0.01896126       0.028
  -0.07192393 -0.12612341  0.01472734       0.028
  -0.04315436 -0.10945106  0.01557413       0.028
  -0.01438479 -0.09277870  0.01642091       0.028
   0.01438479 -0.04232934  0.01709204       0.028
   0.04315436 -0.02565698  0.01793882       0.028
   0.07192393 -0.00898463  0.01878561       0.028
  -0.07192393 -0.09234640  0.01455169       0.028
  -0.04315436 -0.07567405  0.01539848       0.028
  -0.01438479 -0.05900169  0.01624526       0.028
   0.01438479 -0.00855233  0.01691639       0.028
   0.04315436  0.00812003  0.01776317       0.028
   0.07192393  0.02479238  0.01860996       0.028
  -0.07192393 -0.05856939  0.01437604       0.028
  -0.04315436 -0.04189704  0.01522283       0.028
  -0.01438479 -0.02522468  0.01606961       0.028
 
 k-points in reciprocal lattice and weights: read from INCAR                         
   0.08333333  0.08333333  0.25000000       0.028
   0.25000000  0.08333333  0.25000000       0.028
   0.41666667  0.08333333  0.25000000       0.028
  -0.41666667  0.08333333  0.25000000       0.028
  -0.25000000  0.08333333  0.25000000       0.028
  -0.08333333  0.08333333  0.25000000       0.028
   0.08333333  0.25000000  0.25000000       0.028
   0.25000000  0.25000000  0.25000000       0.028
   0.41666667  0.25000000  0.25000000       0.028
  -0.41666667  0.25000000  0.25000000       0.028
  -0.25000000  0.25000000  0.25000000       0.028
  -0.08333333  0.25000000  0.25000000       0.028
   0.08333333  0.41666667  0.25000000       0.028
   0.25000000  0.41666667  0.25000000       0.028
   0.41666667  0.41666667  0.25000000       0.028
  -0.41666667  0.41666667  0.25000000       0.028
  -0.25000000  0.41666667  0.25000000       0.028
  -0.08333333  0.41666667  0.25000000       0.028
   0.08333333 -0.41666667  0.25000000       0.028
   0.25000000 -0.41666667  0.25000000       0.028
   0.41666667 -0.41666667  0.25000000       0.028
  -0.41666667 -0.41666667  0.25000000       0.028
  -0.25000000 -0.41666667  0.25000000       0.028
  -0.08333333 -0.41666667  0.25000000       0.028
   0.08333333 -0.25000000  0.25000000       0.028
   0.25000000 -0.25000000  0.25000000       0.028
   0.41666667 -0.25000000  0.25000000       0.028
  -0.41666667 -0.25000000  0.25000000       0.028
  -0.25000000 -0.25000000  0.25000000       0.028
  -0.08333333 -0.25000000  0.25000000       0.028
   0.08333333 -0.08333333  0.25000000       0.028
   0.25000000 -0.08333333  0.25000000       0.028
   0.41666667 -0.08333333  0.25000000       0.028
  -0.41666667 -0.08333333  0.25000000       0.028
  -0.25000000 -0.08333333  0.25000000       0.028
  -0.08333333 -0.08333333  0.25000000       0.028
 
 position of ions in fractional coordinates (direct lattice) 
   0.22038498  0.11849084  0.99924772
   0.29729581  0.19716852  0.35441937
   0.14187387  0.89524888  0.65658824
   0.11423928  0.38641838  0.65916188
   0.61238092  0.89572285  0.66026104
   0.61046064  0.35109205  0.67369163
   0.29012537  0.78561584  0.17448938
   0.29322260  0.28599782  0.17154433
   0.78992146  0.76902389  0.18357456
   0.78604991  0.27827151  0.16919772
   0.92122343  0.53480559  0.50659639
   0.93031460  0.04645525  0.51124301
   0.42866984  0.53082396  0.50895218
   0.42362603  0.03953072  0.51474976
   0.30722670  0.69712385  0.81347556
   0.29994320  0.19939084  0.80584383
   0.80656887  0.72590863  0.81759650
   0.80182890  0.21068615  0.82332521
   0.10583978  0.40767787  0.23793344
   0.14746881  0.95670430  0.23586835
   0.62712610  0.43435739  0.23874976
   0.61140973  0.95445287  0.23825629
   0.44645700  0.62378610  0.11000917
   0.43873903  0.12248906  0.10800839
   0.94628224  0.61027094  0.11654761
   0.96578154  0.11510118  0.11386569
   0.25938341  0.68717408  0.58299794
   0.26611155  0.20956580  0.58354653
   0.75585073  0.67311041  0.57611888
   0.75201952  0.20659910  0.57999644
   0.07193729  0.86118798  0.44948145
   0.12515477  0.39052821  0.45197307
   0.59410511  0.86774068  0.45108521
   0.57948000  0.34656847  0.44732319
   0.14991497  0.87894672  0.87160890
   0.15033418  0.36293798  0.87292135
   0.65283050  0.87277881  0.88201634
   0.64853655  0.40000559  0.87615640
   0.95877213  0.54269545  0.74381258
   0.96706281  0.03974541  0.74593212
   0.48310222  0.57060505  0.74122718
   0.46821816  0.03275737  0.75011221
 
 position of ions in cartesian coordinates  (Angst):
   0.44380999  0.66386002 15.22762966
   0.98322999  1.00098002  5.40103006
  -2.06273007  4.46948004 10.00580978
  -0.76909000  1.95895004 10.04502964
   0.65982002  4.47210979 10.06177998
   2.19942999  1.78578997 10.26644993
  -0.65201002  3.89031005  2.65906000
   0.79605001  1.42480004  2.61418009
   2.28634000  3.80915999  2.79750991
   3.67433000  1.38648999  2.57841992
   3.55701995  2.67904997  7.72006989
   5.00382996  0.26973999  7.79088020
   0.71380001  2.65959001  7.75597000
   2.08657002  0.23585001  7.84431982
  -0.61584997  3.50430012 12.39663029
   0.76899999  1.04771996 12.28032970
   2.19256997  3.64666009 12.45942974
   3.63556004  1.10484004 12.54673004
  -0.67026001  2.03046989  3.62589002
  -1.99802005  4.73937988  3.59441996
   2.27293992  2.16217995  3.63832998
   0.69492000  4.72845984  3.63081002
   0.74827999  3.08667994  1.67644000
   2.13802004  0.61295998  1.64594996
   3.67926002  3.02050996  1.77608001
   5.20948982  0.57696998  1.73520994
  -0.75059998  3.43693995  8.88436031
   0.65382999  1.08030999  8.89272022
   2.16913009  3.36700010  8.77952957
   3.47901011  1.06538999  8.83862019
  -2.26808000  4.28499985  6.84968996
  -0.61515999  1.96281004  6.88766003
   0.73738998  4.31746006  6.87412977
   2.14481997  1.74553001  6.81680012
  -2.07585001  4.40607977 13.28252983
  -0.59854001  1.86003005 13.30253029
   0.85010999  4.37647009 13.44112968
   2.18003011  2.04319000 13.35182953
   3.63469005  2.73677993 11.33502960
   5.11986017  0.25523001 11.36732960
   0.80053002  2.87428999 11.29563046
   2.24789000  0.22108001 11.43103027
 


--------------------------------------------------------------------------------------------------------


 k-point  1 :   0.0833 0.0833 0.2500  plane waves:   14559
 k-point  2 :   0.2500 0.0833 0.2500  plane waves:   14549
 k-point  3 :   0.4167 0.0833 0.2500  plane waves:   14503
 k-point  4 :  -0.4167 0.0833 0.2500  plane waves:   14540
 k-point  5 :  -0.2500 0.0833 0.2500  plane waves:   14582
 k-point  6 :  -0.0833 0.0833 0.2500  plane waves:   14576
 k-point  7 :   0.0833 0.2500 0.2500  plane waves:   14547
 k-point  8 :   0.2500 0.2500 0.2500  plane waves:   14523
 k-point  9 :   0.4167 0.2500 0.2500  plane waves:   14505
 k-point 10 :  -0.4167 0.2500 0.2500  plane waves:   14549
 k-point 11 :  -0.2500 0.2500 0.2500  plane waves:   14559
 k-point 12 :  -0.0833 0.2500 0.2500  plane waves:   14556
 k-point 13 :   0.0833 0.4167 0.2500  plane waves:   14521
 k-point 14 :   0.2500 0.4167 0.2500  plane waves:   14525
 k-point 15 :   0.4167 0.4167 0.2500  plane waves:   14520
 k-point 16 :  -0.4167 0.4167 0.2500  plane waves:   14511
 k-point 17 :  -0.2500 0.4167 0.2500  plane waves:   14528
 k-point 18 :  -0.0833 0.4167 0.2500  plane waves:   14549
 k-point 19 :   0.0833-0.4167 0.2500  plane waves:   14526
 k-point 20 :   0.2500-0.4167 0.2500  plane waves:   14528
 k-point 21 :   0.4167-0.4167 0.2500  plane waves:   14526
 k-point 22 :  -0.4167-0.4167 0.2500  plane waves:   14514
 k-point 23 :  -0.2500-0.4167 0.2500  plane waves:   14517
 k-point 24 :  -0.0833-0.4167 0.2500  plane waves:   14524
 k-point 25 :   0.0833-0.2500 0.2500  plane waves:   14558
 k-point 26 :   0.2500-0.2500 0.2500  plane waves:   14563
 k-point 27 :   0.4167-0.2500 0.2500  plane waves:   14535
 k-point 28 :  -0.4167-0.2500 0.2500  plane waves:   14513
 k-point 29 :  -0.2500-0.2500 0.2500  plane waves:   14520
 k-point 30 :  -0.0833-0.2500 0.2500  plane waves:   14557
 k-point 31 :   0.0833-0.0833 0.2500  plane waves:   14562
 k-point 32 :   0.2500-0.0833 0.2500  plane waves:   14570
 k-point 33 :   0.4167-0.0833 0.2500  plane waves:   14526
 k-point 34 :  -0.4167-0.0833 0.2500  plane waves:   14505
 k-point 35 :  -0.2500-0.0833 0.2500  plane waves:   14550
 k-point 36 :  -0.0833-0.0833 0.2500  plane waves:   14564

 maximum and minimum number of plane-waves per node :      3661     3603

 maximum number of plane-waves:     14582
 maximum index in each direction: 
   IXMAX=   11   IYMAX=   11   IZMAX=   30
   IXMIN=  -11   IYMIN=  -11   IZMIN=  -30


 real space projection operators:
  total allocation   :       7258.65 KBytes
  max/ min on nodes  :       1817.70       1812.76


 parallel 3D FFT for wavefunctions:
    minimum data exchange during FFTs selected (reduces bandwidth)
 parallel 3D FFT for charge:
    minimum data exchange during FFTs selected (reduces bandwidth)


 total amount of memory used by VASP MPI-rank0   171739. kBytes
=======================================================================

   base      :      30000. kBytes
   nonlr-proj:       4149. kBytes
   fftplans  :       1799. kBytes
   grid      :       4952. kBytes
   one-center:        342. kBytes
   wavefun   :     130497. kBytes
 
     INWAV:  cpu time    0.0000: real time    0.0003
 Broyden mixing: mesh for mixing (old mesh)
   NGX = 23   NGY = 23   NGZ = 61
  (NGX  = 72   NGY  = 72   NGZ  =192)
  gives a total of  32269 points

 initial charge density was supplied:
 charge density of overlapping atoms calculated
 number of electron     258.0000000 magnetization       6.0000000
 keeping initial charge density in first step


--------------------------------------------------------------------------------------------------------


 Maximum index for non-local projection operator          661
 Maximum index for augmentation-charges         1010 (set IRDMAX)


--------------------------------------------------------------------------------------------------------


 First call to EWALD:  gamma=   0.234
 Maximum number of real-space cells 4x 4x 2
 Maximum number of reciprocal cells 2x 2x 5

    FEWALD:  cpu time    0.0052: real time    0.0052


--------------------------------------- Iteration      1(   1)  ---------------------------------------


    POTLOK:  cpu time    0.0755: real time    0.0800
    SETDIJ:  cpu time    0.0172: real time    0.0182
    TRIAL :  cpu time   23.5861: real time   23.6995
    CORREC:  cpu time    0.0041: real time    0.0041
    --------------------------------------------
      LOOP:  cpu time   23.8881: real time   24.0090

 eigenvalue-minimisations  : 23040
 total energy-change (2. order) : 0.3440806E+04  (-0.1383344E+05)
 number of electron     258.0000000 magnetization       6.0000000
 augmentation part      258.0000000 magnetization       6.0000000

 Free energy of the ion-electron system (eV)
  ---------------------------------------------------
  alpha Z        PSCENC =       672.99628072
  Ewald energy   TEWEN  =    -11602.82973578
  -Hartree energ DENC   =     -9075.24587992
  -exchange      EXHF   =         0.00000000
  -V(xc)+E(xc)   XCENC  =       838.80844022
  PAW double counting   =     17015.18481625   -17491.61297812
  entropy T*S    EENTRO =        -0.00833052
  eigenvalues    EBANDS =      2914.64285809
  atomic energy  EATOM  =     20168.87094289
  ---------------------------------------------------
  free energy    TOTEN  =      3440.80641383 eV

  energy without entropy =     3440.81474435  energy(sigma->0) =     3440.81057909


--------------------------------------------------------------------------------------------------------




--------------------------------------- Iteration      1(   2)  ---------------------------------------


    TRIAL :  cpu time   24.6586: real time   24.9929
    CORREC:  cpu time    0.0044: real time    0.0044
    --------------------------------------------
      LOOP:  cpu time   24.6671: real time   25.0014

 eigenvalue-minimisations  : 25008
 total energy-change (2. order) :-0.3024001E+04  (-0.2786855E+04)
 number of electron     258.0000000 magnetization       6.0000000
 augmentation part      258.0000000 magnetization       6.0000000

 Free energy of the ion-electron system (eV)
  ---------------------------------------------------
  alpha Z        PSCENC =       672.99628072
  Ewald energy   TEWEN  =    -11602.82973578
  -Hartree energ DENC   =     -9075.24587992
  -exchange      EXHF   =         0.00000000
  -V(xc)+E(xc)   XCENC  =       838.80844022
  PAW double counting   =     17015.18481625   -17491.61297812
  entropy T*S    EENTRO =        -0.02248729
  eigenvalues    EBANDS =      -109.34413942
  atomic energy  EATOM  =     20168.87094289
  ---------------------------------------------------
  free energy    TOTEN  =       416.80525954 eV

  energy without entropy =      416.82774683  energy(sigma->0) =      416.81650319


--------------------------------------------------------------------------------------------------------




--------------------------------------- Iteration      1(   3)  ---------------------------------------


    TRIAL :  cpu time   26.6144: real time   26.9355
    CORREC:  cpu time    0.0044: real time    0.0044
    --------------------------------------------
      LOOP:  cpu time   26.6227: real time   26.9439

 eigenvalue-minimisations  : 27216
 total energy-change (2. order) :-0.6357936E+03  (-0.5873118E+03)
 number of electron     258.0000000 magnetization       6.0000000
 augmentation part      258.0000000 magnetization       6.0000000

 Free energy of the ion-electron system (eV)
  ---------------------------------------------------
  alpha Z        PSCENC =       672.99628072
  Ewald energy   TEWEN  =    -11602.82973578
  -Hartree energ DENC   =     -9075.24587992
  -exchange      EXHF   =         0.00000000
  -V(xc)+E(xc)   XCENC  =       838.80844022
  PAW double counting   =     17015.18481625   -17491.61297812
  entropy T*S    EENTRO =        -0.02697968
  eigenvalues    EBANDS =      -745.13326904
  atomic energy  EATOM  =     20168.87094289
  ---------------------------------------------------
  free energy    TOTEN  =      -218.98836247 eV

  energy without entropy =     -218.96138278  energy(sigma->0) =     -218.97487262


--------------------------------------------------------------------------------------------------------




--------------------------------------- Iteration      1(   4)  ---------------------------------------


    TRIAL :  cpu time   25.0358: real time   25.3461
    CORREC:  cpu time    0.0043: real time    0.0044
    --------------------------------------------
      LOOP:  cpu time   25.0443: real time   25.3546

 eigenvalue-minimisations  : 25328
 total energy-change (2. order) :-0.5153864E+02  (-0.5020448E+02)
 number of electron     258.0000000 magnetization       6.0000000
 augmentation part      258.0000000 magnetization       6.0000000

 Free energy of the ion-electron system (eV)
  ---------------------------------------------------
  alpha Z        PSCENC =       672.99628072
  Ewald energy   TEWEN  =    -11602.82973578
  -Hartree energ DENC   =     -9075.24587992
  -exchange      EXHF   =         0.00000000
  -V(xc)+E(xc)   XCENC  =       838.80844022
  PAW double counting   =     17015.18481625   -17491.61297812
  entropy T*S    EENTRO =        -0.01922599
  eigenvalues    EBANDS =      -796.67966391
  atomic energy  EATOM  =     20168.87094289
  ---------------------------------------------------
  free energy    TOTEN  =      -270.52700365 eV

  energy without entropy =     -270.50777765  energy(sigma->0) =     -270.51739065


--------------------------------------------------------------------------------------------------------




--------------------------------------- Iteration      1(   5)  ---------------------------------------


    TRIAL :  cpu time   28.0061: real time   28.3682
    CORREC:  cpu time    0.0048: real time    0.0048
    CHARGE:  cpu time    0.4341: real time    0.4384
    --------------------------------------------
      LOOP:  cpu time   28.4490: real time   28.8155

 eigenvalue-minimisations  : 29296
 total energy-change (2. order) :-0.1924954E+01  (-0.1920828E+01)
 number of electron     258.0000017 magnetization       5.9999988
 augmentation part       67.8154814 magnetization       4.2647613

 Free energy of the ion-electron system (eV)
  ---------------------------------------------------
  alpha Z        PSCENC =       672.99628072
  Ewald energy   TEWEN  =    -11602.82973578
  -Hartree energ DENC   =     -9075.24587992
  -exchange      EXHF   =         0.00000000
  -V(xc)+E(xc)   XCENC  =       838.80844022
  PAW double counting   =     17015.18481625   -17491.61297812
  entropy T*S    EENTRO =        -0.01954417
  eigenvalues    EBANDS =      -798.60429954
  atomic energy  EATOM  =     20168.87094289
  ---------------------------------------------------
  free energy    TOTEN  =      -272.45195745 eV

  energy without entropy =     -272.43241328  energy(sigma->0) =     -272.44218537


--------------------------------------------------------------------------------------------------------




--------------------------------------- Iteration      1(   6)  ---------------------------------------


    POTLOK:  cpu time    0.0532: real time    0.0535
    SETDIJ:  cpu time    0.0120: real time    0.0121
    TRIAL :  cpu time   13.1791: real time   13.3556
    CORREC:  cpu time    4.3457: real time    4.3856
    CHARGE:  cpu time    0.4273: real time    0.4305
    --------------------------------------------
      LOOP:  cpu time   18.0215: real time   18.2414

 eigenvalue-minimisations  :     0
 total energy-change (2. order) : 0.4394599E+03  (-0.7737876E+02)
 number of electron     257.9999997 magnetization       6.0000008
 augmentation part       68.9739601 magnetization       4.3163239

 Free energy of the ion-electron system (eV)
  ---------------------------------------------------
  alpha Z        PSCENC =       672.99628072
  Ewald energy   TEWEN  =    -11602.82973578
  -Hartree energ DENC   =     -9126.29658432
  -exchange      EXHF   =         0.00000000
  -V(xc)+E(xc)   XCENC  =       874.70296785
  PAW double counting   =     23053.87322884   -23259.31714598
  entropy T*S    EENTRO =        -0.03938486
  eigenvalues    EBANDS =      -614.97246870
  atomic energy  EATOM  =     20168.87094289
  ---------------------------------------------------
  free energy    TOTEN  =       167.00794135 eV

  energy without entropy =      167.04732621  energy(sigma->0) =      167.02763378


--------------------------------------------------------------------------------------------------------




--------------------------------------- Iteration      1(   7)  ---------------------------------------


    POTLOK:  cpu time    0.0759: real time    0.0763
    SETDIJ:  cpu time    0.2125: real time    0.2129
    TRIAL :  cpu time   12.9330: real time   13.0062
    CORREC:  cpu time    4.5304: real time    4.5408
    CHARGE:  cpu time    0.4276: real time    0.4280
    --------------------------------------------
      LOOP:  cpu time   18.1840: real time   18.2689

 eigenvalue-minimisations  :     0
 total energy-change (2. order) :-0.8259256E+02  (-0.9577510E+02)
 number of electron     258.0000014 magnetization       5.9999991
 augmentation part       69.9497661 magnetization       4.2473909

 Free energy of the ion-electron system (eV)
  ---------------------------------------------------
  alpha Z        PSCENC =       672.99628072
  Ewald energy   TEWEN  =    -11602.82973578
  -Hartree energ DENC   =     -8605.21433183
  -exchange      EXHF   =         0.00000000
  -V(xc)+E(xc)   XCENC  =       867.18064495
  PAW double counting   =     22883.69040792   -23134.41543281
  entropy T*S    EENTRO =        -0.03784082
  eigenvalues    EBANDS =     -1165.82401198
  atomic energy  EATOM  =     20168.87094289
  ---------------------------------------------------
  free energy    TOTEN  =        84.41537921 eV

  energy without entropy =       84.45322003  energy(sigma->0) =       84.43429962


--------------------------------------------------------------------------------------------------------




--------------------------------------- Iteration      1(   8)  ---------------------------------------


    POTLOK:  cpu time    0.0507: real time    0.0507
    SETDIJ:  cpu time    0.0120: real time    0.0120
    TRIAL :  cpu time   13.1775: real time   13.1964
    CORREC:  cpu time    4.3664: real time    4.3789
    CHARGE:  cpu time    0.4274: real time    0.4274
    --------------------------------------------
      LOOP:  cpu time   18.0382: real time   18.0696

 eigenvalue-minimisations  :     0
 total energy-change (2. order) :-0.1197090E+03  (-0.1043012E+03)
 number of electron     258.0000004 magnetization       5.9999998
 augmentation part       74.4674192 magnetization       4.2380539

 Free energy of the ion-electron system (eV)
  ---------------------------------------------------
  alpha Z        PSCENC =       672.99628072
  Ewald energy   TEWEN  =    -11602.82973578
  -Hartree energ DENC   =     -8857.06614025
  -exchange      EXHF   =         0.00000000
  -V(xc)+E(xc)   XCENC  =       862.52384097
  PAW double counting   =     22806.85281836   -23090.99138621
  entropy T*S    EENTRO =        -0.03758674
  eigenvalues    EBANDS =      -995.61241482
  atomic energy  EATOM  =     20168.87094289
  ---------------------------------------------------
  free energy    TOTEN  =       -35.29363494 eV

  energy without entropy =      -35.25604820  energy(sigma->0) =      -35.27484157


--------------------------------------------------------------------------------------------------------




--------------------------------------- Iteration      1(   9)  ---------------------------------------


    POTLOK:  cpu time    0.0505: real time    0.0505
    SETDIJ:  cpu time    0.0119: real time    0.0119
    TRIAL :  cpu time   13.1812: real time   13.1855
    CORREC:  cpu time    4.3696: real time    4.3713
    CHARGE:  cpu time    0.4328: real time    0.4328
    --------------------------------------------
      LOOP:  cpu time   18.0503: real time   18.0563

 eigenvalue-minimisations  :     0
 total energy-change (2. order) :-0.1488600E+03  (-0.3523859E+02)
 number of electron     258.0000001 magnetization       6.0000001
 augmentation part       76.0435292 magnetization       4.2249892

 Free energy of the ion-electron system (eV)
  ---------------------------------------------------
  alpha Z        PSCENC =       672.99628072
  Ewald energy   TEWEN  =    -11602.82973578
  -Hartree energ DENC   =     -8966.04757937
  -exchange      EXHF   =         0.00000000
  -V(xc)+E(xc)   XCENC  =       850.28930367
  PAW double counting   =     23348.14287328   -23815.41504991
  entropy T*S    EENTRO =        -0.03406647
  eigenvalues    EBANDS =      -840.12304879
  atomic energy  EATOM  =     20168.87094289
  ---------------------------------------------------
  free energy    TOTEN  =      -184.15360003 eV

  energy without entropy =     -184.11953356  energy(sigma->0) =     -184.13656679


--------------------------------------------------------------------------------------------------------




--------------------------------------- Iteration      1(  10)  ---------------------------------------


    POTLOK:  cpu time    0.0512: real time    0.0511
    SETDIJ:  cpu time    0.0120: real time    0.0120
    TRIAL :  cpu time   13.3606: real time   13.3717
    CORREC:  cpu time    4.2947: real time    4.3912
    CHARGE:  cpu time    0.4417: real time    0.4446
    --------------------------------------------
      LOOP:  cpu time   18.1645: real time   18.2747

 eigenvalue-minimisations  :     0
 total energy-change (2. order) :-0.2779168E+01  (-0.2215154E+02)
 number of electron     258.0000003 magnetization       5.9999999
 augmentation part       76.0089939 magnetization       4.1636967

 Free energy of the ion-electron system (eV)
  ---------------------------------------------------
  alpha Z        PSCENC =       672.99628072
  Ewald energy   TEWEN  =    -11602.82973578
  -Hartree energ DENC   =     -8878.75975333
  -exchange      EXHF   =         0.00000000
  -V(xc)+E(xc)   XCENC  =       846.82956407
  PAW double counting   =     23704.52744104   -24241.15924086
  entropy T*S    EENTRO =        -0.02988721
  eigenvalues    EBANDS =      -857.37420060
  atomic energy  EATOM  =     20168.87094289
  ---------------------------------------------------
  free energy    TOTEN  =      -186.93276832 eV

  energy without entropy =     -186.90288111  energy(sigma->0) =     -186.91782471


--------------------------------------------------------------------------------------------------------




--------------------------------------- Iteration      1(  11)  ---------------------------------------


    POTLOK:  cpu time    0.0507: real time    0.0509
    SETDIJ:  cpu time    0.0120: real time    0.0121
    TRIAL :  cpu time   12.8856: real time   13.1411
    CORREC:  cpu time    4.3268: real time    4.3766
    CHARGE:  cpu time    0.5673: real time    0.5673
    --------------------------------------------
      LOOP:  cpu time   17.8468: real time   18.1524

 eigenvalue-minimisations  :     0
 total energy-change (2. order) :-0.1646555E+02  (-0.4511791E+01)
 number of electron     258.0000002 magnetization       6.0000000
 augmentation part       75.6165513 magnetization       4.1617989

 Free energy of the ion-electron system (eV)
  ---------------------------------------------------
  alpha Z        PSCENC =       672.99628072
  Ewald energy   TEWEN  =    -11602.82973578
  -Hartree energ DENC   =     -9004.54100074
  -exchange      EXHF   =         0.00000000
  -V(xc)+E(xc)   XCENC  =       846.76458837
  PAW double counting   =     23653.76837152   -24185.69454387
  entropy T*S    EENTRO =        -0.03040088
  eigenvalues    EBANDS =      -752.70333272
  atomic energy  EATOM  =     20168.87094289
  ---------------------------------------------------
  free energy    TOTEN  =      -203.39831681 eV

  energy without entropy =     -203.36791594  energy(sigma->0) =     -203.38311638


--------------------------------------------------------------------------------------------------------




--------------------------------------- Iteration      1(  12)  ---------------------------------------


    POTLOK:  cpu time    0.0508: real time    0.0508
    SETDIJ:  cpu time    0.0121: real time    0.0121
    TRIAL :  cpu time   12.9503: real time   13.0541
    CORREC:  cpu time    4.5177: real time    4.5500
    CHARGE:  cpu time    0.4279: real time    0.4310
    --------------------------------------------
      LOOP:  cpu time   17.9630: real time   18.1023

 eigenvalue-minimisations  :     0
 total energy-change (2. order) :-0.3822093E+01  (-0.7609706E+01)
 number of electron     258.0000004 magnetization       5.9999998
 augmentation part       74.8817369 magnetization       4.0997797

 Free energy of the ion-electron system (eV)
  ---------------------------------------------------
  alpha Z        PSCENC =       672.99628072
  Ewald energy   TEWEN  =    -11602.82973578
  -Hartree energ DENC   =     -8947.76682674
  -exchange      EXHF   =         0.00000000
  -V(xc)+E(xc)   XCENC  =       846.72492343
  PAW double counting   =     23485.39305296   -23997.18702212
  entropy T*S    EENTRO =        -0.02155765
  eigenvalues    EBANDS =      -833.39162416
  atomic energy  EATOM  =     20168.87094289
  ---------------------------------------------------
  free energy    TOTEN  =      -207.22040968 eV

  energy without entropy =     -207.19885204  energy(sigma->0) =     -207.20963086


--------------------------------------------------------------------------------------------------------




--------------------------------------- Iteration      1(  13)  ---------------------------------------


    POTLOK:  cpu time    0.0504: real time    0.0506
    SETDIJ:  cpu time    0.0119: real time    0.0120
    TRIAL :  cpu time   13.1114: real time   13.2499
    CORREC:  cpu time    4.4117: real time    4.4366
    CHARGE:  cpu time    0.4285: real time    0.4285
    --------------------------------------------
      LOOP:  cpu time   18.0181: real time   18.1817

 eigenvalue-minimisations  :     0
 total energy-change (2. order) :-0.4340763E+01  (-0.3757325E+01)
 number of electron     258.0000002 magnetization       5.9999999
 augmentation part       74.5679823 magnetization       4.0514085

 Free energy of the ion-electron system (eV)
  ---------------------------------------------------
  alpha Z        PSCENC =       672.99628072
  Ewald energy   TEWEN  =    -11602.82973578
  -Hartree energ DENC   =     -9005.81396399
  -exchange      EXHF   =         0.00000000
  -V(xc)+E(xc)   XCENC  =       846.61883871
  PAW double counting   =     23210.31566520   -23681.24368476
  entropy T*S    EENTRO =        -0.02259622
  eigenvalues    EBANDS =      -820.45395815
  atomic energy  EATOM  =     20168.87094289
  ---------------------------------------------------
  free energy    TOTEN  =      -211.56117280 eV

  energy without entropy =     -211.53857658  energy(sigma->0) =     -211.54987469


--------------------------------------------------------------------------------------------------------




--------------------------------------- Iteration      1(  14)  ---------------------------------------


    POTLOK:  cpu time    0.0502: real time    0.0502
    SETDIJ:  cpu time    0.0119: real time    0.0119
    TRIAL :  cpu time   13.1558: real time   13.1595
    CORREC:  cpu time    4.3609: real time    4.3625
    CHARGE:  cpu time    0.4284: real time    0.4285
    --------------------------------------------
      LOOP:  cpu time   18.0114: real time   18.0168

 eigenvalue-minimisations  :     0
 total energy-change (2. order) :-0.3910148E+01  (-0.3223627E+01)
 number of electron     258.0000002 magnetization       5.9999999
 augmentation part       75.1724425 magnetization       3.9355033

 Free energy of the ion-electron system (eV)
  ---------------------------------------------------
  alpha Z        PSCENC =       672.99628072
  Ewald energy   TEWEN  =    -11602.82973578
  -Hartree energ DENC   =     -8975.01142234
  -exchange      EXHF   =         0.00000000
  -V(xc)+E(xc)   XCENC  =       846.22621044
  PAW double counting   =     23106.71918572   -23556.11096603
  entropy T*S    EENTRO =        -0.02104211
  eigenvalues    EBANDS =      -876.30922057
  atomic energy  EATOM  =     20168.87094289
  ---------------------------------------------------
  free energy    TOTEN  =      -215.47132116 eV

  energy without entropy =     -215.45027906  energy(sigma->0) =     -215.46080011


--------------------------------------------------------------------------------------------------------




--------------------------------------- Iteration      1(  15)  ---------------------------------------


    POTLOK:  cpu time    0.0507: real time    0.0507
    SETDIJ:  cpu time    0.0119: real time    0.0119
    TRIAL :  cpu time   13.1929: real time   13.1977
    CORREC:  cpu time    4.3815: real time    4.3834
    CHARGE:  cpu time    0.4427: real time    0.4427
    --------------------------------------------
      LOOP:  cpu time   18.0838: real time   18.0905

 eigenvalue-minimisations  :     0
 total energy-change (2. order) :-0.3202624E+01  (-0.8019126E+00)
 number of electron     258.0000002 magnetization       5.9999999
 augmentation part       75.5164621 magnetization       3.8849813

 Free energy of the ion-electron system (eV)
  ---------------------------------------------------
  alpha Z        PSCENC =       672.99628072
  Ewald energy   TEWEN  =    -11602.82973578
  -Hartree energ DENC   =     -9040.02576547
  -exchange      EXHF   =         0.00000000
  -V(xc)+E(xc)   XCENC  =       846.13171977
  PAW double counting   =     23128.46043998   -23587.66762845
  entropy T*S    EENTRO =        -0.01978366
  eigenvalues    EBANDS =      -804.58915682
  atomic energy  EATOM  =     20168.87094289
  ---------------------------------------------------
  free energy    TOTEN  =      -218.67394526 eV

  energy without entropy =     -218.65416159  energy(sigma->0) =     -218.66405342


--------------------------------------------------------------------------------------------------------




--------------------------------------- Iteration      1(  16)  ---------------------------------------


    POTLOK:  cpu time    0.0504: real time    0.0504
    SETDIJ:  cpu time    0.0119: real time    0.0119
    TRIAL :  cpu time   13.0862: real time   13.1212
    CORREC:  cpu time    4.4964: real time    4.5289
    CHARGE:  cpu time    0.4234: real time    0.4264
    --------------------------------------------
      LOOP:  cpu time   18.0726: real time   18.1430

 eigenvalue-minimisations  :     0
 total energy-change (2. order) :-0.7275698E+00  (-0.4937483E+00)
 number of electron     258.0000002 magnetization       5.9999999
 augmentation part       75.7427273 magnetization       3.8537868

 Free energy of the ion-electron system (eV)
  ---------------------------------------------------
  alpha Z        PSCENC =       672.99628072
  Ewald energy   TEWEN  =    -11602.82973578
  -Hartree energ DENC   =     -9088.69479630
  -exchange      EXHF   =         0.00000000
  -V(xc)+E(xc)   XCENC  =       846.48210805
  PAW double counting   =     23132.92076158   -23598.46870520
  entropy T*S    EENTRO =        -0.01725845
  eigenvalues    EBANDS =      -750.65858735
  atomic energy  EATOM  =     20168.87094289
  ---------------------------------------------------
  free energy    TOTEN  =      -219.40151504 eV

  energy without entropy =     -219.38425659  energy(sigma->0) =     -219.39288582


--------------------------------------------------------------------------------------------------------




--------------------------------------- Iteration      1(  17)  ---------------------------------------


    POTLOK:  cpu time    0.0511: real time    0.0514
    SETDIJ:  cpu time    0.0120: real time    0.0120
    TRIAL :  cpu time   12.8645: real time   12.9636
    CORREC:  cpu time    4.4974: real time    4.4991
    CHARGE:  cpu time    0.4236: real time    0.4236
    --------------------------------------------
      LOOP:  cpu time   17.8527: real time   17.9538

 eigenvalue-minimisations  :     0
 total energy-change (2. order) :-0.4190058E+00  (-0.5537656E+00)
 number of electron     258.0000003 magnetization       5.9999999
 augmentation part       75.8574128 magnetization       3.8400502

 Free energy of the ion-electron system (eV)
  ---------------------------------------------------
  alpha Z        PSCENC =       672.99628072
  Ewald energy   TEWEN  =    -11602.82973578
  -Hartree energ DENC   =     -9087.92156011
  -exchange      EXHF   =         0.00000000
  -V(xc)+E(xc)   XCENC  =       846.91461102
  PAW double counting   =     23120.74935625   -23588.83758287
  entropy T*S    EENTRO =        -0.01549372
  eigenvalues    EBANDS =      -749.74557455
  atomic energy  EATOM  =     20168.87094289
  ---------------------------------------------------
  free energy    TOTEN  =      -219.82052088 eV

  energy without entropy =     -219.80502715  energy(sigma->0) =     -219.81277402


--------------------------------------------------------------------------------------------------------




--------------------------------------- Iteration      1(  18)  ---------------------------------------


    POTLOK:  cpu time    0.0502: real time    0.0502
    SETDIJ:  cpu time    0.0121: real time    0.0121
    TRIAL :  cpu time   13.0592: real time   13.1260
    CORREC:  cpu time    4.3240: real time    4.3604
    CHARGE:  cpu time    0.4198: real time    0.4228
    --------------------------------------------
      LOOP:  cpu time   17.8694: real time   17.9757

 eigenvalue-minimisations  :     0
 total energy-change (2. order) :-0.5478757E+00  (-0.2804297E+00)
 number of electron     258.0000003 magnetization       5.9999999
 augmentation part       75.8983007 magnetization       3.8419010

 Free energy of the ion-electron system (eV)
  ---------------------------------------------------
  alpha Z        PSCENC =       672.99628072
  Ewald energy   TEWEN  =    -11602.82973578
  -Hartree energ DENC   =     -9076.11388569
  -exchange      EXHF   =         0.00000000
  -V(xc)+E(xc)   XCENC  =       847.85729447
  PAW double counting   =     23058.02329362   -23520.34410643
  entropy T*S    EENTRO =        -0.01469254
  eigenvalues    EBANDS =      -768.81298666
  atomic energy  EATOM  =     20168.87094289
  ---------------------------------------------------
  free energy    TOTEN  =      -220.36839659 eV

  energy without entropy =     -220.35370404  energy(sigma->0) =     -220.36105031


--------------------------------------------------------------------------------------------------------




--------------------------------------- Iteration      1(  19)  ---------------------------------------


    POTLOK:  cpu time    0.0500: real time    0.0503
    SETDIJ:  cpu time    0.0119: real time    0.0120
    TRIAL :  cpu time   13.4381: real time   13.4505
    CORREC:  cpu time    4.3390: real time    4.3448
    CHARGE:  cpu time    0.4175: real time    0.4206
    --------------------------------------------
      LOOP:  cpu time   18.2601: real time   18.2819

 eigenvalue-minimisations  :     0
 total energy-change (2. order) :-0.2721942E+00  (-0.1556702E+00)
 number of electron     258.0000003 magnetization       5.9999998
 augmentation part       76.0027560 magnetization       3.8502736

 Free energy of the ion-electron system (eV)
  ---------------------------------------------------
  alpha Z        PSCENC =       672.99628072
  Ewald energy   TEWEN  =    -11602.82973578
  -Hartree energ DENC   =     -9071.29631211
  -exchange      EXHF   =         0.00000000
  -V(xc)+E(xc)   XCENC  =       848.31342746
  PAW double counting   =     23030.60339490   -23489.85757615
  entropy T*S    EENTRO =        -0.01393458
  eigenvalues    EBANDS =      -777.42632015
  atomic energy  EATOM  =     20168.87094289
  ---------------------------------------------------
  free energy    TOTEN  =      -220.64059076 eV

  energy without entropy =     -220.62665618  energy(sigma->0) =     -220.63362347


--------------------------------------------------------------------------------------------------------




--------------------------------------- Iteration      1(  20)  ---------------------------------------


    POTLOK:  cpu time    0.0505: real time    0.0507
    SETDIJ:  cpu time    0.0119: real time    0.0119
    TRIAL :  cpu time   13.1966: real time   13.2421
    CORREC:  cpu time    4.3378: real time    4.3407
    CHARGE:  cpu time    0.4190: real time    0.4191
    --------------------------------------------
      LOOP:  cpu time   18.0200: real time   18.0688

 eigenvalue-minimisations  :     0
 total energy-change (2. order) :-0.1557791E+00  (-0.1407669E+00)
 number of electron     258.0000003 magnetization       5.9999998
 augmentation part       76.0700368 magnetization       3.8784590

 Free energy of the ion-electron system (eV)
  ---------------------------------------------------
  alpha Z        PSCENC =       672.99628072
  Ewald energy   TEWEN  =    -11602.82973578
  -Hartree energ DENC   =     -9067.35852099
  -exchange      EXHF   =         0.00000000
  -V(xc)+E(xc)   XCENC  =       848.45470763
  PAW double counting   =     23044.93520211   -23506.63063281
  entropy T*S    EENTRO =        -0.01386991
  eigenvalues    EBANDS =      -779.22067900
  atomic energy  EATOM  =     20168.87094289
  ---------------------------------------------------
  free energy    TOTEN  =      -220.79636981 eV

  energy without entropy =     -220.78249990  energy(sigma->0) =     -220.78943486


--------------------------------------------------------------------------------------------------------




--------------------------------------- Iteration      1(  21)  ---------------------------------------


    POTLOK:  cpu time    0.0504: real time    0.0504
    SETDIJ:  cpu time    0.0120: real time    0.0120
    TRIAL :  cpu time   13.0845: real time   13.0921
    CORREC:  cpu time    4.4691: real time    4.4706
    CHARGE:  cpu time    0.4258: real time    0.4259
    --------------------------------------------
      LOOP:  cpu time   18.0461: real time   18.0553

 eigenvalue-minimisations  :     0
 total energy-change (2. order) :-0.1438289E+00  (-0.2477136E+00)
 number of electron     258.0000004 magnetization       5.9999997
 augmentation part       76.0691164 magnetization       3.9625801

 Free energy of the ion-electron system (eV)
  ---------------------------------------------------
  alpha Z        PSCENC =       672.99628072
  Ewald energy   TEWEN  =    -11602.82973578
  -Hartree energ DENC   =     -9080.48054529
  -exchange      EXHF   =         0.00000000
  -V(xc)+E(xc)   XCENC  =       848.46350290
  PAW double counting   =     23064.02639373   -23528.00438118
  entropy T*S    EENTRO =        -0.01465545
  eigenvalues    EBANDS =      -763.96878680
  atomic energy  EATOM  =     20168.87094289
  ---------------------------------------------------
  free energy    TOTEN  =      -220.94019873 eV

  energy without entropy =     -220.92554328  energy(sigma->0) =     -220.93287100


--------------------------------------------------------------------------------------------------------




--------------------------------------- Iteration      1(  22)  ---------------------------------------


    POTLOK:  cpu time    0.0510: real time    0.0510
    SETDIJ:  cpu time    0.0121: real time    0.0121
    TRIAL :  cpu time   12.8870: real time   12.9934
    CORREC:  cpu time    4.4537: real time    4.4882
    CHARGE:  cpu time    0.4187: real time    0.4219
    --------------------------------------------
      LOOP:  cpu time   17.8242: real time   17.9681

 eigenvalue-minimisations  :     0
 total energy-change (2. order) :-0.2483375E+00  (-0.2286458E+00)
 number of electron     258.0000004 magnetization       5.9999997
 augmentation part       75.8861654 magnetization       4.0783524

 Free energy of the ion-electron system (eV)
  ---------------------------------------------------
  alpha Z        PSCENC =       672.99628072
  Ewald energy   TEWEN  =    -11602.82973578
  -Hartree energ DENC   =     -9083.03210665
  -exchange      EXHF   =         0.00000000
  -V(xc)+E(xc)   XCENC  =       848.21892584
  PAW double counting   =     23085.10840332   -23550.19917069
  entropy T*S    EENTRO =        -0.01520709
  eigenvalues    EBANDS =      -760.30742047
  atomic energy  EATOM  =     20168.87094289
  ---------------------------------------------------
  free energy    TOTEN  =      -221.18853627 eV

  energy without entropy =     -221.17332917  energy(sigma->0) =     -221.18093272


--------------------------------------------------------------------------------------------------------




--------------------------------------- Iteration      1(  23)  ---------------------------------------


    POTLOK:  cpu time    0.0508: real time    0.0512
    SETDIJ:  cpu time    0.0120: real time    0.0120
    TRIAL :  cpu time   13.2255: real time   13.2419
    CORREC:  cpu time    4.3660: real time    4.3720
    CHARGE:  cpu time    0.4170: real time    0.4201
    --------------------------------------------
      LOOP:  cpu time   18.0758: real time   18.1018

 eigenvalue-minimisations  :     0
 total energy-change (2. order) :-0.2324204E+00  (-0.1456534E+00)
 number of electron     258.0000004 magnetization       5.9999996
 augmentation part       75.7696191 magnetization       4.1838100

 Free energy of the ion-electron system (eV)
  ---------------------------------------------------
  alpha Z        PSCENC =       672.99628072
  Ewald energy   TEWEN  =    -11602.82973578
  -Hartree energ DENC   =     -9064.51536541
  -exchange      EXHF   =         0.00000000
  -V(xc)+E(xc)   XCENC  =       847.86701268
  PAW double counting   =     23058.60077344   -23518.85756076
  entropy T*S    EENTRO =        -0.01443513
  eigenvalues    EBANDS =      -783.53809734
  atomic energy  EATOM  =     20168.87094289
  ---------------------------------------------------
  free energy    TOTEN  =      -221.42095665 eV

  energy without entropy =     -221.40652152  energy(sigma->0) =     -221.41373908


--------------------------------------------------------------------------------------------------------




--------------------------------------- Iteration      1(  24)  ---------------------------------------


    POTLOK:  cpu time    0.0505: real time    0.0508
    SETDIJ:  cpu time    0.0120: real time    0.0121
    TRIAL :  cpu time   13.1515: real time   13.2092
    CORREC:  cpu time    4.3753: real time    4.3778
    CHARGE:  cpu time    0.4147: real time    0.4148
    --------------------------------------------
      LOOP:  cpu time   18.0083: real time   18.0691

 eigenvalue-minimisations  :     0
 total energy-change (2. order) :-0.1410955E+00  (-0.3333661E+00)
 number of electron     258.0000005 magnetization       5.9999995
 augmentation part       75.6967747 magnetization       4.4144768

 Free energy of the ion-electron system (eV)
  ---------------------------------------------------
  alpha Z        PSCENC =       672.99628072
  Ewald energy   TEWEN  =    -11602.82973578
  -Hartree energ DENC   =     -9063.66071600
  -exchange      EXHF   =         0.00000000
  -V(xc)+E(xc)   XCENC  =       847.77302717
  PAW double counting   =     23032.94611044   -23490.27622420
  entropy T*S    EENTRO =        -0.01228576
  eigenvalues    EBANDS =      -787.36730224
  atomic energy  EATOM  =     20168.87094289
  ---------------------------------------------------
  free energy    TOTEN  =      -221.56205213 eV

  energy without entropy =     -221.54976637  energy(sigma->0) =     -221.55590925


--------------------------------------------------------------------------------------------------------




--------------------------------------- Iteration      1(  25)  ---------------------------------------


    POTLOK:  cpu time    0.0508: real time    0.0508
    SETDIJ:  cpu time    0.0121: real time    0.0121
    TRIAL :  cpu time   13.0952: real time   13.1676
    CORREC:  cpu time    4.3498: real time    4.3818
    CHARGE:  cpu time    0.4130: real time    0.4163
    --------------------------------------------
      LOOP:  cpu time   17.9252: real time   18.0330

 eigenvalue-minimisations  :     0
 total energy-change (2. order) :-0.3253324E+00  (-0.1453573E+00)
 number of electron     258.0000005 magnetization       5.9999995
 augmentation part       75.7339288 magnetization       4.5176406

 Free energy of the ion-electron system (eV)
[...]
   20        1.572   3.402   0.000   4.974
   21        1.578   3.369   0.000   4.947
   22        1.584   3.329   0.000   4.913
   23        1.580   3.327   0.000   4.908
   24        1.568   3.403   0.000   4.971
   25        1.580   3.378   0.000   4.957
   26        1.572   3.374   0.000   4.946
   27        1.556   3.444   0.000   5.001
   28        1.556   3.465   0.000   5.021
   29        1.562   3.428   0.000   4.991
   30        1.553   3.470   0.000   5.023
   31        1.567   3.389   0.000   4.956
   32        1.571   3.417   0.000   4.989
   33        1.578   3.338   0.000   4.916
   34        1.568   3.410   0.000   4.979
   35        1.568   3.397   0.000   4.964
   36        1.570   3.394   0.000   4.964
   37        1.581   3.348   0.000   4.929
   38        1.578   3.355   0.000   4.932
   39        1.563   3.403   0.000   4.966
   40        1.563   3.442   0.000   5.005
   41        1.561   3.434   0.000   4.994
   42        1.555   3.488   0.000   5.043
--------------------------------------------------
tot         43.316  90.407  87.007 220.731
 


 magnetization (x)
 
# of ion       s       p       d       tot
------------------------------------------
    1        0.000  -0.000   0.000  -0.000
    2        0.001  -0.001   0.000  -0.000
    3        0.001  -0.002   0.000  -0.001
    4        0.000  -0.001   0.000  -0.001
    5        0.000   0.000   0.000   0.000
    6        0.000   0.000   0.000   0.000
    7        0.017   0.020   1.530   1.567
    8        0.005   0.009  -0.070  -0.056
    9        0.019   0.021   1.709   1.750
   10        0.015   0.019   1.463   1.497
   11        0.002   0.001  -0.061  -0.059
   12        0.003   0.003  -0.044  -0.038
   13        0.011   0.007   1.342   1.361
   14        0.001   0.001  -0.012  -0.010
   15        0.003   0.004  -0.015  -0.008
   16        0.004   0.005  -0.005   0.004
   17        0.012   0.013   1.341   1.365
   18        0.017   0.013   1.860   1.890
   19       -0.000  -0.268   0.000  -0.268
   20        0.001  -0.135   0.000  -0.134
   21        0.001  -0.163   0.000  -0.163
   22        0.001  -0.234   0.000  -0.234
   23       -0.000  -0.252   0.000  -0.252
   24        0.001  -0.139   0.000  -0.138
   25        0.001  -0.179   0.000  -0.177
   26       -0.000  -0.180   0.000  -0.181
   27        0.000  -0.060   0.000  -0.060
   28        0.001  -0.028   0.000  -0.027
   29        0.000  -0.036   0.000  -0.035
   30       -0.001  -0.022   0.000  -0.023
   31       -0.002  -0.085   0.000  -0.087
   32        0.001  -0.028   0.000  -0.028
   33       -0.000  -0.134   0.000  -0.134
   34       -0.000  -0.105   0.000  -0.106
   35       -0.000  -0.068   0.000  -0.068
   36        0.000  -0.123   0.000  -0.123
   37        0.001  -0.167   0.000  -0.166
   38        0.002  -0.150   0.000  -0.148
   39        0.001  -0.122   0.000  -0.121
   40        0.002  -0.067   0.000  -0.065
   41        0.000  -0.059   0.000  -0.058
   42        0.001  -0.043   0.000  -0.042
--------------------------------------------------
tot          0.122  -2.737   9.037   6.422
 
    FORLOC:  cpu time    0.0085: real time    0.0085
    FORNL :  cpu time    4.4110: real time    4.4179
    STRESS:  cpu time   12.8300: real time   12.8521
    FORCOR:  cpu time    0.0532: real time    0.0533
    OFIELD:  cpu time    0.0003: real time    0.0003

  DFT-D2 method for vdW energy calculation
  -------------------------------------------------------------------

  Parameters of vdW forcefield:
         C6(Jnm^6/mol)     R0(A)
   -----------------------------
   Li       1.610          0.825
   Co      10.800          1.562
   O        0.700          1.342

  IVDW =   1
  VDW_RADIUS =    50.000 A
  VDW_S6 =     0.750
  VDW_SR =     1.000
  VDW_D =    20.000
  LVDW_EWALD = F

  Number of pair interactions contributing to vdW energy: 1085570
  Edisp (eV):   -8.97059
    FORVDW:  cpu time    0.1627: real time    0.1628

  FORCE on cell =-STRESS in cart. coord.  units (eV):
  Direction    XX          YY          ZZ          XY          YZ          ZX
  --------------------------------------------------------------------------------------
  Alpha Z   672.99628   672.99628   672.99628
  Ewald     575.98989   548.03191-12726.91987     1.31865   -58.38114   -37.95256
  Hartree  6558.53572  6538.36121 -4034.08065    -0.17106   -23.23894   -20.29697
  E(xc)   -1281.05996 -1281.33408 -1283.12062     0.10366    -0.02973     0.04399
  Local  -12005.11733-11958.32019 11838.84757     3.84812    76.03720    60.80769
  n-local  -599.02682  -598.03707  -608.73627     0.19287    -1.75479    -0.57109
  augment  2021.80942  2021.90747  2009.27921    -3.06586     1.87710    -2.02578
  Kinetic  4041.37872  4049.30265  4131.98719    -4.35651     6.24282    -0.97462
  Fock        0.00000     0.00000     0.00000     0.00000     0.00000     0.00000
  vdW        -4.96772    -5.24207   -11.52749     0.03520     0.03808    -0.02026
  -------------------------------------------------------------------------------------
  Total     -19.46180   -12.33389   -11.27465    -2.09494     0.79060    -0.98960
  in kB     -71.57998   -45.36370   -41.46785    -7.70511     2.90781    -3.63972
  external pressure =      -52.80 kB  Pullay stress =        0.00 kB


 VOLUME and BASIS-vectors are now :
 -----------------------------------------------------------------------------
  energy-cutoff  :      600.00
  volume of cell :      435.61
      direct lattice vectors                 reciprocal lattice vectors
     5.793157578  0.000000000  0.000000000     0.172617435  0.100034131  0.005080698
    -2.859506607  4.934322834  0.000000000     0.000000000  0.202662054 -0.001053900
    -0.494461596  0.079247594 15.239093781     0.000000000  0.000000000  0.065620700

  length of vectors
     5.793157578  5.703009720 15.247319492     0.199573093  0.202664794  0.065620700


 FORCES acting on ions:
    Electron-Ion                     Ewald-Force                    Non-Local-Force
 -----------------------------------------------------------------------------------------------
   0.196E+01 0.533E+00 -.152E+01   -.169E+01 -.696E+00 0.191E+01   -.394E+00 0.121E+00 -.624E+00
   0.342E+01 0.482E+00 0.338E+02   -.306E+01 -.654E+00 -.335E+02   -.525E+00 -.183E-01 -.661E+00
   0.278E+01 0.370E+01 -.107E+02   -.282E+01 -.371E+01 0.104E+02   -.343E+00 -.643E+00 0.567E+00
   0.196E+01 0.458E+01 -.126E+02   -.202E+01 -.409E+01 0.120E+02   0.916E-02 -.783E+00 0.742E+00
   -.446E+01 -.399E+00 -.511E+01   0.427E+01 0.331E+00 0.512E+01   0.583E+00 -.389E+00 -.110E+00
   -.366E+00 -.118E+01 -.203E+01   0.658E+00 0.148E+01 0.171E+01   -.271E+00 0.375E+00 -.466E+00
   -.195E+02 0.510E+02 0.115E+03   0.199E+02 -.513E+02 -.115E+03   -.220E+00 -.732E+00 -.104E+00
   0.192E+01 -.479E+02 0.130E+03   -.271E+01 0.481E+02 -.130E+03   0.423E+00 -.106E+00 0.675E+00
   0.447E+02 -.300E+02 0.481E+02   -.451E+02 0.311E+02 -.489E+02   -.808E+00 0.657E+00 -.359E+00
   -.107E+02 0.271E+02 0.183E+03   0.112E+02 -.279E+02 -.182E+03   -.188E+00 -.336E+00 -.194E+00
   -.387E+02 0.750E+01 0.295E+03   0.386E+02 -.730E+01 -.296E+03   0.102E+01 -.901E+00 0.157E+01
   0.192E+02 0.932E+01 0.222E+03   -.195E+02 -.107E+02 -.224E+03   0.279E+00 -.501E-01 0.253E+01
   -.142E+02 -.409E+02 0.249E+03   0.152E+02 0.427E+02 -.248E+03   0.132E+00 -.291E+00 0.112E+01
   0.547E+01 0.664E+02 0.221E+03   -.417E+01 -.675E+02 -.223E+03   -.855E+00 -.976E+00 0.127E+01
   0.233E+02 0.109E+02 -.381E+03   -.239E+02 -.105E+02 0.383E+03   -.105E+00 0.506E+00 -.968E+00
   -.316E+02 -.462E+02 -.294E+03   0.315E+02 0.466E+02 0.296E+03   0.657E+00 0.152E+01 -.110E+01
   -.273E+02 0.293E+02 -.368E+03   0.283E+02 -.305E+02 0.369E+03   0.266E+00 -.144E+00 -.151E+01
   0.139E+02 -.247E+02 -.417E+03   -.139E+02 0.255E+02 0.418E+03   0.518E+00 -.399E+00 -.186E+01
   0.608E+01 -.293E+02 -.274E+03   -.749E+01 0.308E+02 0.295E+03   0.142E+01 0.114E+00 -.218E+02
   0.171E+02 0.156E+02 -.276E+03   -.180E+02 -.152E+02 0.295E+03   0.436E+00 -.632E+00 -.182E+02
   0.268E+01 -.220E+01 -.278E+03   -.183E+01 -.161E+01 0.300E+03   -.118E+01 0.382E+01 -.222E+02
   -.258E+02 0.155E+02 -.265E+03   0.271E+02 -.142E+02 0.288E+03   -.280E+00 -.164E+01 -.237E+02
   -.181E+02 -.270E+02 0.421E+03   0.212E+02 0.296E+02 -.443E+03   -.258E+01 -.271E+01 0.228E+02
   -.296E+02 0.114E+02 0.443E+03   0.329E+02 -.120E+02 -.461E+03   -.235E+01 0.167E+00 0.171E+02
   0.364E+00 -.176E+02 0.431E+03   -.961E+00 0.208E+02 -.454E+03   0.884E+00 -.259E+01 0.227E+02
   0.309E+02 0.340E+02 0.423E+03   -.330E+02 -.378E+02 -.441E+03   0.123E+01 0.307E+01 0.180E+02
   0.638E+01 -.933E+01 -.179E+03   -.666E+01 0.777E+01 0.189E+03   0.205E+00 0.249E+01 -.109E+02
   0.130E+02 0.196E+02 -.202E+03   -.137E+02 -.181E+02 0.215E+03   0.686E+00 -.181E+01 -.131E+02
   0.276E+01 -.398E+02 -.193E+03   -.266E+01 0.406E+02 0.209E+03   -.564E+00 0.384E+00 -.154E+02
   -.274E+02 0.114E+02 -.194E+03   0.284E+02 -.904E+01 0.205E+03   0.450E-01 -.250E+01 -.118E+02
   -.126E+02 -.126E+02 0.498E+03   0.132E+02 0.128E+02 -.518E+03   -.133E-01 0.135E+01 0.199E+02
   0.436E+02 0.109E+02 0.511E+03   -.499E+02 -.109E+02 -.533E+03   0.457E+01 -.144E+01 0.213E+02
   0.907E+01 -.168E+02 0.493E+03   -.106E+02 0.188E+02 -.517E+03   0.101E+01 -.168E+01 0.237E+02
   -.138E+02 -.691E+01 0.519E+03   0.174E+02 0.913E+01 -.539E+03   -.427E+01 -.127E+01 0.198E+02
   -.223E+02 0.148E+02 -.581E+03   0.253E+02 -.166E+02 0.600E+03   -.347E+01 0.170E+01 -.188E+02
   0.942E+00 -.856E+01 -.576E+03   0.913E+00 0.895E+01 0.596E+03   -.189E+01 -.326E+00 -.205E+02
   0.350E+02 -.215E+00 -.599E+03   -.392E+02 -.159E+01 0.623E+03   0.356E+01 0.182E+01 -.252E+02
   0.943E+01 0.246E+02 -.570E+03   -.125E+02 -.271E+02 0.592E+03   0.240E+01 0.163E+01 -.214E+02
   0.285E+01 0.101E+02 0.969E+02   -.387E+01 -.937E+01 -.109E+03   0.121E+01 -.738E+00 0.133E+02
   0.291E+02 -.162E+02 0.131E+03   -.334E+02 0.175E+02 -.146E+03   0.398E+01 -.141E+01 0.146E+02
   -.124E+02 0.172E+02 0.115E+03   0.138E+02 -.170E+02 -.130E+03   -.119E+01 -.116E+01 0.157E+02
   -.200E+02 -.141E+02 0.101E+03   0.228E+02 0.128E+02 -.113E+03   -.271E+01 0.164E+01 0.108E+02
 -----------------------------------------------------------------------------------------------
   -.137E+01 0.434E+01 0.254E+01   -.320E-13 0.124E-13 0.938E-12   0.132E+01 -.432E+01 -.258E+01
 
 
 POSITION                                       TOTAL-FORCE (eV/Angst)
 -----------------------------------------------------------------------------------
      0.44381      0.66386     15.22763        -0.158327     -0.015158     -0.215637
      0.98323      1.00098      5.40103        -0.162963     -0.086950     -0.213794
     -2.06273      4.46948     10.00581        -0.334987     -0.520978      0.137503
     -0.76909      1.95895     10.04503        -0.021758     -0.156379      0.029721
      0.65982      4.47211     10.06178         0.315435     -0.335580     -0.171391
      2.19943      1.78579     10.26645         0.062706      0.491513     -0.695564
     -0.65201      3.89031      2.65906         0.146869     -0.755919     -0.068010
      0.79605      1.42480      2.61418        -0.414439     -0.101283      0.885491
      2.28634      3.80916      2.79751        -1.003891      1.520329     -1.038879
      3.67433      1.38649      2.57842         0.306711     -0.967097      1.115717
      3.55702      2.67905      7.72007         0.740080     -0.533463      1.008195
      5.00383      0.26974      7.79088         0.022676     -1.373104      0.475997
      0.71380      2.65959      7.75597         0.963541      1.264503      1.445519
      2.08657      0.23585      7.84432         0.468338     -1.737198     -0.300774
     -0.61585      3.50430     12.39663        -0.661632      0.791847     -0.038292
      0.76900      1.04772     12.28033         0.314291      1.512343      1.109037
      2.19257      3.64666     12.45943         1.139802     -1.181264     -1.289140
      3.63556      1.10484     12.54673         0.508206      0.357524     -1.070756
     -0.67026      2.03047      3.62589         0.048348      1.610241     -0.286256
     -1.99802      4.73938      3.59442        -0.546056     -0.320872      0.744685
      2.27294      2.16218      3.63833        -0.365355      0.005918     -0.169484
      0.69492      4.72846      3.63081         0.991868     -0.346932     -0.653660
      0.74828      3.08668      1.67644         0.506406     -0.082002      0.936448
      2.13802      0.61296      1.64595         0.965487     -0.354871     -0.487960
      3.67926      3.02051      1.77608         0.285893      0.584859     -0.427983
      5.20949      0.57697      1.73521        -0.833546     -0.784354     -0.636725
     -0.75060      3.43694      8.88436        -0.075305      0.886541     -0.995358
      0.65383      1.08031      8.89272         0.093179     -0.382357     -0.651584
      2.16913      3.36700      8.77953        -0.469773      1.337216     -0.106375
      3.47901      1.06539      8.83862         1.051883     -0.136272     -0.263276
     -2.26808      4.28500      6.84969         0.639354      1.557656      0.158133
     -0.61516      1.96281      6.88766        -1.736912     -1.466161     -1.248493
      0.73739      4.31746      6.87413        -0.496828      0.293957      0.428919
      2.14482      1.74553      6.81680        -0.653101      0.983167     -0.224530
     -2.07585      4.40608     13.28253        -0.396234     -0.014082      0.860980
     -0.59854      1.86003     13.30253        -0.013659      0.043768      0.353591
      0.85011      4.37647     13.44113        -0.699324      0.032735     -0.256641
      2.18003      2.04319     13.35183        -0.630253     -0.890520     -0.072361
      3.63469      2.73678     11.33503         0.199077      0.054171      1.320989
      5.11986      0.25523     11.36733        -0.295113     -0.076272     -0.142435
      0.80053      2.87429     11.29563         0.162244     -1.022943      1.035917
      2.24789      0.22108     11.43103         0.037060      0.313724     -0.321489
 -----------------------------------------------------------------------------------
    total drift:                               -0.051525      0.015978     -0.047337


--------------------------------------------------------------------------------------------------------



  FREE ENERGIE OF THE ION-ELECTRON SYSTEM (eV)
  ---------------------------------------------------
  free  energy   TOTEN  =      -232.66887163 eV

  energy  without entropy=     -232.65591745  energy(sigma->0) =     -232.66239454
 


--------------------------------------------------------------------------------------------------------


    POTLOK:  cpu time    0.0669: real time    0.0670


--------------------------------------------------------------------------------------------------------


     LOOP+:  cpu time 4536.7454: real time 4556.5705
    4ORBIT:  cpu time    0.0000: real time    0.0000
 


 total charge     
 
# of ion       s       p       d       tot
------------------------------------------
    1        0.046   0.083   0.000   0.129
    2        0.060   0.114   0.000   0.173
    3        0.097   0.203   0.000   0.299
    4        0.100   0.213   0.000   0.313
    5        0.099   0.209   0.000   0.308
    6        0.101   0.215   0.000   0.316
    7        0.441   0.681   7.161   8.283
    8        0.455   0.733   7.408   8.596
    9        0.414   0.606   7.121   8.140
   10        0.447   0.699   7.167   8.312
   11        0.418   0.636   7.304   8.358
   12        0.399   0.576   7.282   8.257
   13        0.462   0.730   7.230   8.421
   14        0.413   0.616   7.329   8.358
   15        0.408   0.620   7.300   8.329
   16        0.422   0.637   7.353   8.411
   17        0.456   0.714   7.198   8.368
   18        0.414   0.597   7.155   8.167
   19        1.582   3.321   0.000   4.903
   20        1.572   3.402   0.000   4.974
   21        1.578   3.369   0.000   4.947
   22        1.584   3.329   0.000   4.913
   23        1.580   3.327   0.000   4.908
   24        1.568   3.403   0.000   4.971
   25        1.580   3.378   0.000   4.957
   26        1.572   3.374   0.000   4.946
   27        1.556   3.444   0.000   5.001
   28        1.556   3.465   0.000   5.021
   29        1.562   3.428   0.000   4.991
   30        1.553   3.470   0.000   5.023
   31        1.567   3.389   0.000   4.956
   32        1.571   3.417   0.000   4.989
   33        1.578   3.338   0.000   4.916
   34        1.568   3.410   0.000   4.979
   35        1.568   3.397   0.000   4.964
   36        1.570   3.394   0.000   4.964
   37        1.581   3.348   0.000   4.929
   38        1.578   3.355   0.000   4.932
   39        1.563   3.403   0.000   4.966
   40        1.563   3.442   0.000   5.005
   41        1.561   3.434   0.000   4.994
   42        1.555   3.488   0.000   5.043
--------------------------------------------------
tot         43.316  90.407  87.007 220.731
 


 magnetization (x)
 
# of ion       s       p       d       tot
------------------------------------------
    1        0.000  -0.000   0.000  -0.000
    2        0.001  -0.001   0.000  -0.000
    3        0.001  -0.002   0.000  -0.001
    4        0.000  -0.001   0.000  -0.001
    5        0.000   0.000   0.000   0.000
    6        0.000   0.000   0.000   0.000
    7        0.017   0.020   1.530   1.567
    8        0.005   0.009  -0.070  -0.056
    9        0.019   0.021   1.709   1.750
   10        0.015   0.019   1.463   1.497
   11        0.002   0.001  -0.061  -0.059
   12        0.003   0.003  -0.044  -0.038
   13        0.011   0.007   1.342   1.361
   14        0.001   0.001  -0.012  -0.010
   15        0.003   0.004  -0.015  -0.008
   16        0.004   0.005  -0.005   0.004
   17        0.012   0.013   1.341   1.365
   18        0.017   0.013   1.860   1.890
   19       -0.000  -0.268   0.000  -0.268
   20        0.001  -0.135   0.000  -0.134
   21        0.001  -0.163   0.000  -0.163
   22        0.001  -0.234   0.000  -0.234
   23       -0.000  -0.252   0.000  -0.252
   24        0.001  -0.139   0.000  -0.138
   25        0.001  -0.179   0.000  -0.177
   26       -0.000  -0.180   0.000  -0.181
   27        0.000  -0.060   0.000  -0.060
   28        0.001  -0.028   0.000  -0.027
   29        0.000  -0.036   0.000  -0.035
   30       -0.001  -0.022   0.000  -0.023
   31       -0.002  -0.085   0.000  -0.087
   32        0.001  -0.028   0.000  -0.028
   33       -0.000  -0.134   0.000  -0.134
   34       -0.000  -0.105   0.000  -0.106
   35       -0.000  -0.068   0.000  -0.068
   36        0.000  -0.123   0.000  -0.123
   37        0.001  -0.167   0.000  -0.166
   38        0.002  -0.150   0.000  -0.148
   39        0.001  -0.122   0.000  -0.121
   40        0.002  -0.067   0.000  -0.065
   41        0.000  -0.059   0.000  -0.058
   42        0.001  -0.043   0.000  -0.042
--------------------------------------------------
tot          0.122  -2.737   9.037   6.422
 

 total amount of memory used by VASP MPI-rank0   171739. kBytes
=======================================================================

   base      :      30000. kBytes
   nonlr-proj:       4149. kBytes
   fftplans  :       1799. kBytes
   grid      :       4952. kBytes
   one-center:        342. kBytes
   wavefun   :     130497. kBytes
 
  
  
 General timing and accounting informations for this job:
 ========================================================
  
                  Total CPU time used (sec):     4563.095
                            User time (sec):     4163.173
                          System time (sec):      399.922
                         Elapsed time (sec):     4583.399
  
                   Maximum memory used (kb):     1030140.
                   Average memory used (kb):           0.
  
                          Minor page faults:       471823
                          Major page faults:           66
                 Voluntary context switches:          614
