 vasp.5.4.4.18Apr17-6-g9f103f2a35 (build Nov 22 2021 14:44:17) complex          
  
 executed on             LinuxIFC date 2022.08.06  11:36:40
 running on   64 total cores
 distrk:  each k-point on   64 cores,    1 groups
 distr:  one band on NCORES_PER_BAND=   4 cores,   16 groups


--------------------------------------------------------------------------------------------------------


 INCAR:
 POTCAR:    PAW_PBE Li 17Jan2003                  
 POTCAR:    PAW_PBE Co 02Aug2007                  
 POTCAR:    PAW_PBE O 08Apr2002                   
 POTCAR:    PAW_PBE Li 17Jan2003                  
   VRHFIN =Li: s1p0                                                             
   LEXCH  = PE                                                                  
   EATOM  =     5.3001 eV,    0.3895 Ry                                         
                                                                                
   TITEL  = PAW_PBE Li 17Jan2003                                                
   LULTRA =        F    use ultrasoft PP ?                                      
   IUNSCR =        1    unscreen: 0-lin 1-nonlin 2-no                           
   RPACOR =    1.500    partial core radius                                     
   POMASS =    7.010; ZVAL   =    1.000    mass and valenz                      
   RCORE  =    2.050    outmost cutoff radius                                   
   RWIGS  =    2.600; RWIGS  =    1.376    wigner-seitz radius (au A)           
   ENMAX  =  140.000; ENMIN  =  100.000 eV                                      
   ICORE  =        2    local potential                                         
   LCOR   =        T    correct aug charges                                     
   LPAW   =        T    paw PP                                                  
   EAUG   =  331.638                                                            
   DEXC   =    0.000                                                            
   RMAX   =    2.098    core radius for proj-oper                               
   RAUG   =    1.300    factor for augmentation sphere                          
   RDEP   =    2.094    radius for radial grids                                 
   RDEPT  =    1.810    core radius for aug-charge                              
                                                                                
   Atomic configuration                                                         
    4 entries                                                                   
     n  l   j            E        occ.                                          
     1  0  0.50       -51.8549   2.0000                                         
     2  0  0.50        -2.8742   1.0000                                         
     2  1  0.50        -1.3606   0.0000                                         
     3  2  1.50        -1.3606   0.0000                                         
   Description                                                                  
     l       E           TYP  RCUT    TYP  RCUT                                 
     0     -2.8742052     23  2.050                                             
     0     27.2116520     23  2.050                                             
     1     -1.3605826     23  2.050                                             
     2     -1.3605826     23  2.050                                             
  local pseudopotential read in
  partial core-charges read in
  partial kinetic energy density read in
  atomic valenz-charges read in
  non local Contribution for L=           0  read in
    real space projection operators read in
  non local Contribution for L=           0  read in
    real space projection operators read in
  non local Contribution for L=           1  read in
    real space projection operators read in
    PAW grid and wavefunctions read in
 
   number of l-projection  operators is LMAX  =           3
   number of lm-projection operators is LMMAX =           5
 
 POTCAR:    PAW_PBE Co 02Aug2007                  
   VRHFIN =Co: d8 s1                                                            
   LEXCH  = PE                                                                  
   EATOM  =   813.3670 eV,   59.7808 Ry                                         
                                                                                
   TITEL  = PAW_PBE Co 02Aug2007                                                
   LULTRA =        F    use ultrasoft PP ?                                      
   IUNSCR =        1    unscreen: 0-lin 1-nonlin 2-no                           
   RPACOR =    2.000    partial core radius                                     
   POMASS =   58.933; ZVAL   =    9.000    mass and valenz                      
   RCORE  =    2.300    outmost cutoff radius                                   
   RWIGS  =    2.460; RWIGS  =    1.302    wigner-seitz radius (au A)           
   ENMAX  =  267.968; ENMIN  =  200.976 eV                                      
   RCLOC  =    1.203    cutoff for local pot                                    
   LCOR   =        T    correct aug charges                                     
   LPAW   =        T    paw PP                                                  
   EAUG   =  477.818                                                            
   DEXC   =    0.000                                                            
   RMAX   =    2.360    core radius for proj-oper                               
   RAUG   =    1.300    factor for augmentation sphere                          
   RDEP   =    2.393    radius for radial grids                                 
   RDEPT  =    1.864    core radius for aug-charge                              
                                                                                
   Atomic configuration                                                         
    9 entries                                                                   
     n  l   j            E        occ.                                          
     1  0  0.50     -7587.6674   2.0000                                         
     2  0  0.50      -893.6084   2.0000                                         
     2  1  1.50      -764.5805   6.0000                                         
     3  0  0.50       -97.5973   2.0000                                         
     3  1  1.50       -60.9648   6.0000                                         
     3  2  2.50        -4.2382   8.0000                                         
     4  0  0.50        -4.3746   1.0000                                         
     4  1  1.50        -4.0817   0.0000                                         
     4  3  2.50        -1.3606   0.0000                                         
   Description                                                                  
     l       E           TYP  RCUT    TYP  RCUT                                 
     2     -4.2382362     23  2.300                                             
     2     -5.5988188     23  2.300                                             
     0     -4.3745797     23  2.300                                             
     0      5.7660125     23  2.300                                             
     1     -2.7211652     23  2.300                                             
     1     16.9860234     23  2.300                                             
  local pseudopotential read in
  partial core-charges read in
  partial kinetic energy density read in
  atomic valenz-charges read in
  non local Contribution for L=           2  read in
    real space projection operators read in
  non local Contribution for L=           2  read in
    real space projection operators read in
  non local Contribution for L=           0  read in
    real space projection operators read in
  non local Contribution for L=           0  read in
    real space projection operators read in
  non local Contribution for L=           1  read in
    real space projection operators read in
  non local Contribution for L=           1  read in
    real space projection operators read in
    PAW grid and wavefunctions read in
 
   number of l-projection  operators is LMAX  =           6
   number of lm-projection operators is LMMAX =          18
 
 POTCAR:    PAW_PBE O 08Apr2002                   
   VRHFIN =O: s2p4                                                              
   LEXCH  = PE                                                                  
   EATOM  =   432.3788 eV,   31.7789 Ry                                         
                                                                                
   TITEL  = PAW_PBE O 08Apr2002                                                 
   LULTRA =        F    use ultrasoft PP ?                                      
   IUNSCR =        1    unscreen: 0-lin 1-nonlin 2-no                           
   RPACOR =    1.200    partial core radius                                     
   POMASS =   16.000; ZVAL   =    6.000    mass and valenz                      
   RCORE  =    1.520    outmost cutoff radius                                   
   RWIGS  =    1.550; RWIGS  =    0.820    wigner-seitz radius (au A)           
   ENMAX  =  400.000; ENMIN  =  300.000 eV                                      
   ICORE  =        2    local potential                                         
   LCOR   =        T    correct aug charges                                     
   LPAW   =        T    paw PP                                                  
   EAUG   =  605.392                                                            
   DEXC   =    0.000                                                            
   RMAX   =    1.553    core radius for proj-oper                               
   RAUG   =    1.300    factor for augmentation sphere                          
   RDEP   =    1.550    radius for radial grids                                 
   RDEPT  =    1.329    core radius for aug-charge                              
                                                                                
   Atomic configuration                                                         
    4 entries                                                                   
     n  l   j            E        occ.                                          
     1  0  0.50      -514.6923   2.0000                                         
     2  0  0.50       -23.9615   2.0000                                         
     2  1  0.50        -9.0305   4.0000                                         
     3  2  1.50        -9.5241   0.0000                                         
   Description                                                                  
     l       E           TYP  RCUT    TYP  RCUT                                 
     0    -23.9615318     23  1.200                                             
     0     -9.5240782     23  1.200                                             
     1     -9.0304911     23  1.520                                             
     1      8.1634956     23  1.520                                             
     2     -9.5240782      7  1.500                                             
  local pseudopotential read in
  partial core-charges read in
  partial kinetic energy density read in
  kinetic energy density of atom read in
  atomic valenz-charges read in
  non local Contribution for L=           0  read in
    real space projection operators read in
  non local Contribution for L=           0  read in
    real space projection operators read in
  non local Contribution for L=           1  read in
    real space projection operators read in
  non local Contribution for L=           1  read in
    real space projection operators read in
    PAW grid and wavefunctions read in
 
   number of l-projection  operators is LMAX  =           4
   number of lm-projection operators is LMMAX =           8
 
 Optimization of the real space projectors (new method)

 maximal supplied QI-value         = 18.33
 optimisation between [QCUT,QGAM] = [ 12.46, 24.93] = [ 43.51,174.03] Ry 
 Optimized for a Real-space Cutoff    1.13 Angstroem

   l    n(q)    QCUT    max X(q) W(low)/X(q) W(high)/X(q)  e(spline) 
   0      8    12.465    33.825    0.12E-03    0.29E-03    0.99E-07
   0      8    12.465     8.944    0.86E-04    0.22E-03    0.72E-07
   1      8    12.465     4.214    0.27E-03    0.11E-03    0.82E-07
 Optimization of the real space projectors (new method)

 maximal supplied QI-value         = 16.25
 optimisation between [QCUT,QGAM] = [ 12.51, 25.03] = [ 43.85,175.40] Ry 
 Optimized for a Real-space Cutoff    1.31 Angstroem

   l    n(q)    QCUT    max X(q) W(low)/X(q) W(high)/X(q)  e(spline) 
   2      9    12.514    65.824    0.30E-03    0.46E-03    0.43E-06
   2      9    12.514    61.429    0.31E-03    0.46E-03    0.44E-06
   0     10    12.514    56.174    0.90E-04    0.33E-03    0.30E-06
   0     10    12.514    31.263    0.81E-04    0.30E-03    0.28E-06
   1      9    12.514    19.828    0.38E-03    0.65E-04    0.24E-06
   1      9    12.514    15.139    0.32E-03    0.60E-04    0.20E-06
 Optimization of the real space projectors (new method)

 maximal supplied QI-value         = 24.76
 optimisation between [QCUT,QGAM] = [ 12.38, 25.00] = [ 42.90,175.06] Ry 
 Optimized for a Real-space Cutoff    1.13 Angstroem

   l    n(q)    QCUT    max X(q) W(low)/X(q) W(high)/X(q)  e(spline) 
   0      8    12.378    20.381    0.16E-03    0.54E-05    0.27E-06
   0      8    12.378    15.268    0.17E-03    0.61E-05    0.29E-06
   1      8    12.378     5.964    0.38E-03    0.23E-03    0.28E-06
   1      8    12.378     5.382    0.33E-03    0.20E-03    0.25E-06
  PAW_PBE Li 17Jan2003                  :
 energy of atom  1       EATOM=   -5.3001
 kinetic energy error for atom=    0.0000 (will be added to EATOM!!)
  PAW_PBE Co 02Aug2007                  :
 energy of atom  2       EATOM= -813.3670
 kinetic energy error for atom=    0.0018 (will be added to EATOM!!)
  PAW_PBE O 08Apr2002                   :
 energy of atom  3       EATOM= -432.3788
 kinetic energy error for atom=    0.0168 (will be added to EATOM!!)
 
 
 POSCAR: Li6 Co12 O24                            
  positions in cartesian coordinates
  No initial velocities read in
 exchange correlation table for  LEXCH =        8
   RHO(1)=    0.500       N(1)  =     2000
   RHO(2)=  100.500       N(2)  =     4000
 


--------------------------------------------------------------------------------------------------------


 ion  position               nearest neighbor table
   1  0.008  0.954  0.996-  23 1.94  38 2.02  26 2.06  25 2.14  36 2.19  35 2.22  18 2.67   2 2.70
                             3 2.74  17 2.80   3 2.85  10 2.93  15 2.93   8 2.97   2 2.99   7 3.06
   2  0.464  0.914  0.010-  24 1.88  23 1.94  36 2.10  38 2.19  25 2.25  37 2.45   8 2.62   3 2.68
                             1 2.70  10 2.82   9 2.87  16 2.97   1 2.99   3 3.01  15 3.06  17 3.17
   3  0.510  0.471  0.993-  38 1.98  35 2.09  37 2.13  23 2.17  24 2.25  26 2.33   2 2.68   1 2.74
                            18 2.78  15 2.81   1 2.85  16 2.87   9 2.94  10 2.97   2 3.01   7 3.03
   4  0.736  0.684  0.327-  22 1.91  33 2.01  19 2.03  34 2.26  32 2.43  10 2.46  21 2.54  14 2.85
                            12 3.00  11 3.21
   5  0.489  0.255  0.682-  41 1.88  42 2.05  27 2.10  15 2.37  29 2.58   6 2.91   6 3.00  13 3.05

   6  0.664  0.856  0.672-  42 1.95  41 2.04  30 2.16  29 2.21  39 2.28  28 2.34  16 2.83   5 2.91
                            11 2.92  17 3.00   5 3.00  14 3.06  18 3.09  13 3.17
   7  0.182  0.285  0.166-  24 1.87  20 1.87  25 1.91  19 1.95  22 1.99  23 2.16   8 2.73   9 2.75
                            10 2.79  10 2.81   8 2.92   9 2.92   3 3.03   1 3.06
   8  0.204  0.780  0.164-  21 1.84  24 1.86  26 1.86  20 1.91  23 1.92  19 1.98   2 2.62   7 2.73
                             9 2.75  10 2.80   9 2.85  10 2.86   7 2.92   1 2.97
   9  0.691  0.275  0.157-  26 1.93  25 1.96  21 1.97  22 1.98  20 2.05  23 2.12   8 2.75   7 2.75
                            10 2.80   8 2.85  10 2.85   2 2.87   7 2.92   3 2.94
  10  0.693  0.770  0.163-  22 1.87  24 1.87  19 1.89  21 1.91  26 1.94  25 1.96   4 2.46   7 2.79
                             9 2.80   8 2.80   7 2.81   2 2.82   9 2.85   8 2.86   1 2.93   3 2.97
  11  0.955  0.054  0.501-  34 1.85  32 1.89  29 1.90  27 1.91  30 2.00  31 2.03  14 2.76  12 2.80
                            13 2.81  14 2.83  12 2.85  13 2.86   6 2.92   4 3.21
  12  0.960  0.560  0.501-  32 1.77  31 1.78  30 1.87  28 1.91  33 1.91  29 1.97  13 2.75  14 2.78
                            11 2.80  13 2.84  11 2.85  14 2.89   4 3.00
  13  0.455  0.049  0.494-  27 1.85  32 1.87  33 1.88  29 1.91  28 1.92  34 1.97  14 2.71  12 2.75
                            11 2.81  12 2.84  11 2.86  14 2.94   5 3.05   6 3.17
  14  0.453  0.568  0.494-  31 1.76  27 1.80  28 1.87  34 1.90  30 1.93  33 2.05  13 2.71  11 2.76
                            12 2.78  11 2.83   4 2.85  12 2.89  13 2.94   6 3.06
  15  0.357  0.174  0.835-  39 1.85  37 1.89  35 1.93  36 1.97  41 2.03  42 2.07   5 2.37  18 2.79
                            18 2.80   3 2.81  16 2.82  17 2.82  16 2.84  17 2.84   1 2.93   2 3.06
  16  0.345  0.667  0.831-  40 1.79  36 1.88  41 1.89  35 1.90  42 1.90  38 1.99  17 2.76  18 2.76
                            15 2.82   6 2.83  15 2.84  17 2.84   3 2.87  18 2.93   2 2.97
  17  0.857  0.169  0.841-  35 1.78  39 1.86  40 1.91  37 1.92  41 1.93  38 1.97  16 2.76   1 2.80
                            18 2.81  15 2.82  16 2.84  18 2.84  15 2.84   6 3.00   2 3.17
  18  0.863  0.668  0.847-  36 1.74  40 1.81  37 1.84  42 1.95  38 1.98  39 2.03   1 2.67  16 2.76
                             3 2.78  15 2.79  15 2.80  17 2.81  17 2.84  16 2.93   6 3.09
  19  0.022  0.928  0.233-  10 1.89   7 1.95   8 1.98   4 2.03
  20  0.040  0.441  0.237-   7 1.87   8 1.91   9 2.05
  21  0.527  0.922  0.230-   8 1.84  10 1.91   9 1.97   4 2.54
  22  0.539  0.437  0.233-  10 1.87   4 1.91   9 1.98   7 1.99
  23  0.321  0.092  0.079-   8 1.92   2 1.94   1 1.94   9 2.12   7 2.16   3 2.17
  24  0.358  0.624  0.099-   8 1.86   7 1.87  10 1.87   2 1.88   3 2.25
  25  0.861  0.117  0.089-   7 1.91  10 1.96   9 1.96   1 2.14   2 2.25
  26  0.880  0.637  0.095-   8 1.86   9 1.93  10 1.94   1 2.06   3 2.33
  27  0.319  0.234  0.551-  14 1.80  13 1.85  11 1.91   5 2.10
  28  0.299  0.708  0.567-  14 1.87  12 1.91  13 1.92   6 2.34
  29  0.782  0.196  0.567-  11 1.90  13 1.91  12 1.97   6 2.21   5 2.58
  30  0.779  0.685  0.568-  12 1.87  14 1.93  11 2.00   6 2.16
  31  0.130  0.437  0.438-  14 1.76  12 1.78  11 2.03
  32  0.108  0.883  0.439-  12 1.77  13 1.87  11 1.89   4 2.43
  33  0.630  0.393  0.429-  13 1.88  12 1.91   4 2.01  14 2.05
  34  0.647  0.913  0.426-  11 1.85  14 1.90  13 1.97   4 2.26
  35  0.181  0.324  0.900-  17 1.78  16 1.90  15 1.93   3 2.09   1 2.22
  36  0.182  0.807  0.901-  18 1.74  16 1.88  15 1.97   2 2.10   1 2.19
  37  0.685  0.322  0.905-  18 1.84  15 1.89  17 1.92   3 2.13   2 2.45
  38  0.674  0.814  0.913-  17 1.97  18 1.98   3 1.98  16 1.99   1 2.02   2 2.19
  39  0.024  0.034  0.773-  15 1.85  17 1.86  18 2.03   6 2.28
  40  0.011  0.524  0.779-  16 1.79  18 1.81  17 1.91
  41  0.532  0.011  0.765-   5 1.88  16 1.89  17 1.93  15 2.03   6 2.04
  42  0.547  0.554  0.765-  16 1.90  18 1.95   6 1.95   5 2.05  15 2.07
 

IMPORTANT INFORMATION: All symmetrisations will be switched off!
NOSYMM: (Re-)initialisation of all symmetry stuff for point group C_1.

 
 

Automatic generation of k-mesh.
 generate k-points for:    6    6    2
Space group operators:
 irot       det(A)        alpha          n_x          n_y          n_z        tau_x        tau_y        tau_z
    1     1.000000     0.000000     1.000000     0.000000     0.000000     0.000000     0.000000     0.000000
 
 Subroutine IBZKPT returns following result:
 ===========================================
 
 Found     36 irreducible k-points:
 
 Following reciprocal coordinates:
            Coordinates               Weight
  0.083333  0.083333  0.250000      2.000000
  0.250000  0.083333  0.250000      2.000000
  0.416667  0.083333  0.250000      2.000000
 -0.416667  0.083333  0.250000      2.000000
 -0.250000  0.083333  0.250000      2.000000
 -0.083333  0.083333  0.250000      2.000000
  0.083333  0.250000  0.250000      2.000000
  0.250000  0.250000  0.250000      2.000000
  0.416667  0.250000  0.250000      2.000000
 -0.416667  0.250000  0.250000      2.000000
 -0.250000  0.250000  0.250000      2.000000
 -0.083333  0.250000  0.250000      2.000000
  0.083333  0.416667  0.250000      2.000000
  0.250000  0.416667  0.250000      2.000000
  0.416667  0.416667  0.250000      2.000000
 -0.416667  0.416667  0.250000      2.000000
 -0.250000  0.416667  0.250000      2.000000
 -0.083333  0.416667  0.250000      2.000000
  0.083333 -0.416667  0.250000      2.000000
  0.250000 -0.416667  0.250000      2.000000
  0.416667 -0.416667  0.250000      2.000000
 -0.416667 -0.416667  0.250000      2.000000
 -0.250000 -0.416667  0.250000      2.000000
 -0.083333 -0.416667  0.250000      2.000000
  0.083333 -0.250000  0.250000      2.000000
  0.250000 -0.250000  0.250000      2.000000
  0.416667 -0.250000  0.250000      2.000000
 -0.416667 -0.250000  0.250000      2.000000
 -0.250000 -0.250000  0.250000      2.000000
 -0.083333 -0.250000  0.250000      2.000000
  0.083333 -0.083333  0.250000      2.000000
  0.250000 -0.083333  0.250000      2.000000
  0.416667 -0.083333  0.250000      2.000000
 -0.416667 -0.083333  0.250000      2.000000
 -0.250000 -0.083333  0.250000      2.000000
 -0.083333 -0.083333  0.250000      2.000000
 
 Following cartesian coordinates:
            Coordinates               Weight
  0.014709  0.025943  0.016244      2.000000
  0.044126  0.043483  0.016792      2.000000
  0.073543  0.061024  0.017341      2.000000
 -0.073543 -0.026680  0.014598      2.000000
 -0.044126 -0.009139  0.015146      2.000000
 -0.014709  0.008402  0.015695      2.000000
  0.014709  0.060287  0.014260      2.000000
  0.044126  0.077828  0.014809      2.000000
  0.073543  0.095368  0.015358      2.000000
 -0.073543  0.007665  0.012614      2.000000
 -0.044126  0.025205  0.013163      2.000000
 -0.014709  0.042746  0.013712      2.000000
  0.014709  0.094631  0.012277      2.000000
  0.044126  0.112172  0.012825      2.000000
  0.073543  0.129713  0.013374      2.000000
 -0.073543  0.042009  0.010631      2.000000
 -0.044126  0.059550  0.011179      2.000000
 -0.014709  0.077091  0.011728      2.000000
  0.014709 -0.077091  0.022194      2.000000
  0.044126 -0.059550  0.022743      2.000000
  0.073543 -0.042009  0.023292      2.000000
 -0.073543 -0.129713  0.020548      2.000000
 -0.044126 -0.112172  0.021097      2.000000
 -0.014709 -0.094631  0.021646      2.000000
  0.014709 -0.042746  0.020211      2.000000
  0.044126 -0.025205  0.020759      2.000000
  0.073543 -0.007665  0.021308      2.000000
 -0.073543 -0.095368  0.018565      2.000000
 -0.044126 -0.077828  0.019113      2.000000
 -0.014709 -0.060287  0.019662      2.000000
  0.014709 -0.008402  0.018227      2.000000
  0.044126  0.009139  0.018776      2.000000
  0.073543  0.026680  0.019325      2.000000
 -0.073543 -0.061024  0.016581      2.000000
 -0.044126 -0.043483  0.017130      2.000000
 -0.014709 -0.025943  0.017679      2.000000
 


--------------------------------------------------------------------------------------------------------




 Dimension of arrays:
   k-points           NKPTS =     36   k-points in BZ     NKDIM =     36   number of bands    NBANDS=    160
   number of dos      NEDOS =    301   number of ions     NIONS =     42
   non local maximal  LDIM  =      6   non local SUM 2l+1 LMDIM =     18
   total plane-waves  NPLWV = 116640
   max r-space proj   IRMAX =   2740   max aug-charges    IRDMAX=  11549
   dimension x,y,z NGX =    36 NGY =   36 NGZ =   90
   dimension x,y,z NGXF=    72 NGYF=   72 NGZF=  180
   support grid    NGXF=    72 NGYF=   72 NGZF=  180
   ions per type =               6  12  24
   NGX,Y,Z   is equivalent  to a cutoff of  10.56, 10.59, 10.12 a.u.
   NGXF,Y,Z  is equivalent  to a cutoff of  21.13, 21.19, 20.24 a.u.

 SYSTEM =  LiCoO2                                  
 POSCAR =  Li6 Co12 O24                            

 Startparameter for this run:
   NWRITE =      2    write-flag & timer
   PREC   = normal    normal or accurate (medium, high low for compatibility)
   ISTART =      0    job   : 0-new  1-cont  2-samecut
   ICHARG =      2    charge: 1-file 2-atom 10-const
   ISPIN  =      2    spin polarized calculation?
   LNONCOLLINEAR =      F non collinear calculations
   LSORBIT =      F    spin-orbit coupling
   INIWAV =      1    electr: 0-lowe 1-rand  2-diag
   LASPH  =      F    aspherical Exc in radial PAW
   METAGGA=      F    non-selfconsistent MetaGGA calc.

 Electronic Relaxation 1
   ENCUT  =  600.0 eV  44.10 Ry    6.64 a.u.  11.32 11.28 29.53*2*pi/ulx,y,z
   ENINI  =  600.0     initial cutoff
   ENAUG  =  605.4 eV  augmentation charge cutoff
   NELM   =    600;   NELMIN=  2; NELMDL= -5     # of ELM steps 
   EDIFF  = 0.1E-05   stopping-criterion for ELM
   LREAL  =      T    real-space projection
   NLSPLINE    = F    spline interpolate recip. space projectors
   LCOMPAT=      F    compatible to vasp.4.4
   GGA_COMPAT  = T    GGA compatible to vasp.4.4-vasp.4.6
   LMAXPAW     = -100 max onsite density
   LMAXMIX     =    2 max onsite mixed and CHGCAR
   VOSKOWN=      0    Vosko Wilk Nusair interpolation
   ROPT   =   -0.00050  -0.00050  -0.00050
 Ionic relaxation
   EDIFFG = 0.1E-04   stopping-criterion for IOM
   NSW    =      0    number of steps for IOM
   NBLOCK =      1;   KBLOCK =      1    inner block; outer block 
   IBRION =     -1    ionic relax: 0-MD 1-quasi-New 2-CG
   NFREE  =      0    steps in history (QN), initial steepest desc. (CG)
   ISIF   =      2    stress and relaxation
   IWAVPR =     10    prediction:  0-non 1-charg 2-wave 3-comb
   ISYM   =      0    0-nonsym 1-usesym 2-fastsym
   LCORR  =      T    Harris-Foulkes like correction to forces

   POTIM  = 0.5000    time-step for ionic-motion
   TEIN   =    0.0    initial temperature
   TEBEG  =    0.0;   TEEND  =   0.0 temperature during run
   SMASS  =  -3.00    Nose mass-parameter (am)
   estimated Nose-frequenzy (Omega)   =  0.10E-29 period in steps =****** mass=  -0.734E-27a.u.
   SCALEE = 1.0000    scale energy and forces
   NPACO  =    256;   APACO  = 16.0  distance and # of slots for P.C.
   PSTRESS=    0.0 pullay stress

  Mass of Ions in am
   POMASS =   7.01 58.93 16.00
  Ionic Valenz
   ZVAL   =   1.00  9.00  6.00
  Atomic Wigner-Seitz radii
   RWIGS  =  -1.00 -1.00 -1.00
  virtual crystal weights 
   VCA    =   1.00  1.00  1.00
   NELECT =     258.0000    total number of electrons
   NUPDOWN=       6.0000    fix difference up-down

 DOS related values:
   EMIN   =  10.00;   EMAX   =-10.00  energy-range for DOS
   EFERMI =   0.00
   ISMEAR =     0;   SIGMA  =   0.05  broadening in eV -4-tet -1-fermi 0-gaus

 Electronic relaxation 2 (details)
   IALGO  =     58    algorithm
   LDIAG  =      T    sub-space diagonalisation (order eigenvalues)
   LSUBROT=      F    optimize rotation matrix (better conditioning)
   TURBO    =      0    0=normal 1=particle mesh
   IRESTART =      0    0=no restart 2=restart with 2 vectors
   NREBOOT  =      0    no. of reboots
   NMIN     =      0    reboot dimension
   EREF     =   0.00    reference energy to select bands
   IMIX   =      4    mixing-type and parameters
     AMIX     =   0.40;   BMIX     =  1.00
     AMIX_MAG =   1.60;   BMIX_MAG =  1.00
     AMIN     =   0.10
     WC   =   100.;   INIMIX=   1;  MIXPRE=   1;  MAXMIX= -45

 Intra band minimization:
   WEIMIN = 0.0000     energy-eigenvalue tresh-hold
   EBREAK =  0.16E-08  absolut break condition
   DEPER  =   0.30     relativ break condition  

   TIME   =   0.40     timestep for ELM

  volume/ion in A,a.u.               =       9.65        65.11
  Fermi-wavevector in a.u.,A,eV,Ry     =   1.408334  2.661366 26.985867  1.983405
  Thomas-Fermi vector in A             =   2.530502
 
 Write flags
   LWAVE        =      F    write WAVECAR
   LDOWNSAMPLE  =      F    k-point downsampling of WAVECAR
   LCHARG       =      F    write CHGCAR
   LVTOT        =      F    write LOCPOT, total local potential
   LVHAR        =      F    write LOCPOT, Hartree potential only
   LELF         =      F    write electronic localiz. function (ELF)
   LORBIT       =     11    0 simple, 1 ext, 2 COOP (PROOUT), +10 PAW based schemes


 Dipole corrections
   LMONO  =      F    monopole corrections only (constant potential shift)
   LDIPOL =      F    correct potential (dipole corrections)
   IDIPOL =      0    1-x, 2-y, 3-z, 4-all directions 
   EPSILON=  1.0000000 bulk dielectric constant

 LDA+U is selected, type is set to LDAUTYPE =  2
   angular momentum for each species LDAUL =    -1    2   -1
   U (eV)           for each species LDAUU =   0.0  5.1  0.0
   J (eV)           for each species LDAUJ =   0.0  0.0  0.0
 Exchange correlation treatment:
   GGA     =    --    GGA type
   LEXCH   =     8    internal setting for exchange type
   VOSKOWN=      0    Vosko Wilk Nusair interpolation
   LHFCALC =     F    Hartree Fock is set to
   LHFONE  =     F    Hartree Fock one center treatment
   AEXX    =    0.0000 exact exchange contribution

 Linear response parameters
   LEPSILON=     F    determine dielectric tensor
   LRPA    =     F    only Hartree local field effects (RPA)
   LNABLA  =     F    use nabla operator in PAW spheres
   LVEL    =     F    velocity operator in full k-point grid
   LINTERFAST=   F  fast interpolation
   KINTER  =     0    interpolate to denser k-point grid
   CSHIFT  =0.1000    complex shift for real part using Kramers Kronig
   OMEGAMAX=  -1.0    maximum frequency
   DEG_THRESHOLD= 0.2000000E-02 threshold for treating states as degnerate
   RTIME   =   -0.100 relaxation time in fs
  (WPLASMAI=    0.000 imaginary part of plasma frequency in eV, 0.658/RTIME)
   DFIELD  = 0.0000000 0.0000000 0.0000000 field for delta impulse in time
 
 Orbital magnetization related:
   ORBITALMAG=     F  switch on orbital magnetization
   LCHIMAG   =     F  perturbation theory with respect to B field
   DQ        =  0.001000  dq finite difference perturbation B field
   LLRAUG    =     F  two centre corrections for induced B field



--------------------------------------------------------------------------------------------------------


 Static calculation
 charge density and potential will be updated during run
 spin polarized calculation
 Conjugate gradient for all bands (Freysoldt, et al. PRB 79, 241103 (2009))
 preconditioned conjugated gradient                                        
 perform sub-space diagonalisation
    before iterative eigenvector-optimisation
 modified Broyden-mixing scheme, WC =      100.0
 initial mixing is a Kerker type mixing with AMIX =  0.4000 and BMIX =      1.0000
 Hartree-type preconditioning will be used
 using additional bands           31
 real space projection scheme for non local part
 use partial core corrections
 no Harris-corrections to forces 
 use gradient corrections 
 use of overlap-Matrix (Vanderbilt PP)
 Gauss-broadening in eV      SIGMA  =   0.05


--------------------------------------------------------------------------------------------------------


  energy-cutoff  :      600.00
  volume of cell :      405.25
      direct lattice vectors                 reciprocal lattice vectors
     5.665656090  0.000000000  0.000000000     0.176502065  0.105244326  0.003291965
    -2.893624544  4.852809906  0.000000000     0.000000000  0.206066180 -0.011901145
    -0.782500565  0.851266503 14.739525795     0.000000000  0.000000000  0.067844788

  length of vectors
     5.665656090  5.650028937 14.784809179     0.205524169  0.206409563  0.067844788


 
 k-points in units of 2pi/SCALE and weight: read from INCAR                         
   0.01470851  0.02594254  0.01624377       0.028
   0.04412552  0.04348326  0.01679243       0.028
   0.07354253  0.06102398  0.01734109       0.028
  -0.07354253 -0.02667962  0.01459778       0.028
  -0.04412552 -0.00913890  0.01514644       0.028
  -0.01470851  0.00840182  0.01569510       0.028
   0.01470851  0.06028691  0.01426024       0.028
   0.04412552  0.07782763  0.01480890       0.028
   0.07354253  0.09536835  0.01535756       0.028
  -0.07354253  0.00766474  0.01261426       0.028
  -0.04412552  0.02520546  0.01316292       0.028
  -0.01470851  0.04274618  0.01371158       0.028
   0.01470851  0.09463127  0.01227672       0.028
   0.04412552  0.11217199  0.01282538       0.028
   0.07354253  0.12971271  0.01337404       0.028
  -0.07354253  0.04200911  0.01063073       0.028
  -0.04412552  0.05954983  0.01117940       0.028
  -0.01470851  0.07709055  0.01172806       0.028
   0.01470851 -0.07709055  0.02219434       0.028
   0.04412552 -0.05954983  0.02274300       0.028
   0.07354253 -0.04200911  0.02329166       0.028
  -0.07354253 -0.12971271  0.02054836       0.028
  -0.04412552 -0.11217199  0.02109702       0.028
  -0.01470851 -0.09463127  0.02164568       0.028
   0.01470851 -0.04274618  0.02021081       0.028
   0.04412552 -0.02520546  0.02075947       0.028
   0.07354253 -0.00766474  0.02130814       0.028
  -0.07354253 -0.09536835  0.01856483       0.028
  -0.04412552 -0.07782763  0.01911349       0.028
  -0.01470851 -0.06028691  0.01966215       0.028
   0.01470851 -0.00840182  0.01822729       0.028
   0.04412552  0.00913890  0.01877595       0.028
   0.07354253  0.02667962  0.01932461       0.028
  -0.07354253 -0.06102398  0.01658131       0.028
  -0.04412552 -0.04348326  0.01712997       0.028
  -0.01470851 -0.02594254  0.01767863       0.028
 
 k-points in reciprocal lattice and weights: read from INCAR                         
   0.08333333  0.08333333  0.25000000       0.028
   0.25000000  0.08333333  0.25000000       0.028
   0.41666667  0.08333333  0.25000000       0.028
  -0.41666667  0.08333333  0.25000000       0.028
  -0.25000000  0.08333333  0.25000000       0.028
  -0.08333333  0.08333333  0.25000000       0.028
   0.08333333  0.25000000  0.25000000       0.028
   0.25000000  0.25000000  0.25000000       0.028
   0.41666667  0.25000000  0.25000000       0.028
  -0.41666667  0.25000000  0.25000000       0.028
  -0.25000000  0.25000000  0.25000000       0.028
  -0.08333333  0.25000000  0.25000000       0.028
   0.08333333  0.41666667  0.25000000       0.028
   0.25000000  0.41666667  0.25000000       0.028
   0.41666667  0.41666667  0.25000000       0.028
  -0.41666667  0.41666667  0.25000000       0.028
  -0.25000000  0.41666667  0.25000000       0.028
  -0.08333333  0.41666667  0.25000000       0.028
   0.08333333 -0.41666667  0.25000000       0.028
   0.25000000 -0.41666667  0.25000000       0.028
   0.41666667 -0.41666667  0.25000000       0.028
  -0.41666667 -0.41666667  0.25000000       0.028
  -0.25000000 -0.41666667  0.25000000       0.028
  -0.08333333 -0.41666667  0.25000000       0.028
   0.08333333 -0.25000000  0.25000000       0.028
   0.25000000 -0.25000000  0.25000000       0.028
   0.41666667 -0.25000000  0.25000000       0.028
  -0.41666667 -0.25000000  0.25000000       0.028
  -0.25000000 -0.25000000  0.25000000       0.028
  -0.08333333 -0.25000000  0.25000000       0.028
   0.08333333 -0.08333333  0.25000000       0.028
   0.25000000 -0.08333333  0.25000000       0.028
   0.41666667 -0.08333333  0.25000000       0.028
  -0.41666667 -0.08333333  0.25000000       0.028
  -0.25000000 -0.08333333  0.25000000       0.028
  -0.08333333 -0.08333333  0.25000000       0.028
 
 position of ions in fractional coordinates (direct lattice) 
   0.00751064  0.95359908  0.99569895
   0.46359639  0.91412464  0.01007563
   0.51023486  0.47120221  0.99282094
   0.73609977  0.68424727  0.32726290
   0.48935014  0.25521710  0.68177226
   0.66421336  0.85572397  0.67219192
   0.18216624  0.28474769  0.16571022
   0.20372455  0.77968073  0.16399985
   0.69102335  0.27497583  0.15706543
   0.69293203  0.76970627  0.16313551
   0.95513437  0.05366874  0.50068435
   0.95969131  0.56018433  0.50089130
   0.45528947  0.04858124  0.49409256
   0.45294684  0.56846026  0.49355929
   0.35697914  0.17362655  0.83547670
   0.34531522  0.66698835  0.83091749
   0.85713029  0.16883119  0.84130452
   0.86288589  0.66811950  0.84671858
   0.02171368  0.92759936  0.23294304
   0.03966104  0.44115316  0.23650354
   0.52696409  0.92240114  0.23002504
   0.53935962  0.43662710  0.23340710
   0.32134894  0.09217998  0.07866875
   0.35805465  0.62370452  0.09921757
   0.86128705  0.11747752  0.08934208
   0.87970233  0.63675573  0.09491214
   0.31932649  0.23358339  0.55074904
   0.29913670  0.70808972  0.56692599
   0.78164345  0.19616753  0.56740905
   0.77916785  0.68547032  0.56829780
   0.13046411  0.43664990  0.43781937
   0.10760279  0.88339875  0.43855073
   0.63046295  0.39269681  0.42881637
   0.64666869  0.91297949  0.42581764
   0.18110781  0.32407570  0.89973248
   0.18214318  0.80686389  0.90079087
   0.68547780  0.32214063  0.90503117
   0.67395026  0.81361691  0.91285369
   0.02447664  0.03423148  0.77259137
   0.01136373  0.52435608  0.77940299
   0.53242711  0.01088687  0.76464670
   0.54711811  0.55411814  0.76501311
 
 position of ions in cartesian coordinates  (Angst):
  -3.49593997  5.47524023 14.67613029
  -0.02644000  4.44465017  0.14850999
   0.75045002  3.13180995 14.63370991
   1.93445003  3.59910989  4.82369995
   1.50049996  1.81888998 10.04899979
   0.76107001  4.72488022  9.90779018
   0.07847000  1.52288997  2.44249010
  -1.23020005  3.92324996  2.41727996
   2.99652004  1.46810997  2.31506991
   1.57102001  3.87410998  2.40454006
   4.86437988  0.68665999  7.37984991
   3.42437005  3.14486003  7.38290024
   2.05230999  0.65635997  7.28269005
   0.53512001  3.17878008  7.27482986
   0.86635000  1.55378997 12.31453037
  -0.62377000  3.94409990 12.24732971
   3.70935011  1.53548002 12.40042973
   2.29296994  3.96304011 12.48023033
  -2.74338007  4.69975996  3.43347001
  -1.23688996  2.34215999  3.48594999
   0.13652000  4.67205000  3.39046001
   1.60975003  2.31755996  3.44031000
   1.49236000  0.51429999  1.15954006
   0.14621000  3.11118007  1.46241999
   4.46991014  0.64614999  1.31685996
   3.06729007  3.17085004  1.39895999
   0.70232999  1.60237002  8.11777973
  -0.79776001  3.91882992  8.35622025
   3.41688991  1.43498003  8.36334038
   1.98631001  3.81023002  8.37644005
  -0.86693001  2.49167991  6.45324993
  -2.28975010  4.66028976  6.46402979
   2.10012007  2.27072000  6.32054996
   0.68878001  4.79300022  6.27635002
  -0.61570001  2.33858991 13.26163006
  -2.00766993  4.68237019 13.27723026
   2.24334002  2.33370996 13.33973026
   0.74975997  4.72540998 13.45503044
  -0.56493002  0.82380003 11.38763046
  -2.06278992  3.20808005 11.48803043
   2.38670993  0.70375001 11.27052975
   0.89775002  3.34026003 11.27593040
 


--------------------------------------------------------------------------------------------------------


 k-point  1 :   0.0833 0.0833 0.2500  plane waves:   13518
 k-point  2 :   0.2500 0.0833 0.2500  plane waves:   13514
 k-point  3 :   0.4167 0.0833 0.2500  plane waves:   13527
 k-point  4 :  -0.4167 0.0833 0.2500  plane waves:   13527
 k-point  5 :  -0.2500 0.0833 0.2500  plane waves:   13511
 k-point  6 :  -0.0833 0.0833 0.2500  plane waves:   13554
 k-point  7 :   0.0833 0.2500 0.2500  plane waves:   13520
 k-point  8 :   0.2500 0.2500 0.2500  plane waves:   13529
 k-point  9 :   0.4167 0.2500 0.2500  plane waves:   13531
 k-point 10 :  -0.4167 0.2500 0.2500  plane waves:   13504
 k-point 11 :  -0.2500 0.2500 0.2500  plane waves:   13510
 k-point 12 :  -0.0833 0.2500 0.2500  plane waves:   13524
 k-point 13 :   0.0833 0.4167 0.2500  plane waves:   13537
 k-point 14 :   0.2500 0.4167 0.2500  plane waves:   13532
 k-point 15 :   0.4167 0.4167 0.2500  plane waves:   13525
 k-point 16 :  -0.4167 0.4167 0.2500  plane waves:   13502
 k-point 17 :  -0.2500 0.4167 0.2500  plane waves:   13512
 k-point 18 :  -0.0833 0.4167 0.2500  plane waves:   13537
 k-point 19 :   0.0833-0.4167 0.2500  plane waves:   13536
 k-point 20 :   0.2500-0.4167 0.2500  plane waves:   13508
 k-point 21 :   0.4167-0.4167 0.2500  plane waves:   13510
 k-point 22 :  -0.4167-0.4167 0.2500  plane waves:   13521
 k-point 23 :  -0.2500-0.4167 0.2500  plane waves:   13530
 k-point 24 :  -0.0833-0.4167 0.2500  plane waves:   13543
 k-point 25 :   0.0833-0.2500 0.2500  plane waves:   13521
 k-point 26 :   0.2500-0.2500 0.2500  plane waves:   13525
 k-point 27 :   0.4167-0.2500 0.2500  plane waves:   13498
 k-point 28 :  -0.4167-0.2500 0.2500  plane waves:   13531
 k-point 29 :  -0.2500-0.2500 0.2500  plane waves:   13527
 k-point 30 :  -0.0833-0.2500 0.2500  plane waves:   13518
 k-point 31 :   0.0833-0.0833 0.2500  plane waves:   13550
 k-point 32 :   0.2500-0.0833 0.2500  plane waves:   13533
 k-point 33 :   0.4167-0.0833 0.2500  plane waves:   13548
 k-point 34 :  -0.4167-0.0833 0.2500  plane waves:   13541
 k-point 35 :  -0.2500-0.0833 0.2500  plane waves:   13538
 k-point 36 :  -0.0833-0.0833 0.2500  plane waves:   13520

 maximum and minimum number of plane-waves per node :      3419     3349

 maximum number of plane-waves:     13554
 maximum index in each direction: 
   IXMAX=   11   IYMAX=   11   IZMAX=   29
   IXMIN=  -11   IYMIN=  -11   IZMIN=  -29


 real space projection operators:
  total allocation   :       7314.41 KBytes
  max/ min on nodes  :       1834.63       1822.84


 parallel 3D FFT for wavefunctions:
    minimum data exchange during FFTs selected (reduces bandwidth)
 parallel 3D FFT for charge:
    minimum data exchange during FFTs selected (reduces bandwidth)


 total amount of memory used by VASP MPI-rank0   163057. kBytes
=======================================================================

   base      :      30000. kBytes
   nonlr-proj:       4179. kBytes
   fftplans  :       1690. kBytes
   grid      :       4644. kBytes
   one-center:        342. kBytes
   wavefun   :     122202. kBytes
 
     INWAV:  cpu time    0.0000: real time    0.0002
 Broyden mixing: mesh for mixing (old mesh)
   NGX = 23   NGY = 23   NGZ = 59
  (NGX  = 72   NGY  = 72   NGZ  =180)
  gives a total of  31211 points

 initial charge density was supplied:
 charge density of overlapping atoms calculated
 number of electron     258.0000000 magnetization       6.0000000
 keeping initial charge density in first step


--------------------------------------------------------------------------------------------------------


 Maximum index for non-local projection operator          665
 Maximum index for augmentation-charges          997 (set IRDMAX)


--------------------------------------------------------------------------------------------------------


 First call to EWALD:  gamma=   0.240
 Maximum number of real-space cells 4x 4x 2
 Maximum number of reciprocal cells 2x 2x 5

    FEWALD:  cpu time    0.0039: real time    0.0039


--------------------------------------- Iteration      1(   1)  ---------------------------------------


    POTLOK:  cpu time    0.0567: real time    0.0674
    SETDIJ:  cpu time    0.0179: real time    0.0180
    TRIAL :  cpu time   24.0069: real time   24.1287
    CORREC:  cpu time    0.0039: real time    0.0039
    --------------------------------------------
      LOOP:  cpu time   24.2528: real time   24.3868

 eigenvalue-minimisations  : 23040
 total energy-change (2. order) : 0.3467312E+04  (-0.1392843E+05)
 number of electron     258.0000000 magnetization       6.0000000
 augmentation part      258.0000000 magnetization       6.0000000

 Free energy of the ion-electron system (eV)
  ---------------------------------------------------
  alpha Z        PSCENC =       723.41533042
  Ewald energy   TEWEN  =    -13350.82727015
  -Hartree energ DENC   =     -7566.25415751
  -exchange      EXHF   =         0.00000000
  -V(xc)+E(xc)   XCENC  =       841.64387146
  PAW double counting   =     17015.18481625   -17491.61297812
  entropy T*S    EENTRO =        -0.00724614
  eigenvalues    EBANDS =      3126.89885389
  atomic energy  EATOM  =     20168.87094289
  ---------------------------------------------------
  free energy    TOTEN  =      3467.31216300 eV

  energy without entropy =     3467.31940914  energy(sigma->0) =     3467.31578607


--------------------------------------------------------------------------------------------------------




--------------------------------------- Iteration      1(   2)  ---------------------------------------


    TRIAL :  cpu time   26.4055: real time   26.4439
    CORREC:  cpu time    0.0055: real time    0.0055
    --------------------------------------------
      LOOP:  cpu time   26.4150: real time   26.4534

 eigenvalue-minimisations  : 24912
 total energy-change (2. order) :-0.3055912E+04  (-0.2817046E+04)
 number of electron     258.0000000 magnetization       6.0000000
 augmentation part      258.0000000 magnetization       6.0000000

 Free energy of the ion-electron system (eV)
  ---------------------------------------------------
  alpha Z        PSCENC =       723.41533042
  Ewald energy   TEWEN  =    -13350.82727015
  -Hartree energ DENC   =     -7566.25415751
  -exchange      EXHF   =         0.00000000
  -V(xc)+E(xc)   XCENC  =       841.64387146
  PAW double counting   =     17015.18481625   -17491.61297812
  entropy T*S    EENTRO =        -0.02126787
  eigenvalues    EBANDS =        71.00123169
  atomic energy  EATOM  =     20168.87094289
  ---------------------------------------------------
  free energy    TOTEN  =       411.40051907 eV

  energy without entropy =      411.42178694  energy(sigma->0) =      411.41115300


--------------------------------------------------------------------------------------------------------




--------------------------------------- Iteration      1(   3)  ---------------------------------------


    TRIAL :  cpu time   26.9117: real time   26.9573
    CORREC:  cpu time    0.0043: real time    0.0043
    --------------------------------------------
      LOOP:  cpu time   26.9200: real time   26.9655

 eigenvalue-minimisations  : 26160
 total energy-change (2. order) :-0.6305516E+03  (-0.5780640E+03)
 number of electron     258.0000000 magnetization       6.0000000
 augmentation part      258.0000000 magnetization       6.0000000

 Free energy of the ion-electron system (eV)
  ---------------------------------------------------
  alpha Z        PSCENC =       723.41533042
  Ewald energy   TEWEN  =    -13350.82727015
  -Hartree energ DENC   =     -7566.25415751
  -exchange      EXHF   =         0.00000000
  -V(xc)+E(xc)   XCENC  =       841.64387146
  PAW double counting   =     17015.18481625   -17491.61297812
  entropy T*S    EENTRO =        -0.03659809
  eigenvalues    EBANDS =      -559.53507615
  atomic energy  EATOM  =     20168.87094289
  ---------------------------------------------------
  free energy    TOTEN  =      -219.15111900 eV

  energy without entropy =     -219.11452091  energy(sigma->0) =     -219.13281995


--------------------------------------------------------------------------------------------------------




--------------------------------------- Iteration      1(   4)  ---------------------------------------


    TRIAL :  cpu time   24.2946: real time   24.3223
    CORREC:  cpu time    0.0042: real time    0.0042
    --------------------------------------------
      LOOP:  cpu time   24.3037: real time   24.3314

 eigenvalue-minimisations  : 25328
 total energy-change (2. order) :-0.5068018E+02  (-0.4957650E+02)
 number of electron     258.0000000 magnetization       6.0000000
 augmentation part      258.0000000 magnetization       6.0000000

 Free energy of the ion-electron system (eV)
  ---------------------------------------------------
  alpha Z        PSCENC =       723.41533042
  Ewald energy   TEWEN  =    -13350.82727015
  -Hartree energ DENC   =     -7566.25415751
  -exchange      EXHF   =         0.00000000
  -V(xc)+E(xc)   XCENC  =       841.64387146
  PAW double counting   =     17015.18481625   -17491.61297812
  entropy T*S    EENTRO =        -0.03845219
  eigenvalues    EBANDS =      -610.21340287
  atomic energy  EATOM  =     20168.87094289
  ---------------------------------------------------
  free energy    TOTEN  =      -269.83129982 eV

  energy without entropy =     -269.79284763  energy(sigma->0) =     -269.81207372


--------------------------------------------------------------------------------------------------------




--------------------------------------- Iteration      1(   5)  ---------------------------------------


    TRIAL :  cpu time   28.3476: real time   28.3805
    CORREC:  cpu time    0.0048: real time    0.0050
    CHARGE:  cpu time    0.5220: real time    0.5225
    --------------------------------------------
      LOOP:  cpu time   28.8783: real time   28.9119

 eigenvalue-minimisations  : 28864
 total energy-change (2. order) :-0.1807393E+01  (-0.1803849E+01)
 number of electron     257.9999964 magnetization       5.9999989
 augmentation part       68.0109700 magnetization       4.3311156

 Free energy of the ion-electron system (eV)
  ---------------------------------------------------
  alpha Z        PSCENC =       723.41533042
  Ewald energy   TEWEN  =    -13350.82727015
  -Hartree energ DENC   =     -7566.25415751
  -exchange      EXHF   =         0.00000000
  -V(xc)+E(xc)   XCENC  =       841.64387146
  PAW double counting   =     17015.18481625   -17491.61297812
  entropy T*S    EENTRO =        -0.03843064
  eigenvalues    EBANDS =      -612.02081703
  atomic energy  EATOM  =     20168.87094289
  ---------------------------------------------------
  free energy    TOTEN  =      -271.63869243 eV

  energy without entropy =     -271.60026179  energy(sigma->0) =     -271.61947711


--------------------------------------------------------------------------------------------------------




--------------------------------------- Iteration      1(   6)  ---------------------------------------


    POTLOK:  cpu time    0.0467: real time    0.0467
    SETDIJ:  cpu time    0.0124: real time    0.0124
    TRIAL :  cpu time   13.8280: real time   13.8484
    CORREC:  cpu time    4.6451: real time    4.6511
    CHARGE:  cpu time    0.5123: real time    0.5129
    --------------------------------------------
      LOOP:  cpu time   19.0489: real time   19.0759

 eigenvalue-minimisations  :     0
 total energy-change (2. order) : 0.3716362E+03  (-0.7878640E+02)
 number of electron     257.9999950 magnetization       6.0000005
 augmentation part       69.1580847 magnetization       4.3591759

 Free energy of the ion-electron system (eV)
  ---------------------------------------------------
  alpha Z        PSCENC =       723.41533042
  Ewald energy   TEWEN  =    -13350.82727015
  -Hartree energ DENC   =     -7279.75255541
  -exchange      EXHF   =         0.00000000
  -V(xc)+E(xc)   XCENC  =       876.10113601
  PAW double counting   =     23604.30487559   -23812.38683687
  entropy T*S    EENTRO =        -0.04750529
  eigenvalues    EBANDS =      -829.68964042
  atomic energy  EATOM  =     20168.87094289
  ---------------------------------------------------
  free energy    TOTEN  =        99.99755142 eV

  energy without entropy =      100.04505671  energy(sigma->0) =      100.02130406


--------------------------------------------------------------------------------------------------------




--------------------------------------- Iteration      1(   7)  ---------------------------------------


    POTLOK:  cpu time    0.0460: real time    0.0460
    SETDIJ:  cpu time    0.0123: real time    0.0123
    TRIAL :  cpu time   13.7337: real time   13.7555
    CORREC:  cpu time    4.4878: real time    4.4933
    CHARGE:  cpu time    0.5384: real time    0.5390
    --------------------------------------------
      LOOP:  cpu time   18.8223: real time   18.8502

 eigenvalue-minimisations  :     0
 total energy-change (2. order) :-0.8200682E+02  (-0.1386206E+03)
 number of electron     257.9999951 magnetization       6.0000011
 augmentation part       72.0162976 magnetization       4.1131477

 Free energy of the ion-electron system (eV)
  ---------------------------------------------------
  alpha Z        PSCENC =       723.41533042
  Ewald energy   TEWEN  =    -13350.82727015
  -Hartree energ DENC   =     -7180.43793990
  -exchange      EXHF   =         0.00000000
  -V(xc)+E(xc)   XCENC  =       869.83369747
  PAW double counting   =     23458.08527315   -23709.83648622
  entropy T*S    EENTRO =        -0.02882625
  eigenvalues    EBANDS =      -961.06531385
  atomic energy  EATOM  =     20168.87094289
  ---------------------------------------------------
  free energy    TOTEN  =        17.99072852 eV

  energy without entropy =       18.01955477  energy(sigma->0) =       18.00514164


--------------------------------------------------------------------------------------------------------




--------------------------------------- Iteration      1(   8)  ---------------------------------------


    POTLOK:  cpu time    0.0459: real time    0.0459
    SETDIJ:  cpu time    0.0125: real time    0.0125
    TRIAL :  cpu time   13.4157: real time   13.4604
    CORREC:  cpu time    4.3431: real time    4.3513
    CHARGE:  cpu time    0.4964: real time    0.4971
    --------------------------------------------
      LOOP:  cpu time   18.3180: real time   18.3716

 eigenvalue-minimisations  :     0
 total energy-change (2. order) :-0.9313124E+02  (-0.3134780E+03)
 number of electron     257.9999967 magnetization       5.9999994
 augmentation part       70.7701516 magnetization       2.2990457

 Free energy of the ion-electron system (eV)
  ---------------------------------------------------
  alpha Z        PSCENC =       723.41533042
  Ewald energy   TEWEN  =    -13350.82727015
  -Hartree energ DENC   =     -7199.68625144
  -exchange      EXHF   =         0.00000000
  -V(xc)+E(xc)   XCENC  =       855.00732335
  PAW double counting   =     23113.27508577   -23479.60972961
  entropy T*S    EENTRO =        -0.01675789
  eigenvalues    EBANDS =      -905.55711817
  atomic energy  EATOM  =     20168.87094289
  ---------------------------------------------------
  free energy    TOTEN  =       -75.14051320 eV

  energy without entropy =      -75.12375530  energy(sigma->0) =      -75.13213425


--------------------------------------------------------------------------------------------------------




--------------------------------------- Iteration      1(   9)  ---------------------------------------


    POTLOK:  cpu time    0.0449: real time    0.0449
    SETDIJ:  cpu time    0.0122: real time    0.0123
    TRIAL :  cpu time   12.8420: real time   12.8601
    CORREC:  cpu time    4.3128: real time    4.3176
    CHARGE:  cpu time    0.5120: real time    0.5127
    --------------------------------------------
      LOOP:  cpu time   17.7280: real time   17.7517

 eigenvalue-minimisations  :     0
 total energy-change (2. order) : 0.1910240E+03  (-0.1013511E+03)
 number of electron     257.9999975 magnetization       5.9999994
 augmentation part       75.2244195 magnetization       1.7447379

 Free energy of the ion-electron system (eV)
  ---------------------------------------------------
  alpha Z        PSCENC =       723.41533042
  Ewald energy   TEWEN  =    -13350.82727015
  -Hartree energ DENC   =     -7000.04044189
  -exchange      EXHF   =         0.00000000
  -V(xc)+E(xc)   XCENC  =       826.67183376
  PAW double counting   =     29529.41204534   -29857.42855815
  entropy T*S    EENTRO =        -0.02425990
  eigenvalues    EBANDS =      -924.17364242
  atomic energy  EATOM  =     20168.87094289
  ---------------------------------------------------
  free energy    TOTEN  =       115.88348189 eV

  energy without entropy =      115.90774180  energy(sigma->0) =      115.89561185


--------------------------------------------------------------------------------------------------------




--------------------------------------- Iteration      1(  10)  ---------------------------------------


    POTLOK:  cpu time    0.0454: real time    0.0454
    SETDIJ:  cpu time    0.0122: real time    0.0122
    TRIAL :  cpu time   12.9887: real time   13.0096
    CORREC:  cpu time    4.4609: real time    4.4696
    CHARGE:  cpu time    0.6078: real time    0.6084
    --------------------------------------------
      LOOP:  cpu time   18.1192: real time   18.1500

 eigenvalue-minimisations  :     0
 total energy-change (2. order) :-0.4493529E+02  (-0.3546489E+02)
 number of electron     257.9999977 magnetization       5.9999994
 augmentation part       76.0666376 magnetization       1.4826974

 Free energy of the ion-electron system (eV)
  ---------------------------------------------------
  alpha Z        PSCENC =       723.41533042
  Ewald energy   TEWEN  =    -13350.82727015
  -Hartree energ DENC   =     -7315.47560391
  -exchange      EXHF   =         0.00000000
  -V(xc)+E(xc)   XCENC  =       825.46579354
  PAW double counting   =     29238.42268689   -29725.14077753
  entropy T*S    EENTRO =        -0.02507848
  eigenvalues    EBANDS =      -493.75865336
  atomic energy  EATOM  =     20168.87094289
  ---------------------------------------------------
  free energy    TOTEN  =        70.94818889 eV

  energy without entropy =       70.97326736  energy(sigma->0) =       70.96072812


--------------------------------------------------------------------------------------------------------




--------------------------------------- Iteration      1(  11)  ---------------------------------------


    POTLOK:  cpu time    0.0464: real time    0.0465
    SETDIJ:  cpu time    0.0122: real time    0.0122
    TRIAL :  cpu time   13.2868: real time   13.3036
    CORREC:  cpu time    4.5458: real time    4.5498
    CHARGE:  cpu time    0.5050: real time    0.5053
    --------------------------------------------
      LOOP:  cpu time   18.4004: real time   18.4215

 eigenvalue-minimisations  :     0
 total energy-change (2. order) : 0.6102001E+02  (-0.1838357E+03)
 number of electron     257.9999977 magnetization       5.9999995
 augmentation part       73.3715417 magnetization       1.5645396

 Free energy of the ion-electron system (eV)
  ---------------------------------------------------
  alpha Z        PSCENC =       723.41533042
  Ewald energy   TEWEN  =    -13350.82727015
  -Hartree energ DENC   =     -7359.88816369
  -exchange      EXHF   =         0.00000000
  -V(xc)+E(xc)   XCENC  =       823.48208345
  PAW double counting   =     32634.73851722   -33157.70948422
  entropy T*S    EENTRO =        -0.02175294
  eigenvalues    EBANDS =      -350.08868042
  atomic energy  EATOM  =     20168.87094289
  ---------------------------------------------------
  free energy    TOTEN  =       131.96819701 eV

  energy without entropy =      131.98994995  energy(sigma->0) =      131.97907348


--------------------------------------------------------------------------------------------------------




--------------------------------------- Iteration      1(  12)  ---------------------------------------


    POTLOK:  cpu time    0.0451: real time    0.0451
    SETDIJ:  cpu time    0.0122: real time    0.0122
    TRIAL :  cpu time   13.5268: real time   13.5382
    CORREC:  cpu time    4.5072: real time    4.5108
    CHARGE:  cpu time    0.5171: real time    0.5174
    --------------------------------------------
      LOOP:  cpu time   18.6126: real time   18.6279

 eigenvalue-minimisations  :     0
 total energy-change (2. order) :-0.1790479E+03  (-0.5094312E+02)
 number of electron     257.9999975 magnetization       5.9999997
 augmentation part       72.8620526 magnetization       1.5722171

 Free energy of the ion-electron system (eV)
  ---------------------------------------------------
  alpha Z        PSCENC =       723.41533042
  Ewald energy   TEWEN  =    -13350.82727015
  -Hartree energ DENC   =     -7266.00907170
  -exchange      EXHF   =         0.00000000
  -V(xc)+E(xc)   XCENC  =       836.27858542
  PAW double counting   =     24592.52613444   -24998.84485532
  entropy T*S    EENTRO =        -0.02207373
  eigenvalues    EBANDS =      -752.46773941
  atomic energy  EATOM  =     20168.87094289
  ---------------------------------------------------
  free energy    TOTEN  =       -47.07969636 eV

  energy without entropy =      -47.05762263  energy(sigma->0) =      -47.06865949


--------------------------------------------------------------------------------------------------------




--------------------------------------- Iteration      1(  13)  ---------------------------------------


    POTLOK:  cpu time    0.0459: real time    0.0459
    SETDIJ:  cpu time    0.0123: real time    0.0123
    TRIAL :  cpu time   13.7813: real time   13.7932
    CORREC:  cpu time    4.4607: real time    4.4642
    CHARGE:  cpu time    0.5124: real time    0.5127
    --------------------------------------------
      LOOP:  cpu time   18.8169: real time   18.8327

 eigenvalue-minimisations  :     0
 total energy-change (2. order) :-0.3897982E+02  (-0.4337035E+02)
 number of electron     257.9999976 magnetization       5.9999997
 augmentation part       75.6650677 magnetization       2.0635089

 Free energy of the ion-electron system (eV)
  ---------------------------------------------------
  alpha Z        PSCENC =       723.41533042
  Ewald energy   TEWEN  =    -13350.82727015
  -Hartree energ DENC   =     -7254.30325930
  -exchange      EXHF   =         0.00000000
  -V(xc)+E(xc)   XCENC  =       839.30739306
  PAW double counting   =     24441.58657687   -24822.51811318
  entropy T*S    EENTRO =        -0.02690967
  eigenvalues    EBANDS =      -831.56904763
  atomic energy  EATOM  =     20168.87094289
  ---------------------------------------------------
  free energy    TOTEN  =       -86.05952075 eV

  energy without entropy =      -86.03261107  energy(sigma->0) =      -86.04606591


--------------------------------------------------------------------------------------------------------




--------------------------------------- Iteration      1(  14)  ---------------------------------------


    POTLOK:  cpu time    0.0464: real time    0.0464
    SETDIJ:  cpu time    0.0122: real time    0.0128
    TRIAL :  cpu time   13.7389: real time   13.7537
    CORREC:  cpu time    4.4567: real time    4.4784
    CHARGE:  cpu time    0.4947: real time    0.4950
    --------------------------------------------
      LOOP:  cpu time   18.7531: real time   18.7906

 eigenvalue-minimisations  :     0
 total energy-change (2. order) :-0.5079944E+02  (-0.3052558E+02)
 number of electron     257.9999974 magnetization       5.9999998
 augmentation part       77.7696895 magnetization       2.6936725

 Free energy of the ion-electron system (eV)
  ---------------------------------------------------
  alpha Z        PSCENC =       723.41533042
  Ewald energy   TEWEN  =    -13350.82727015
  -Hartree energ DENC   =     -7508.24833825
  -exchange      EXHF   =         0.00000000
  -V(xc)+E(xc)   XCENC  =       845.93997135
  PAW double counting   =     23786.55670508   -24247.40034325
  entropy T*S    EENTRO =        -0.02417901
  eigenvalues    EBANDS =      -555.13905257
  atomic energy  EATOM  =     20168.87094289
  ---------------------------------------------------
  free energy    TOTEN  =      -136.85896417 eV

  energy without entropy =     -136.83478516  energy(sigma->0) =     -136.84687466


--------------------------------------------------------------------------------------------------------




--------------------------------------- Iteration      1(  15)  ---------------------------------------


    POTLOK:  cpu time    0.0458: real time    0.0458
    SETDIJ:  cpu time    0.0123: real time    0.0123
    TRIAL :  cpu time   13.4259: real time   13.4371
    CORREC:  cpu time    4.5806: real time    4.5839
    CHARGE:  cpu time    0.4862: real time    0.4864
    --------------------------------------------
      LOOP:  cpu time   18.5549: real time   18.5701

 eigenvalue-minimisations  :     0
 total energy-change (2. order) :-0.2730913E+02  (-0.2199547E+02)
 number of electron     257.9999975 magnetization       5.9999998
 augmentation part       77.9002535 magnetization       3.2635993

 Free energy of the ion-electron system (eV)
  ---------------------------------------------------
  alpha Z        PSCENC =       723.41533042
  Ewald energy   TEWEN  =    -13350.82727015
  -Hartree energ DENC   =     -7690.11189902
  -exchange      EXHF   =         0.00000000
  -V(xc)+E(xc)   XCENC  =       851.66672982
  PAW double counting   =     23525.54921594   -24051.07678426
  entropy T*S    EENTRO =        -0.02519567
  eigenvalues    EBANDS =      -341.63017839
  atomic energy  EATOM  =     20168.87094289
  ---------------------------------------------------
  free energy    TOTEN  =      -164.16809176 eV

  energy without entropy =     -164.14289609  energy(sigma->0) =     -164.15549392


--------------------------------------------------------------------------------------------------------




--------------------------------------- Iteration      1(  16)  ---------------------------------------


    POTLOK:  cpu time    0.0452: real time    0.0453
    SETDIJ:  cpu time    0.0122: real time    0.0122
    TRIAL :  cpu time   12.7059: real time   12.7985
    CORREC:  cpu time    4.3254: real time    4.3434
    CHARGE:  cpu time    0.4824: real time    0.4842
    --------------------------------------------
      LOOP:  cpu time   17.5752: real time   17.6878

 eigenvalue-minimisations  :     0
 total energy-change (2. order) :-0.2317967E+02  (-0.9709306E+01)
 number of electron     257.9999976 magnetization       5.9999998
 augmentation part       76.9930926 magnetization       3.5091208

 Free energy of the ion-electron system (eV)
  ---------------------------------------------------
  alpha Z        PSCENC =       723.41533042
  Ewald energy   TEWEN  =    -13350.82727015
  -Hartree energ DENC   =     -7707.82890889
  -exchange      EXHF   =         0.00000000
  -V(xc)+E(xc)   XCENC  =       853.33673573
  PAW double counting   =     23741.50138990   -24265.44659467
  entropy T*S    EENTRO =        -0.02373985
  eigenvalues    EBANDS =      -350.34418840
  atomic energy  EATOM  =     20168.87094289
  ---------------------------------------------------
  free energy    TOTEN  =      -187.34775884 eV

  energy without entropy =     -187.32401898  energy(sigma->0) =     -187.33588891


--------------------------------------------------------------------------------------------------------




--------------------------------------- Iteration      1(  17)  ---------------------------------------


    POTLOK:  cpu time    0.0452: real time    0.0453
    SETDIJ:  cpu time    0.0122: real time    0.0122
    TRIAL :  cpu time   12.6875: real time   12.7618
    CORREC:  cpu time    4.2738: real time    4.2929
    CHARGE:  cpu time    0.4831: real time    0.4847
    --------------------------------------------
      LOOP:  cpu time   17.5059: real time   17.6011

 eigenvalue-minimisations  :     0
 total energy-change (2. order) :-0.9297512E+01  (-0.5586231E+01)
 number of electron     257.9999976 magnetization       5.9999999
 augmentation part       76.0808642 magnetization       3.7049940

 Free energy of the ion-electron system (eV)
  ---------------------------------------------------
  alpha Z        PSCENC =       723.41533042
  Ewald energy   TEWEN  =    -13350.82727015
  -Hartree energ DENC   =     -7629.16248597
  -exchange      EXHF   =         0.00000000
  -V(xc)+E(xc)   XCENC  =       852.27599964
  PAW double counting   =     23903.39202703   -24393.68841449
  entropy T*S    EENTRO =        -0.02047579
  eigenvalues    EBANDS =      -470.89766016
  atomic energy  EATOM  =     20168.87094289
  ---------------------------------------------------
  free energy    TOTEN  =      -196.64527064 eV

  energy without entropy =     -196.62479485  energy(sigma->0) =     -196.63503275


--------------------------------------------------------------------------------------------------------




--------------------------------------- Iteration      1(  18)  ---------------------------------------


    POTLOK:  cpu time    0.0443: real time    0.0444
    SETDIJ:  cpu time    0.0121: real time    0.0121
    TRIAL :  cpu time   12.7418: real time   12.8070
    CORREC:  cpu time    4.3053: real time    4.3247
    CHARGE:  cpu time    0.4809: real time    0.4826
    --------------------------------------------
      LOOP:  cpu time   17.5886: real time   17.6750

 eigenvalue-minimisations  :     0
 total energy-change (2. order) :-0.4825049E+01  (-0.3747872E+01)
 number of electron     257.9999977 magnetization       5.9999998
 augmentation part       75.8220689 magnetization       3.8857902

 Free energy of the ion-electron system (eV)
  ---------------------------------------------------
  alpha Z        PSCENC =       723.41533042
  Ewald energy   TEWEN  =    -13350.82727015
  -Hartree energ DENC   =     -7535.54965167
  -exchange      EXHF   =         0.00000000
  -V(xc)+E(xc)   XCENC  =       851.13733218
  PAW double counting   =     24018.53088200   -24476.34894301
  entropy T*S    EENTRO =        -0.01626035
  eigenvalues    EBANDS =      -600.67846625
  atomic energy  EATOM  =     20168.87094289
  ---------------------------------------------------
  free energy    TOTEN  =      -201.47031939 eV

  energy without entropy =     -201.45405904  energy(sigma->0) =     -201.46218922


--------------------------------------------------------------------------------------------------------




--------------------------------------- Iteration      1(  19)  ---------------------------------------


    POTLOK:  cpu time    0.0451: real time    0.0452
    SETDIJ:  cpu time    0.0122: real time    0.0123
    TRIAL :  cpu time   12.8179: real time   12.8675
    CORREC:  cpu time    4.3587: real time    4.3623
    CHARGE:  cpu time    0.4848: real time    0.4851
    --------------------------------------------
      LOOP:  cpu time   17.7229: real time   17.7766

 eigenvalue-minimisations  :     0
 total energy-change (2. order) :-0.3683052E+01  (-0.5571268E+01)
 number of electron     257.9999976 magnetization       5.9999999
 augmentation part       75.9676734 magnetization       4.1729252

 Free energy of the ion-electron system (eV)
  ---------------------------------------------------
  alpha Z        PSCENC =       723.41533042
  Ewald energy   TEWEN  =    -13350.82727015
  -Hartree energ DENC   =     -7511.62998390
  -exchange      EXHF   =         0.00000000
  -V(xc)+E(xc)   XCENC  =       850.42167914
  PAW double counting   =     24072.83254992   -24524.53589790
  entropy T*S    EENTRO =        -0.01770866
  eigenvalues    EBANDS =      -633.68446149
  atomic energy  EATOM  =     20168.87094289
  ---------------------------------------------------
  free energy    TOTEN  =      -205.15337141 eV

  energy without entropy =     -205.13566276  energy(sigma->0) =     -205.14451709


--------------------------------------------------------------------------------------------------------




--------------------------------------- Iteration      1(  20)  ---------------------------------------


    POTLOK:  cpu time    0.0446: real time    0.0446
    SETDIJ:  cpu time    0.0124: real time    0.0124
    TRIAL :  cpu time   12.8898: real time   12.9000
    CORREC:  cpu time    4.5422: real time    4.5455
    CHARGE:  cpu time    0.5066: real time    0.5070
    --------------------------------------------
      LOOP:  cpu time   17.9998: real time   18.0137

 eigenvalue-minimisations  :     0
 total energy-change (2. order) :-0.5600159E+01  (-0.2605183E+01)
 number of electron     257.9999978 magnetization       5.9999998
 augmentation part       76.1800388 magnetization       4.2620016

 Free energy of the ion-electron system (eV)
  ---------------------------------------------------
  alpha Z        PSCENC =       723.41533042
  Ewald energy   TEWEN  =    -13350.82727015
  -Hartree energ DENC   =     -7502.23087545
  -exchange      EXHF   =         0.00000000
  -V(xc)+E(xc)   XCENC  =       849.84275608
  PAW double counting   =     24109.09532660   -24573.15759706
  entropy T*S    EENTRO =        -0.02414774
  eigenvalues    EBANDS =      -635.74443511
  atomic energy  EATOM  =     20168.87094289
  ---------------------------------------------------
  free energy    TOTEN  =      -210.75353044 eV

  energy without entropy =     -210.72938270  energy(sigma->0) =     -210.74145657


--------------------------------------------------------------------------------------------------------




--------------------------------------- Iteration      1(  21)  ---------------------------------------


    POTLOK:  cpu time    0.0453: real time    0.0453
    SETDIJ:  cpu time    0.0124: real time    0.0124
    TRIAL :  cpu time   14.1084: real time   14.1204
    CORREC:  cpu time    4.4131: real time    4.4183
    CHARGE:  cpu time    0.5189: real time    0.5209
    --------------------------------------------
      LOOP:  cpu time   19.1026: real time   19.1218

 eigenvalue-minimisations  :     0
 total energy-change (2. order) :-0.2607861E+01  (-0.1224724E+01)
 number of electron     257.9999976 magnetization       5.9999999
 augmentation part       76.1777856 magnetization       4.2883349

 Free energy of the ion-electron system (eV)
  ---------------------------------------------------
  alpha Z        PSCENC =       723.41533042
  Ewald energy   TEWEN  =    -13350.82727015
  -Hartree energ DENC   =     -7533.70476883
  -exchange      EXHF   =         0.00000000
  -V(xc)+E(xc)   XCENC  =       850.41141446
  PAW double counting   =     23998.09830381   -24472.93658525
  entropy T*S    EENTRO =        -0.02776437
  eigenvalues    EBANDS =      -596.66461102
  atomic energy  EATOM  =     20168.87094289
  ---------------------------------------------------
  free energy    TOTEN  =      -213.36139141 eV

  energy without entropy =     -213.33362704  energy(sigma->0) =     -213.34750922


--------------------------------------------------------------------------------------------------------




--------------------------------------- Iteration      1(  22)  ---------------------------------------


    POTLOK:  cpu time    0.0465: real time    0.0466
    SETDIJ:  cpu time    0.0128: real time    0.0129
    TRIAL :  cpu time   13.5781: real time   13.6520
    CORREC:  cpu time    4.3971: real time    4.4165
    CHARGE:  cpu time    0.5045: real time    0.5065
    --------------------------------------------
      LOOP:  cpu time   18.5433: real time   18.6387

 eigenvalue-minimisations  :     0
 total energy-change (2. order) :-0.1356590E+01  (-0.2312783E+01)
 number of electron     257.9999976 magnetization       5.9999999
 augmentation part       75.9749166 magnetization       4.3025521

 Free energy of the ion-electron system (eV)
  ---------------------------------------------------
  alpha Z        PSCENC =       723.41533042
  Ewald energy   TEWEN  =    -13350.82727015
  -Hartree energ DENC   =     -7536.44344446
  -exchange      EXHF   =         0.00000000
  -V(xc)+E(xc)   XCENC  =       850.81776247
  PAW double counting   =     23891.05926177   -24366.55206429
  entropy T*S    EENTRO =        -0.02815962
  eigenvalues    EBANDS =      -595.03073551
  atomic energy  EATOM  =     20168.87094289
  ---------------------------------------------------
  free energy    TOTEN  =      -214.71798125 eV

  energy without entropy =     -214.68982163  energy(sigma->0) =     -214.70390144


--------------------------------------------------------------------------------------------------------




--------------------------------------- Iteration      1(  23)  ---------------------------------------


    POTLOK:  cpu time    0.0448: real time    0.0450
    SETDIJ:  cpu time    0.0123: real time    0.0123
    TRIAL :  cpu time   13.4500: real time   13.5256
    CORREC:  cpu time    4.4002: real time    4.4198
    CHARGE:  cpu time    0.5085: real time    0.5105
    --------------------------------------------
      LOOP:  cpu time   18.4200: real time   18.5173

 eigenvalue-minimisations  :     0
 total energy-change (2. order) :-0.2254868E+01  (-0.6170224E+00)
 number of electron     257.9999976 magnetization       5.9999998
 augmentation part       75.8540336 magnetization       4.3161557

 Free energy of the ion-electron system (eV)
  ---------------------------------------------------
  alpha Z        PSCENC =       723.41533042
  Ewald energy   TEWEN  =    -13350.82727015
  -Hartree energ DENC   =     -7540.38296578
  -exchange      EXHF   =         0.00000000
  -V(xc)+E(xc)   XCENC  =       851.46774332
  PAW double counting   =     23658.06640019   -24126.14827441
  entropy T*S    EENTRO =        -0.02470605
  eigenvalues    EBANDS =      -601.40659593
  atomic energy  EATOM  =     20168.87094289
  ---------------------------------------------------
  free energy    TOTEN  =      -216.97284906 eV

  energy without entropy =     -216.94814301  energy(sigma->0) =     -216.96049604


--------------------------------------------------------------------------------------------------------




--------------------------------------- Iteration      1(  24)  ---------------------------------------


    POTLOK:  cpu time    0.0461: real time    0.0463
    SETDIJ:  cpu time    0.0124: real time    0.0125
    TRIAL :  cpu time   12.6718: real time   12.7525
    CORREC:  cpu time    4.4706: real time    4.4886
    CHARGE:  cpu time    0.4911: real time    0.4927
    --------------------------------------------
      LOOP:  cpu time   17.6964: real time   17.7969

 eigenvalue-minimisations  :     0
 total energy-change (2. order) :-0.7316057E+00  (-0.7707543E+00)
 number of electron     257.9999975 magnetization       5.9999999
 augmentation part       75.7462509 magnetization       4.3214678

 Free energy of the ion-electron system (eV)
  ---------------------------------------------------
  alpha Z        PSCENC =       723.41533042
  Ewald energy   TEWEN  =    -13350.82727015
  -Hartree energ DENC   =     -7537.69803214
  -exchange      EXHF   =         0.00000000
  -V(xc)+E(xc)   XCENC  =       851.56252853
  PAW double counting   =     23587.31505779   -24051.11759202
  entropy T*S    EENTRO =        -0.02293280
  eigenvalues    EBANDS =      -609.20071399
  atomic energy  EATOM  =     20168.87094289
  ---------------------------------------------------
  free energy    TOTEN  =      -217.70445472 eV

  energy without entropy =     -217.68152192  energy(sigma->0) =     -217.69298832


--------------------------------------------------------------------------------------------------------




--------------------------------------- Iteration      1(  25)  ---------------------------------------


    POTLOK:  cpu time    0.0443: real time    0.0444
    SETDIJ:  cpu time    0.0121: real time    0.0122
    TRIAL :  cpu time   12.5333: real time   12.5979
    CORREC:  cpu time    4.4091: real time    4.4265
    CHARGE:  cpu time    0.5075: real time    0.5093
    --------------------------------------------
      LOOP:  cpu time   17.5105: real time   17.5945

 eigenvalue-minimisations  :     0
 total energy-change (2. order) :-0.8942472E+00  (-0.7242426E+00)
 number of electron     257.9999975 magnetization       5.9999999
 augmentation part       75.7356180 magnetization       4.2999056

[...]
   20        1.589   3.296   0.000   4.885
   21        1.581   3.355   0.000   4.936
   22        1.572   3.382   0.000   4.954
   23        1.560   3.423   0.000   4.983
   24        1.561   3.484   0.000   5.045
   25        1.566   3.402   0.000   4.968
   26        1.567   3.426   0.000   4.993
   27        1.569   3.454   0.000   5.023
   28        1.577   3.380   0.000   4.957
   29        1.570   3.396   0.000   4.966
   30        1.574   3.389   0.000   4.962
   31        1.588   3.386   0.000   4.974
   32        1.579   3.413   0.000   4.992
   33        1.576   3.369   0.000   4.944
   34        1.577   3.379   0.000   4.956
   35        1.563   3.459   0.000   5.022
   36        1.565   3.469   0.000   5.033
   37        1.562   3.444   0.000   5.006
   38        1.553   3.458   0.000   5.012
   39        1.568   3.406   0.000   4.973
   40        1.579   3.411   0.000   4.991
   41        1.559   3.451   0.000   5.010
   42        1.561   3.430   0.000   4.991
--------------------------------------------------
tot         43.543  91.253  87.522 222.319
 


 magnetization (x)
 
# of ion       s       p       d       tot
------------------------------------------
    1        0.001  -0.002   0.000  -0.001
    2        0.000  -0.000   0.000   0.000
    3        0.000  -0.001   0.000  -0.000
    4        0.000  -0.001   0.000  -0.001
    5        0.001  -0.000   0.000   0.001
    6        0.000  -0.001   0.000  -0.000
    7        0.004   0.004  -0.035  -0.028
    8        0.012   0.015   1.345   1.371
    9        0.019   0.016   1.954   1.990
   10        0.004   0.006  -0.071  -0.061
   11        0.017   0.018   1.703   1.739
   12        0.011   0.015   1.246   1.272
   13        0.005   0.007  -0.016  -0.005
   14        0.013   0.018   1.302   1.333
   15        0.002   0.000  -0.049  -0.047
   16        0.010   0.010   1.281   1.301
   17        0.002   0.002  -0.078  -0.073
   18        0.002  -0.003  -0.049  -0.050
   19       -0.000  -0.094   0.000  -0.095
   20       -0.000  -0.289   0.000  -0.289
   21        0.000  -0.168   0.000  -0.168
   22       -0.001  -0.156   0.000  -0.156
   23        0.002  -0.066   0.000  -0.064
   24        0.000  -0.040   0.000  -0.040
   25        0.000  -0.089   0.000  -0.089
   26        0.001  -0.101   0.000  -0.100
   27        0.001  -0.083   0.000  -0.083
   28        0.001  -0.116   0.000  -0.115
   29        0.001  -0.109   0.000  -0.108
   30        0.001  -0.131   0.000  -0.130
   31        0.002  -0.162   0.000  -0.159
   32        0.001  -0.120   0.000  -0.119
   33        0.000  -0.147   0.000  -0.147
   34        0.001  -0.131   0.000  -0.130
   35       -0.000  -0.049   0.000  -0.049
   36        0.000  -0.061   0.000  -0.061
   37       -0.001  -0.057   0.000  -0.057
   38        0.000  -0.031   0.000  -0.031
   39       -0.001  -0.059   0.000  -0.061
   40        0.001  -0.057   0.000  -0.056
   41       -0.000  -0.040   0.000  -0.040
   42       -0.000  -0.045   0.000  -0.045
--------------------------------------------------
tot          0.110  -2.297   8.534   6.347
 
    FORLOC:  cpu time    0.0048: real time    0.0048
    FORNL :  cpu time    4.3065: real time    4.4909
    STRESS:  cpu time   13.7089: real time   13.7991
    FORCOR:  cpu time    0.0490: real time    0.0490
    OFIELD:  cpu time    0.0005: real time    0.0005

  DFT-D2 method for vdW energy calculation
  -------------------------------------------------------------------

  Parameters of vdW forcefield:
         C6(Jnm^6/mol)     R0(A)
   -----------------------------
   Li       1.610          0.825
   Co      10.800          1.562
   O        0.700          1.342

  IVDW =   1
  VDW_RADIUS =    50.000 A
  VDW_S6 =     0.750
  VDW_SR =     1.000
  VDW_D =    20.000
  LVDW_EWALD = F

  Number of pair interactions contributing to vdW energy: 1167065
  Edisp (eV):   -9.04859
    FORVDW:  cpu time    0.1705: real time    0.1716

  FORCE on cell =-STRESS in cart. coord.  units (eV):
  Direction    XX          YY          ZZ          XY          YZ          ZX
  --------------------------------------------------------------------------------------
  Alpha Z   723.41533   723.41533   723.41533
  Ewald   -1007.38962 -1222.08804-11121.41736    59.82147    11.09494    75.31087
  Hartree  5093.68169  4997.32454 -2562.23900    28.16762     6.94460    31.51641
  E(xc)   -1284.37098 -1284.52402 -1285.61452     0.06987    -0.15722     0.01362
  Local   -9009.00039 -8709.19276  8720.51659   -83.14423   -21.87307  -104.71386
  n-local  -590.99627  -595.83362  -600.12458     3.59916     1.51322     3.66413
  augment  2021.43363  2023.98447  2000.86076    -2.77611     1.62519    -1.07031
  Kinetic  4058.29453  4074.35612  4127.96684     0.35805     5.94013     0.47562
  Fock        0.00000     0.00000     0.00000     0.00000     0.00000     0.00000
  vdW        -6.03696    -5.81270   -11.14192    -0.27230    -0.15674    -0.19419
  -------------------------------------------------------------------------------------
  Total      -0.96904     1.62931    -7.77784     5.82351     4.93103     5.00229
  in kB      -3.83111     6.44151   -30.74984    23.02335    19.49490    19.77662
  external pressure =       -9.38 kB  Pullay stress =        0.00 kB


 VOLUME and BASIS-vectors are now :
 -----------------------------------------------------------------------------
  energy-cutoff  :      600.00
  volume of cell :      405.25
      direct lattice vectors                 reciprocal lattice vectors
     5.665656090  0.000000000  0.000000000     0.176502065  0.105244326  0.003291965
    -2.893624544  4.852809906  0.000000000     0.000000000  0.206066180 -0.011901145
    -0.782500565  0.851266503 14.739525795     0.000000000  0.000000000  0.067844788

  length of vectors
     5.665656090  5.650028937 14.784809179     0.205524169  0.206409563  0.067844788


 FORCES acting on ions:
    Electron-Ion                     Ewald-Force                    Non-Local-Force
 -----------------------------------------------------------------------------------------------
   0.813E+00 -.161E+01 -.109E+01   -.888E+00 0.175E+01 0.173E+01   -.185E+00 0.830E-01 -.551E+00
   -.350E+01 -.314E+01 0.119E+02   0.327E+01 0.296E+01 -.118E+02   0.632E+00 0.619E+00 -.113E+01
   0.370E+00 0.183E+01 -.125E+02   -.397E+00 -.190E+01 0.119E+02   0.585E-01 -.271E+00 0.769E+00
   -.183E+00 -.377E+01 -.113E+02   0.513E+00 0.328E+01 0.110E+02   -.974E-01 0.812E+00 0.747E+00
   0.211E+01 -.105E+01 0.240E+02   -.213E+01 0.953E+00 -.237E+02   -.139E+00 0.487E+00 -.132E+01
   -.295E+01 -.272E+01 0.142E+02   0.300E+01 0.258E+01 -.134E+02   0.182E+00 0.395E+00 -.809E+00
   -.563E+02 0.380E+02 -.113E+03   0.565E+02 -.393E+02 0.115E+03   0.156E+01 -.353E+00 -.136E+01
   0.254E+02 -.368E+02 -.131E+03   -.273E+02 0.370E+02 0.132E+03   -.311E-01 -.134E+00 -.348E+00
   0.360E+02 0.121E+02 -.528E+02   -.354E+02 -.118E+02 0.543E+02   -.483E+00 -.326E+00 -.393E+00
   -.118E+02 -.519E+01 -.782E+02   0.126E+02 0.631E+01 0.788E+02   -.218E+00 0.531E-01 -.601E+00
   -.173E+02 -.239E+02 -.456E+02   0.174E+02 0.244E+02 0.452E+02   0.284E+00 -.115E+00 0.318E+00
   0.244E+02 0.309E+02 -.707E+02   -.254E+02 -.326E+02 0.720E+02   0.122E+00 -.156E+00 0.306E+00
   -.605E+01 0.512E+01 0.349E+02   0.661E+01 -.361E+01 -.358E+02   0.471E+00 -.718E+00 0.492E+00
   -.428E+02 -.883E+01 0.461E+02   0.449E+02 0.874E+01 -.457E+02   0.108E+01 0.475E+00 -.295E+00
   -.260E+02 -.100E+02 0.132E+03   0.253E+02 0.988E+01 -.132E+03   0.740E+00 0.157E+00 -.550E+00
   -.489E+02 -.121E+02 0.141E+03   0.504E+02 0.128E+02 -.141E+03   -.108E+00 0.102E+00 0.111E+01
   0.332E+02 0.372E+02 0.755E+02   -.342E+02 -.375E+02 -.767E+02   -.730E+00 -.275E+00 0.102E+00
   0.741E+02 -.266E+02 0.527E+02   -.763E+02 0.260E+02 -.551E+02   -.100E+01 0.108E+01 -.288E+00
   -.254E+02 -.233E+02 -.380E+03   0.285E+02 0.259E+02 0.399E+03   -.257E+01 -.237E+01 -.205E+02
   0.281E+02 0.211E+02 -.394E+03   -.320E+02 -.224E+02 0.419E+03   0.376E+01 0.120E+01 -.259E+02
   0.127E+01 -.428E+02 -.388E+03   -.130E+00 0.461E+02 0.412E+03   -.106E+01 -.262E+01 -.248E+02
   -.785E+01 0.522E+02 -.366E+03   0.768E+01 -.582E+02 0.386E+03   -.198E+00 0.515E+01 -.207E+02
   -.112E+01 -.508E+02 0.232E+03   -.226E+01 0.540E+02 -.243E+03   0.405E+01 -.179E+01 0.126E+02
   -.105E+02 0.216E+02 0.281E+03   0.102E+02 -.248E+02 -.298E+03   0.538E+00 0.279E+01 0.167E+02
   0.101E+02 -.130E+02 0.262E+03   -.870E+01 0.145E+02 -.281E+03   -.215E+01 -.136E+01 0.195E+02
   0.139E+02 0.295E+02 0.261E+03   -.126E+02 -.297E+02 -.279E+03   -.220E+01 -.728E+00 0.175E+02
   0.132E+02 0.230E+02 -.331E+03   -.130E+02 -.246E+02 0.349E+03   -.142E+01 0.401E+00 -.161E+02
   0.976E+01 -.406E+01 -.373E+03   -.111E+02 0.416E+01 0.396E+03   0.126E+01 0.407E+00 -.236E+02
   -.109E+02 -.985E+01 -.346E+03   0.981E+01 0.123E+02 0.365E+03   0.140E+01 -.204E+01 -.193E+02
   -.356E+01 -.137E+02 -.351E+03   0.371E+01 0.126E+02 0.370E+03   -.650E+00 0.182E+01 -.195E+02
   -.762E+00 0.513E+02 0.348E+03   -.121E+01 -.573E+02 -.374E+03   0.190E+01 0.442E+01 0.249E+02
   0.107E+02 -.361E+02 0.342E+03   -.107E+02 0.398E+02 -.367E+03   -.215E+00 -.291E+01 0.237E+02
   0.135E+02 0.812E+00 0.334E+03   -.137E+02 -.304E+01 -.354E+03   -.265E+00 0.343E+01 0.195E+02
   0.156E+01 -.145E+02 0.348E+03   -.414E+01 0.184E+02 -.371E+03   0.168E+01 -.472E+01 0.237E+02
   -.331E+02 -.102E+02 -.287E+03   0.334E+02 0.123E+02 0.306E+03   0.158E+01 -.135E+01 -.178E+02
   -.338E+02 -.392E+02 -.286E+03   0.385E+02 0.407E+02 0.305E+03   -.288E+01 0.642E+00 -.171E+02
   0.135E+02 0.254E+02 -.285E+03   -.107E+02 -.278E+02 0.304E+03   -.324E+01 0.185E+01 -.179E+02
   0.139E+02 0.570E+01 -.266E+03   -.164E+02 -.502E+01 0.278E+03   0.270E+01 -.570E+00 -.115E+02
   -.900E+01 0.150E+02 0.417E+03   0.787E+01 -.184E+02 -.437E+03   0.131E+01 0.240E+01 0.198E+02
   0.146E+02 0.181E+02 0.437E+03   -.186E+02 -.209E+02 -.462E+03   0.458E+01 0.177E+01 0.239E+02
   0.184E+02 -.225E+02 0.394E+03   -.169E+02 0.239E+02 -.408E+03   -.246E+01 -.114E+01 0.147E+02
   -.108E+02 0.236E+02 0.390E+03   0.139E+02 -.225E+02 -.404E+03   -.348E+01 -.287E+01 0.147E+02
 -----------------------------------------------------------------------------------------------
   -.411E+01 -.374E+01 0.737E+01   0.110E-12 -.110E-12 -.512E-12   0.412E+01 0.372E+01 -.740E+01
 
 
 POSITION                                       TOTAL-FORCE (eV/Angst)
 -----------------------------------------------------------------------------------
     -3.49594      5.47524     14.67613        -0.188079      0.224821      0.024517
     -0.02644      4.44465      0.14851         0.379670      0.418282     -0.722945
      0.75045      3.13181     14.63371         0.065628     -0.195282      0.191661
      1.93445      3.59911      4.82370         0.211640      0.279597      0.546412
      1.50050      1.81889     10.04900         0.031083      0.326594     -1.062894
      0.76107      4.72488      9.90779         0.169150      0.204102      0.047113
      0.07847      1.52289      2.44249         1.428891     -1.437647      0.243214
     -1.23020      3.92325      2.41728        -1.630649      0.050861      1.037070
      2.99652      1.46811      2.31507         0.157128     -0.026389      0.884948
      1.57102      3.87411      2.40454         0.458459      1.053042     -0.226271
      4.86438      0.68666      7.37985         0.253872      0.260587     -0.080721
      3.42437      3.14486      7.38290        -0.829995     -1.566288      1.322997
      2.05231      0.65636      7.28269         0.913638      0.879285     -0.230437
      0.53512      3.17878      7.27483         2.843251      0.284506      0.162445
      0.86635      1.55379     12.31453        -0.149481     -0.036862      0.300186
     -0.62377      3.94410     12.24733         1.156863      0.686857      0.869187
      3.70935      1.53548     12.40043        -1.397700     -0.455048     -0.963390
      2.29297      3.96304     12.48023        -2.766997      0.322979     -2.301447
     -2.74338      4.69976      3.43347         0.616093      0.273305     -0.967438
     -1.23689      2.34216      3.48595        -0.109451     -0.105202     -1.330806
      0.13652      4.67205      3.39046         0.115151      0.613683     -0.736557
      1.60975      2.31756      3.44031        -0.380758     -0.842686     -1.458851
      1.49236      0.51430      1.15954         0.693966      1.407494      1.574485
      0.14621      3.11118      1.46242         0.204135     -0.437864     -0.809373
      4.46991      0.64615      1.31686        -0.852690      0.136220      1.008845
      3.06729      3.17085      1.39896        -1.007919     -1.030429     -0.004387
      0.70233      1.60237      8.11778        -1.197881     -1.228447      2.140369
     -0.79776      3.91883      8.35622        -0.028257      0.520743     -0.116012
      3.41689      1.43498      8.36334         0.289768      0.435609     -0.389954
      1.98631      3.81023      8.37644        -0.450212      0.751978     -0.273331
     -0.86693      2.49168      6.45325        -0.050295     -1.608749     -1.419100
     -2.28975      4.66029      6.46403        -0.247746      0.734104     -1.213895
      2.10012      2.27072      6.32055        -0.496378      1.124169      0.174708
      0.68878      4.79300      6.27635        -0.905262     -0.861029      0.734417
     -0.61570      2.33859     13.26163         1.858547      0.702221      1.265261
     -2.00767      4.68237     13.27723         1.734009      2.106750      1.773686
      2.24334      2.33371     13.33973        -0.351090     -0.672697      0.559731
      0.74976      4.72541     13.45503         0.169901      0.145456     -0.341908
     -0.56493      0.82380     11.38763         0.233207     -0.912982     -0.224541
     -2.06279      3.20808     11.48803         0.519825     -1.030203     -1.580932
      2.38671      0.70375     11.27053        -1.036658      0.239044      0.767375
      0.89775      3.34026     11.27593        -0.426373     -1.734482      0.826562
 -----------------------------------------------------------------------------------
    total drift:                                0.009781     -0.016932     -0.025536


--------------------------------------------------------------------------------------------------------



  FREE ENERGIE OF THE ION-ELECTRON SYSTEM (eV)
  ---------------------------------------------------
  free  energy   TOTEN  =      -232.45300406 eV

  energy  without entropy=     -232.44528037  energy(sigma->0) =     -232.44914222
 


--------------------------------------------------------------------------------------------------------


    POTLOK:  cpu time    0.0725: real time    0.0730


--------------------------------------------------------------------------------------------------------


     LOOP+:  cpu time 5203.2585: real time 5214.8556
    4ORBIT:  cpu time    0.0000: real time    0.0000
 


 total charge     
 
# of ion       s       p       d       tot
------------------------------------------
    1        0.093   0.191   0.000   0.284
    2        0.097   0.206   0.000   0.303
    3        0.081   0.165   0.000   0.246
    4        0.083   0.172   0.000   0.255
    5        0.085   0.170   0.000   0.254
    6        0.079   0.157   0.000   0.235
    7        0.408   0.607   7.303   8.319
    8        0.460   0.740   7.211   8.411
    9        0.389   0.552   7.108   8.049
   10        0.445   0.704   7.406   8.555
   11        0.434   0.663   7.186   8.283
   12        0.487   0.798   7.261   8.545
   13        0.439   0.695   7.377   8.511
   14        0.483   0.781   7.268   8.533
   15        0.415   0.622   7.331   8.368
   16        0.465   0.739   7.227   8.430
   17        0.447   0.711   7.391   8.549
   18        0.467   0.739   7.454   8.660
   19        1.570   3.381   0.000   4.950
   20        1.589   3.296   0.000   4.885
   21        1.581   3.355   0.000   4.936
   22        1.572   3.382   0.000   4.954
   23        1.560   3.423   0.000   4.983
   24        1.561   3.484   0.000   5.045
   25        1.566   3.402   0.000   4.968
   26        1.567   3.426   0.000   4.993
   27        1.569   3.454   0.000   5.023
   28        1.577   3.380   0.000   4.957
   29        1.570   3.396   0.000   4.966
   30        1.574   3.389   0.000   4.962
   31        1.588   3.386   0.000   4.974
   32        1.579   3.413   0.000   4.992
   33        1.576   3.369   0.000   4.944
   34        1.577   3.379   0.000   4.956
   35        1.563   3.459   0.000   5.022
   36        1.565   3.469   0.000   5.033
   37        1.562   3.444   0.000   5.006
   38        1.553   3.458   0.000   5.012
   39        1.568   3.406   0.000   4.973
   40        1.579   3.411   0.000   4.991
   41        1.559   3.451   0.000   5.010
   42        1.561   3.430   0.000   4.991
--------------------------------------------------
tot         43.543  91.253  87.522 222.319
 


 magnetization (x)
 
# of ion       s       p       d       tot
------------------------------------------
    1        0.001  -0.002   0.000  -0.001
    2        0.000  -0.000   0.000   0.000
    3        0.000  -0.001   0.000  -0.000
    4        0.000  -0.001   0.000  -0.001
    5        0.001  -0.000   0.000   0.001
    6        0.000  -0.001   0.000  -0.000
    7        0.004   0.004  -0.035  -0.028
    8        0.012   0.015   1.345   1.371
    9        0.019   0.016   1.954   1.990
   10        0.004   0.006  -0.071  -0.061
   11        0.017   0.018   1.703   1.739
   12        0.011   0.015   1.246   1.272
   13        0.005   0.007  -0.016  -0.005
   14        0.013   0.018   1.302   1.333
   15        0.002   0.000  -0.049  -0.047
   16        0.010   0.010   1.281   1.301
   17        0.002   0.002  -0.078  -0.073
   18        0.002  -0.003  -0.049  -0.050
   19       -0.000  -0.094   0.000  -0.095
   20       -0.000  -0.289   0.000  -0.289
   21        0.000  -0.168   0.000  -0.168
   22       -0.001  -0.156   0.000  -0.156
   23        0.002  -0.066   0.000  -0.064
   24        0.000  -0.040   0.000  -0.040
   25        0.000  -0.089   0.000  -0.089
   26        0.001  -0.101   0.000  -0.100
   27        0.001  -0.083   0.000  -0.083
   28        0.001  -0.116   0.000  -0.115
   29        0.001  -0.109   0.000  -0.108
   30        0.001  -0.131   0.000  -0.130
   31        0.002  -0.162   0.000  -0.159
   32        0.001  -0.120   0.000  -0.119
   33        0.000  -0.147   0.000  -0.147
   34        0.001  -0.131   0.000  -0.130
   35       -0.000  -0.049   0.000  -0.049
   36        0.000  -0.061   0.000  -0.061
   37       -0.001  -0.057   0.000  -0.057
   38        0.000  -0.031   0.000  -0.031
   39       -0.001  -0.059   0.000  -0.061
   40        0.001  -0.057   0.000  -0.056
   41       -0.000  -0.040   0.000  -0.040
   42       -0.000  -0.045   0.000  -0.045
--------------------------------------------------
tot          0.110  -2.297   8.534   6.347
 

 total amount of memory used by VASP MPI-rank0   163057. kBytes
=======================================================================

   base      :      30000. kBytes
   nonlr-proj:       4179. kBytes
   fftplans  :       1690. kBytes
   grid      :       4644. kBytes
   one-center:        342. kBytes
   wavefun   :     122202. kBytes
 
  
  
 General timing and accounting informations for this job:
 ========================================================
  
                  Total CPU time used (sec):     5228.670
                            User time (sec):     4897.019
                          System time (sec):      331.652
                         Elapsed time (sec):     5240.663
  
                   Maximum memory used (kb):     1109276.
                   Average memory used (kb):           0.
  
                          Minor page faults:        72236
                          Major page faults:           77
                 Voluntary context switches:          617
