 running on   64 total cores
 distrk:  each k-point on   64 cores,    1 groups
 distr:  one band on    4 cores,   16 groups
 using from now: INCAR     
 vasp.5.4.4.18Apr17-6-g9f103f2a35 (build Nov 22 2021 14:44:17) complex          
  
 POSCAR found type information on POSCAR  Li Co O 
 POSCAR found :  3 types and      42 ions
 scaLAPACK will be used
 LDA part: xc-table for Pade appr. of Perdew
 generate k-points for:    6    6    2
 POSCAR, INCAR and KPOINTS ok, starting setup
 FFT: planning ...
 WAVECAR not read
 entering main loop
       N       E                     dE             d eps       ncg     rms          ort
DAV:   1     0.347061359983E+04    0.34706E+04   -0.13875E+05  5760   0.214E+03
DAV:   2     0.420307104023E+03   -0.30503E+04   -0.28091E+04  5760   0.521E+02
DAV:   3    -0.217880217814E+03   -0.63819E+03   -0.58918E+03  5760   0.253E+02
DAV:   4    -0.269702259593E+03   -0.51822E+02   -0.50531E+02  5760   0.737E+01
DAV:   5    -0.271629936847E+03   -0.19277E+01   -0.19233E+01  5760   0.143E+01
 gam= 0.000 g(H,U,f)=  0.185E+04 0.885E+03 0.125E+04 ort(H,U,f) = 0.000E+00 0.000E+00 0.000E+00
SDA:   6     0.149474389309E+03    0.42110E+03   -0.19233E+01  5760   0.398E+04 0.000E+00
 gam= 0.000 trial= 0.400  step= 0.062 mean= 0.400
 gam= 0.522 g(H,U,f)=  0.113E+04 0.704E+03 0.248E+03 ort(H,U,f) = 0.103E+04 0.410E+03-0.121E+03
CGA:   7     0.485098789974E+02   -0.10096E+03   -0.12354E+03  5760   0.208E+04 0.132E+04
 gam= 0.522 trial= 0.383  step= 0.058 mean= 0.383
 gam= 0.000 g(H,U,f)=  0.423E+03 0.101E+04 0.110E+04 ort(H,U,f) = 0.102E+04 0.122E+04 0.933E+03
CGA:   8    -0.990168546295E+02   -0.14753E+03   -0.80153E+02  5760   0.253E+04 0.318E+04
 gam= 0.000 trial= 0.367  step= 0.035 mean= 0.367
 gam= 0.583 g(H,U,f)=  0.264E+03 0.569E+03 0.643E+03 ort(H,U,f) = 0.259E+03-0.641E+02-0.102E+04
CGA:   9    -0.136825030334E+03   -0.37808E+02   -0.43763E+02  5760   0.148E+04-0.822E+03
 gam= 0.583 trial= 0.350  step= 0.117 mean= 0.350
 gam= 1.154 g(H,U,f)=  0.813E+02 0.696E+03 0.927E+03 ort(H,U,f) =-0.484E+01-0.253E+02-0.138E+03
CGA:  10    -0.180876464089E+03   -0.44051E+02   -0.58117E+02  5760   0.170E+04-0.168E+03
 gam= 1.154 trial= 0.339  step= 0.054 mean= 0.339
 gam= 0.190 g(H,U,f)=  0.919E+02 0.176E+03 0.560E+02 ort(H,U,f) =-0.212E+03-0.262E+03-0.105E+03
CGA:  11    -0.195565829981E+03   -0.14689E+02   -0.40890E+02  5760   0.324E+03-0.578E+03
 gam= 0.190 trial= 0.324  step= 0.088 mean= 0.324
 gam= 0.420 g(H,U,f)=  0.736E+02 0.391E+02 0.236E+02 ort(H,U,f) = 0.260E+02-0.414E+02-0.234E+02
CGA:  12    -0.203393371065E+03   -0.78275E+01   -0.94016E+01  5760   0.136E+03-0.389E+02
 gam= 0.420 trial= 0.312  step= 0.153 mean= 0.312
 gam= 0.751 g(H,U,f)=  0.260E+02 0.677E+02 0.855E+01 ort(H,U,f) = 0.321E+02-0.342E+02-0.473E+01
CGA:  13    -0.211512026733E+03   -0.81187E+01   -0.91983E+01  5760   0.102E+03-0.686E+01
 gam= 0.751 trial= 0.305  step= 0.114 mean= 0.305
 gam= 0.171 g(H,U,f)=  0.308E+01 0.110E+02 0.349E+01 ort(H,U,f) = 0.163E+01-0.435E+00-0.296E+01
CGA:  14    -0.216943945056E+03   -0.54319E+01   -0.55368E+01  5760   0.175E+02-0.176E+01
 gam= 0.171 trial= 0.295  step= 0.107 mean= 0.295
 gam= 0.948 g(H,U,f)=  0.220E+01 0.103E+02 0.414E+01 ort(H,U,f) = 0.960E+00 0.141E+01-0.283E+01
CGA:  15    -0.217803155172E+03   -0.85921E+00   -0.92229E+00  5760   0.166E+02-0.457E+00
 gam= 0.948 trial= 0.286  step= 0.183 mean= 0.286
 gam= 0.598 g(H,U,f)=  0.220E+01 0.674E+01 0.993E+00 ort(H,U,f) =-0.105E-01 0.482E+00-0.418E+00
CGA:  16    -0.219283798119E+03   -0.14806E+01   -0.14794E+01  5760   0.993E+01 0.536E-01
 gam= 0.598 trial= 0.280  step= 0.138 mean= 0.280
 gam= 0.663 g(H,U,f)=  0.184E+01 0.354E+01 0.120E+01 ort(H,U,f) = 0.825E+00-0.516E+00-0.460E+00
CGA:  17    -0.219940456883E+03   -0.65666E+00   -0.68806E+00  5760   0.658E+01-0.151E+00
 gam= 0.663 trial= 0.273  step= 0.179 mean= 0.273
 gam= 0.705 g(H,U,f)=  0.119E+01 0.277E+01 0.678E+00 ort(H,U,f) = 0.397E+00-0.612E-01-0.306E+00
CGA:  18    -0.220463338992E+03   -0.52288E+00   -0.57860E+00  5760   0.464E+01 0.296E-01
 gam= 0.705 trial= 0.269  step= 0.145 mean= 0.269
 gam= 0.423 g(H,U,f)=  0.543E+00 0.108E+01 0.337E+00 ort(H,U,f) =-0.165E+00 0.186E+00-0.158E+00
CGA:  19    -0.220769914579E+03   -0.30658E+00   -0.33773E+00  5760   0.196E+01-0.137E+00
 gam= 0.423 trial= 0.262  step= 0.158 mean= 0.262
 gam= 0.737 g(H,U,f)=  0.435E+00 0.836E+00 0.174E+00 ort(H,U,f) =-0.155E+00 0.265E+00-0.879E-01
CGA:  20    -0.220921417196E+03   -0.15150E+00   -0.14994E+00  5760   0.144E+01 0.222E-01
 gam= 0.737 trial= 0.257  step= 0.293 mean= 0.257
 gam= 0.966 g(H,U,f)=  0.595E+00 0.756E+00 0.448E-01 ort(H,U,f) =-0.337E+00 0.393E+00 0.552E-01
CGA:  21    -0.221138883590E+03   -0.21747E+00   -0.21408E+00  5760   0.140E+01 0.112E+00
 gam= 0.966 trial= 0.259  step= 0.355 mean= 0.259
 gam= 1.061 g(H,U,f)=  0.578E+00 0.748E+00 0.155E+00 ort(H,U,f) =-0.266E+00 0.340E+00-0.813E-01
CGA:  22    -0.221406632107E+03   -0.26775E+00   -0.26669E+00  5760   0.148E+01-0.746E-02
 gam= 1.061 trial= 0.264  step= 0.351 mean= 0.264
 gam= 0.707 g(H,U,f)=  0.489E+00 0.518E+00 0.386E-01 ort(H,U,f) =-0.335E+00 0.455E+00 0.466E-01
CGA:  23    -0.221674755904E+03   -0.26812E+00   -0.25813E+00  5760   0.105E+01 0.167E+00
 gam= 0.707 trial= 0.268  step= 0.415 mean= 0.268
 gam= 1.868 g(H,U,f)=  0.665E+00 0.104E+01 0.245E+00 ort(H,U,f) =-0.178E+00 0.940E-01 0.357E-01
CGA:  24    -0.221910288320E+03   -0.23553E+00   -0.24136E+00  5760   0.195E+01-0.480E-01
 gam= 1.868 trial= 0.275  step= 0.227 mean= 0.275
 gam= 1.197 g(H,U,f)=  0.851E+00 0.984E+00 0.505E+00 ort(H,U,f) =-0.208E+00 0.609E+00-0.562E+00
CGA:  25    -0.222131850005E+03   -0.22156E+00   -0.21128E+00  5760   0.234E+01-0.161E+00
 gam= 1.197 trial= 0.273  step= 0.178 mean= 0.273
 gam= 0.912 g(H,U,f)=  0.869E+00 0.972E+00 0.293E+00 ort(H,U,f) =-0.319E+00 0.486E+00-0.162E+00
CGA:  26    -0.222325964826E+03   -0.19411E+00   -0.19110E+00  5760   0.213E+01 0.504E-02
 gam= 0.912 trial= 0.268  step= 0.124 mean= 0.268
 gam= 0.780 g(H,U,f)=  0.765E+00 0.721E+00 0.179E+00 ort(H,U,f) =-0.235E+00 0.368E+00-0.111E+00
CGA:  27    -0.222459577856E+03   -0.13361E+00   -0.13281E+00  5760   0.167E+01 0.209E-01
 gam= 0.780 trial= 0.261  step= 0.186 mean= 0.261
 gam= 0.734 g(H,U,f)=  0.684E+00 0.358E+00 0.180E+00 ort(H,U,f) =-0.354E+00 0.295E+00 0.940E-01
CGA:  28    -0.222608133218E+03   -0.14856E+00   -0.15634E+00  5760   0.122E+01 0.349E-01
 gam= 0.734 trial= 0.257  step= 0.166 mean= 0.257
 gam= 0.959 g(H,U,f)=  0.538E+00 0.336E+00 0.298E+00 ort(H,U,f) =-0.810E-01 0.395E+00-0.316E+00
CGA:  29    -0.222707345715E+03   -0.99212E-01   -0.10360E+00  5760   0.117E+01-0.225E-02
 gam= 0.959 trial= 0.253  step= 0.214 mean= 0.253
 gam= 0.521 g(H,U,f)=  0.336E+00 0.266E+00 0.857E-02 ort(H,U,f) =-0.287E+00 0.285E+00 0.422E-04
CGA:  30    -0.222832992551E+03   -0.12565E+00   -0.12543E+00  5760   0.611E+00-0.225E-02
 gam= 0.521 trial= 0.251  step= 0.230 mean= 0.251
 gam= 1.358 g(H,U,f)=  0.230E+00 0.263E+00 0.337E+00 ort(H,U,f) =-0.535E-01 0.106E+00-0.685E-01
CGA:  31    -0.222903501222E+03   -0.70509E-01   -0.70083E-01  5760   0.829E+00-0.164E-01
 gam= 1.358 trial= 0.250  step= 0.159 mean= 0.250
 gam= 0.589 g(H,U,f)=  0.221E+00 0.263E+00 0.405E-02 ort(H,U,f) =-0.164E+00 0.140E+00 0.226E-01
CGA:  32    -0.222965614146E+03   -0.62113E-01   -0.64201E-01  5760   0.489E+00-0.942E-03
 gam= 0.589 trial= 0.245  step= 0.262 mean= 0.245
 gam= 1.073 g(H,U,f)=  0.198E+00 0.209E+00 0.117E+00 ort(H,U,f) =-0.411E-01 0.142E+00-0.741E-01
CGA:  33    -0.223029995944E+03   -0.64382E-01   -0.63978E-01  5760   0.524E+00 0.272E-01
 gam= 1.073 trial= 0.246  step= 0.088 mean= 0.246
 gam= 0.464 g(H,U,f)=  0.120E+00 0.122E+00 0.961E-03 ort(H,U,f) = 0.529E-01 0.188E+00 0.729E-02
CGA:  34    -0.223065391866E+03   -0.35396E-01   -0.24325E-01  5760   0.243E+00 0.248E+00
 gam= 0.464 trial= 0.238  step= 0.112 mean= 0.238
 gam= 0.983 g(H,U,f)=  0.668E-01 0.728E-01 0.997E-01 ort(H,U,f) = 0.476E-01 0.808E-01-0.698E-01
CGA:  35    -0.223091048076E+03   -0.25656E-01   -0.20058E-01  5760   0.239E+00 0.586E-01
 gam= 0.983 trial= 0.232  step= 0.098 mean= 0.232
 gam= 1.294 g(H,U,f)=  0.701E-01 0.744E-01 0.165E+00 ort(H,U,f) = 0.132E-01 0.485E-01-0.257E-01
CGA:  36    -0.223110450507E+03   -0.19402E-01   -0.14473E-01  5760   0.310E+00 0.360E-01
 gam= 1.294 trial= 0.225  step= 0.081 mean= 0.225
 gam= 0.965 g(H,U,f)=  0.115E+00 0.104E+00 0.797E-01 ort(H,U,f) =-0.329E-01 0.454E-01 0.392E-01
CGA:  37    -0.223127841766E+03   -0.17391E-01   -0.14434E-01  5760   0.299E+00 0.517E-01
 gam= 0.965 trial= 0.218  step= 0.118 mean= 0.218
 gam= 1.065 g(H,U,f)=  0.158E+00 0.138E+00 0.218E-01 ort(H,U,f) =-0.438E-01 0.882E-01 0.613E-02
CGA:  38    -0.223149477452E+03   -0.21636E-01   -0.20496E-01  5760   0.318E+00 0.506E-01
 gam= 1.065 trial= 0.213  step= 0.071 mean= 0.213
 gam= 0.000 g(H,U,f)=  0.121E+00 0.122E+00 0.203E-01 ort(H,U,f) = 0.288E-02 0.140E+00 0.112E-01
SDA:  39    -0.223166701306E+03   -0.17224E-01   -0.13136E-01  5760   0.264E+00 0.154E+00
 gam= 0.000 trial= 0.206  step= 0.184 mean= 0.206
 gam= 0.375 g(H,U,f)=  0.387E-01 0.562E-01 0.398E-02 ort(H,U,f) = 0.260E-01 0.305E-02-0.382E-02
CGA:  40    -0.223191112527E+03   -0.24411E-01   -0.24246E-01  5760   0.988E-01 0.253E-01
 gam= 0.375 trial= 0.205  step= 0.222 mean= 0.205
 gam= 0.763 g(H,U,f)=  0.217E-01 0.506E-01 0.305E-02 ort(H,U,f) =-0.101E-01-0.304E-02-0.616E-03
CGA:  41    -0.223202710386E+03   -0.11598E-01   -0.12039E-01  5760   0.754E-01-0.138E-01
 gam= 0.763 trial= 0.206  step= 0.732 mean= 0.206
 gam= 0.943 g(H,U,f)=  0.499E-01 0.211E-01 0.121E-03 ort(H,U,f) =-0.332E-01 0.198E-01-0.190E-03
CGA:  42    -0.223220328104E+03   -0.17618E-01   -0.23734E-01  5760   0.711E-01-0.137E-01
 gam= 0.943 trial= 0.232  step= 0.541 mean= 0.232
 gam= 2.162 g(H,U,f)=  0.670E-01 0.859E-01 0.834E-03 ort(H,U,f) =-0.202E-01-0.128E-02 0.446E-03
CGA:  43    -0.223229726815E+03   -0.93987E-02   -0.15738E-01  5760   0.154E+00-0.210E-01
 gam= 2.162 trial= 0.247  step= 0.168 mean= 0.247
 gam= 0.477 g(H,U,f)=  0.525E-01 0.209E-01 0.230E-04 ort(H,U,f) =-0.288E-01 0.229E-01-0.204E-04
CGA:  44    -0.223239470168E+03   -0.97434E-02   -0.90847E-02  5760   0.734E-01-0.588E-02
 gam= 0.477 trial= 0.243  step= 0.226 mean= 0.243
 gam= 0.921 g(H,U,f)=  0.323E-01 0.342E-01 0.111E-02 ort(H,U,f) = 0.588E-02 0.210E-02-0.103E-02
CGA:  45    -0.223247443283E+03   -0.79731E-02   -0.79684E-02  5760   0.676E-01 0.694E-02
 gam= 0.921 trial= 0.242  step= 0.233 mean= 0.242
 gam= 0.673 g(H,U,f)=  0.226E-01 0.226E-01 0.239E-03 ort(H,U,f) =-0.380E-02-0.777E-02 0.365E-04
CGA:  46    -0.223256235165E+03   -0.87919E-02   -0.86354E-02  5760   0.455E-01-0.115E-01
 gam= 0.673 trial= 0.242  step= 0.330 mean= 0.242
 gam= 0.639 g(H,U,f)=  0.153E-01 0.138E-01 0.336E-04 ort(H,U,f) =-0.874E-02 0.983E-02-0.132E-04
CGA:  47    -0.223262520011E+03   -0.62848E-02   -0.62210E-02  5760   0.291E-01 0.108E-02
 gam= 0.639 trial= 0.246  step= 0.229 mean= 0.246
 gam= 0.838 g(H,U,f)=  0.117E-01 0.127E-01 0.306E-04 ort(H,U,f) =-0.360E-02 0.476E-02 0.498E-04
CGA:  48    -0.223265929196E+03   -0.34092E-02   -0.34019E-02  5760   0.244E-01 0.121E-02
 gam= 0.838 trial= 0.246  step= 0.391 mean= 0.246
 gam= 1.275 g(H,U,f)=  0.128E-01 0.182E-01 0.677E-04 ort(H,U,f) =-0.708E-02 0.297E-02-0.556E-04
CGA:  49    -0.223269994225E+03   -0.40650E-02   -0.49584E-02  5760   0.310E-01-0.417E-02
 gam= 1.275 trial= 0.253  step= 0.264 mean= 0.253
 gam= 0.700 g(H,U,f)=  0.126E-01 0.908E-02 0.131E-04 ort(H,U,f) =-0.851E-02 0.853E-02 0.969E-05
CGA:  50    -0.223273394937E+03   -0.34007E-02   -0.34010E-02  5760   0.217E-01 0.300E-04
 gam= 0.700 trial= 0.253  step= 0.273 mean= 0.253
 gam= 0.827 g(H,U,f)=  0.908E-02 0.884E-02 0.564E-04 ort(H,U,f) =-0.350E-02 0.372E-02 0.511E-04
CGA:  51    -0.223276366920E+03   -0.29720E-02   -0.29748E-02  5760   0.180E-01 0.275E-03
 gam= 0.827 trial= 0.254  step= 0.241 mean= 0.254
 gam= 0.963 g(H,U,f)=  0.897E-02 0.833E-02 0.175E-04 ort(H,U,f) =-0.241E-02 0.274E-02-0.296E-04
CGA:  52    -0.223278573961E+03   -0.22070E-02   -0.21968E-02  5760   0.173E-01 0.302E-03
 gam= 0.963 trial= 0.254  step= 0.332 mean= 0.254
 gam= 0.832 g(H,U,f)=  0.922E-02 0.517E-02 0.229E-04 ort(H,U,f) =-0.374E-02 0.296E-02-0.178E-04
CGA:  53    -0.223281441018E+03   -0.28671E-02   -0.29238E-02  5760   0.144E-01-0.798E-03
 gam= 0.832 trial= 0.258  step= 0.313 mean= 0.258
 gam= 0.937 g(H,U,f)=  0.727E-02 0.621E-02 0.268E-04 ort(H,U,f) =-0.106E-02 0.131E-02 0.250E-04
CGA:  54    -0.223283597010E+03   -0.21560E-02   -0.21537E-02  5760   0.135E-01 0.275E-03
 gam= 0.937 trial= 0.260  step= 0.260 mean= 0.260
 gam= 0.730 g(H,U,f)=  0.447E-02 0.539E-02 0.797E-05 ort(H,U,f) =-0.167E-02 0.157E-02 0.258E-04
CGA:  55    -0.223285387751E+03   -0.17907E-02   -0.17903E-02  5760   0.986E-02-0.767E-04
 gam= 0.730 trial= 0.260  step= 0.275 mean= 0.260
 gam= 0.827 g(H,U,f)=  0.388E-02 0.422E-02 0.574E-04 ort(H,U,f) =-0.228E-02 0.175E-02 0.597E-04
CGA:  56    -0.223286725812E+03   -0.13381E-02   -0.13458E-02  5760   0.816E-02-0.475E-03
 gam= 0.827 trial= 0.261  step= 0.370 mean= 0.261
 gam= 1.066 g(H,U,f)=  0.430E-02 0.438E-02 0.844E-05 ort(H,U,f) =-0.235E-02 0.259E-02 0.256E-04
CGA:  57    -0.223288181529E+03   -0.14557E-02   -0.14378E-02  5760   0.869E-02 0.268E-03
 gam= 1.066 trial= 0.267  step= 0.322 mean= 0.267
 gam= 1.138 g(H,U,f)=  0.447E-02 0.538E-02 0.383E-04 ort(H,U,f) =-0.226E-02 0.237E-02-0.109E-03
CGA:  58    -0.223289625938E+03   -0.14444E-02   -0.14461E-02  5760   0.989E-02-0.568E-05
 gam= 1.138 trial= 0.269  step= 0.312 mean= 0.269
 gam= 1.001 g(H,U,f)=  0.462E-02 0.527E-02 0.184E-04 ort(H,U,f) =-0.335E-02 0.309E-02 0.365E-04
CGA:  59    -0.223291117480E+03   -0.14915E-02   -0.15431E-02  5760   0.990E-02-0.227E-03
 gam= 1.001 trial= 0.272  step= 0.460 mean= 0.272
 gam= 1.367 g(H,U,f)=  0.729E-02 0.624E-02 0.924E-05 ort(H,U,f) =-0.422E-02 0.311E-02 0.400E-04
CGA:  60    -0.223293162986E+03   -0.20455E-02   -0.22248E-02  5760   0.135E-01-0.107E-02
 gam= 1.367 trial= 0.281  step= 0.356 mean= 0.281
 gam= 0.961 g(H,U,f)=  0.751E-02 0.548E-02 0.258E-04 ort(H,U,f) =-0.408E-02 0.429E-02 0.111E-03
CGA:  61    -0.223295323277E+03   -0.21603E-02   -0.21481E-02  5760   0.130E-01 0.320E-03
 gam= 0.961 trial= 0.285  step= 0.385 mean= 0.285
 gam= 0.956 g(H,U,f)=  0.652E-02 0.591E-02 0.143E-04 ort(H,U,f) =-0.297E-02 0.321E-02-0.917E-05
CGA:  62    -0.223297905401E+03   -0.25821E-02   -0.25630E-02  5760   0.124E-01 0.224E-03
 gam= 0.956 trial= 0.290  step= 0.387 mean= 0.290
 gam= 1.106 g(H,U,f)=  0.621E-02 0.751E-02 0.500E-04 ort(H,U,f) =-0.265E-02 0.299E-02-0.151E-03
CGA:  63    -0.223300349145E+03   -0.24437E-02   -0.24510E-02  5760   0.138E-01 0.182E-03
 gam= 1.106 trial= 0.295  step= 0.352 mean= 0.295
 gam= 1.104 g(H,U,f)=  0.736E-02 0.783E-02 0.207E-04 ort(H,U,f) =-0.280E-02 0.256E-02 0.691E-05
CGA:  64    -0.223302727173E+03   -0.23780E-02   -0.24614E-02  5760   0.152E-01-0.239E-03
 gam= 1.104 trial= 0.297  step= 0.274 mean= 0.297
 gam= 0.832 g(H,U,f)=  0.650E-02 0.614E-02 0.112E-04 ort(H,U,f) =-0.219E-02 0.185E-02-0.592E-04
CGA:  65    -0.223304801341E+03   -0.20742E-02   -0.20445E-02  5760   0.127E-01-0.399E-03
 gam= 0.832 trial= 0.296  step= 0.327 mean= 0.296
 gam= 0.768 g(H,U,f)=  0.510E-02 0.461E-02 0.193E-05 ort(H,U,f) =-0.170E-02 0.148E-02 0.318E-05
CGA:  66    -0.223306807183E+03   -0.20058E-02   -0.20127E-02  5760   0.972E-02-0.220E-03
 gam= 0.768 trial= 0.298  step= 0.344 mean= 0.298
 gam= 0.887 g(H,U,f)=  0.436E-02 0.426E-02 0.612E-05 ort(H,U,f) =-0.119E-02 0.136E-02 0.181E-04
CGA:  67    -0.223308446819E+03   -0.16396E-02   -0.16402E-02  5760   0.862E-02 0.191E-03
 gam= 0.887 trial= 0.300  step= 0.244 mean= 0.300
 gam= 0.774 g(H,U,f)=  0.372E-02 0.295E-02 0.114E-04 ort(H,U,f) =-0.455E-03 0.838E-03-0.779E-05
CGA:  68    -0.223309558351E+03   -0.11115E-02   -0.10718E-02  5760   0.668E-02 0.375E-03
 gam= 0.774 trial= 0.297  step= 0.291 mean= 0.297
 gam= 0.796 g(H,U,f)=  0.283E-02 0.248E-02 0.249E-05 ort(H,U,f) =-0.420E-03 0.167E-03-0.391E-05
CGA:  69    -0.223310574503E+03   -0.10162E-02   -0.10132E-02  5760   0.531E-02-0.257E-03
 gam= 0.796 trial= 0.297  step= 0.394 mean= 0.297
 gam= 0.000 g(H,U,f)=  0.241E-02 0.207E-02 0.180E-05 ort(H,U,f) =-0.108E-02 0.880E-03-0.678E-05
SDA:  70    -0.223311565925E+03   -0.99142E-03   -0.10054E-02  5760   0.449E-02-0.202E-03
 gam= 0.000 trial= 0.302  step= 0.394 mean= 0.302
 gam= 0.329 g(H,U,f)=  0.717E-03 0.757E-03 0.200E-05 ort(H,U,f) = 0.193E-03-0.179E-03 0.125E-05
CGA:  71    -0.223312449762E+03   -0.88384E-03   -0.88332E-03  5760   0.148E-02 0.149E-04
 gam= 0.329 trial= 0.306  step= 0.826 mean= 0.306
 gam= 1.646 g(H,U,f)=  0.636E-03 0.179E-02 0.209E-05 ort(H,U,f) =-0.196E-03 0.218E-03-0.145E-05
CGA:  72    -0.223313030517E+03   -0.58075E-03   -0.61104E-03  5760   0.243E-02 0.198E-04
 gam= 1.646 trial= 0.332  step= 0.161 mean= 0.332
 gam= 0.537 g(H,U,f)=  0.517E-03 0.786E-03 0.240E-05 ort(H,U,f) =-0.335E-03 0.710E-03 0.292E-05
CGA:  73    -0.223313293388E+03   -0.26287E-03   -0.19819E-03  5760   0.131E-02 0.378E-03
 gam= 0.537 trial= 0.324  step= 0.611 mean= 0.324
 gam= 1.142 g(H,U,f)=  0.610E-03 0.881E-03 0.572E-06 ort(H,U,f) =-0.406E-03 0.283E-03-0.989E-06
CGA:  74    -0.223313733182E+03   -0.43979E-03   -0.46115E-03  5760   0.149E-02-0.124E-03
 gam= 1.142 trial= 0.338  step= 0.548 mean= 0.338
 gam= 1.729 g(H,U,f)=  0.794E-03 0.178E-02 0.263E-05 ort(H,U,f) =-0.320E-03 0.493E-03-0.253E-05
CGA:  75    -0.223314090244E+03   -0.35706E-03   -0.36971E-03  5760   0.258E-02 0.170E-03
 gam= 1.729 trial= 0.349  step= 0.196 mean= 0.349
 gam= 0.640 g(H,U,f)=  0.707E-03 0.937E-03 0.532E-05 ort(H,U,f) =-0.441E-03 0.698E-03 0.698E-05
CGA:  76    -0.223314445332E+03   -0.35509E-03   -0.28202E-03  5760   0.165E-02 0.265E-03
 gam= 0.640 trial= 0.341  step= 0.679 mean= 0.341
 gam= 1.147 g(H,U,f)=  0.897E-03 0.994E-03 0.665E-06 ort(H,U,f) =-0.506E-03 0.442E-03-0.298E-06
CGA:  77    -0.223315047087E+03   -0.60175E-03   -0.61795E-03  5760   0.189E-02-0.642E-04
 gam= 1.147 trial= 0.358  step= 0.759 mean= 0.358
 gam= 1.188 g(H,U,f)=  0.117E-02 0.107E-02 0.446E-05 ort(H,U,f) =-0.594E-03 0.608E-03-0.831E-05
CGA:  78    -0.223315729343E+03   -0.68226E-03   -0.68990E-03  5760   0.225E-02 0.494E-05
 gam= 1.188 trial= 0.378  step= 0.507 mean= 0.378
 gam= 1.692 g(H,U,f)=  0.124E-02 0.255E-02 0.146E-04 ort(H,U,f) =-0.264E-03 0.470E-03-0.112E-04
CGA:  79    -0.223316270874E+03   -0.54153E-03   -0.57168E-03  5760   0.380E-02 0.195E-03
 gam= 1.692 trial= 0.384  step= 0.221 mean= 0.384
 gam= 0.645 g(H,U,f)=  0.851E-03 0.160E-02 0.120E-05 ort(H,U,f) =-0.400E-03 0.614E-03-0.684E-06
CGA:  80    -0.223316802637E+03   -0.53176E-03   -0.45670E-03  5760   0.245E-02 0.214E-03
 gam= 0.645 trial= 0.376  step= 0.539 mean= 0.376
 gam= 0.728 g(H,U,f)=  0.922E-03 0.863E-03 0.117E-05 ort(H,U,f) =-0.707E-03 0.585E-03 0.949E-06
CGA:  81    -0.223317483282E+03   -0.68065E-03   -0.69870E-03  5760   0.179E-02-0.122E-03
 gam= 0.728 trial= 0.384  step= 0.848 mean= 0.384
 gam= 1.272 g(H,U,f)=  0.111E-02 0.116E-02 0.412E-05 ort(H,U,f) =-0.414E-03 0.401E-03 0.164E-05
CGA:  82    -0.223318200473E+03   -0.71719E-03   -0.71974E-03  5760   0.227E-02-0.112E-04
 gam= 1.272 trial= 0.408  step= 0.399 mean= 0.408
 gam= 1.098 g(H,U,f)=  0.863E-03 0.161E-02 0.185E-04 ort(H,U,f) =-0.150E-03 0.398E-03-0.238E-04
CGA:  83    -0.223318652050E+03   -0.45158E-03   -0.45086E-03  5760   0.250E-02 0.224E-03
 gam= 1.098 trial= 0.407  step= 0.216 mean= 0.407
 gam= 0.603 g(H,U,f)=  0.633E-03 0.857E-03 0.150E-04 ort(H,U,f) =-0.351E-04 0.388E-03-0.134E-04
CGA:  84    -0.223319029051E+03   -0.37700E-03   -0.29627E-03  5760   0.150E-02 0.339E-03
 gam= 0.603 trial= 0.398  step= 0.631 mean= 0.398
 gam= 1.116 g(H,U,f)=  0.709E-03 0.968E-03 0.183E-05 ort(H,U,f) =-0.354E-03 0.274E-03-0.280E-05
CGA:  85    -0.223319551493E+03   -0.52244E-03   -0.53908E-03  5760   0.168E-02-0.832E-04
 gam= 1.116 trial= 0.409  step= 0.480 mean= 0.409
 gam= 0.910 g(H,U,f)=  0.651E-03 0.874E-03 0.272E-05 ort(H,U,f) =-0.374E-03 0.407E-03 0.288E-05
CGA:  86    -0.223319928909E+03   -0.37742E-03   -0.38095E-03  5760   0.153E-02 0.360E-04
 gam= 0.910 trial= 0.413  step= 0.254 mean= 0.413
 gam= 0.968 g(H,U,f)=  0.551E-03 0.913E-03 0.150E-04 ort(H,U,f) =-0.295E-04 0.283E-03-0.895E-05
CGA:  87    -0.223320170394E+03   -0.24148E-03   -0.19830E-03  5760   0.148E-02 0.244E-03
 gam= 0.968 trial= 0.405  step= 0.372 mean= 0.405
 gam= 0.618 g(H,U,f)=  0.416E-03 0.497E-03 0.646E-06 ort(H,U,f) =-0.193E-03 0.180E-03 0.232E-05
CGA:  88    -0.223320489720E+03   -0.31933E-03   -0.31881E-03  5760   0.914E-03-0.106E-04
 gam= 0.618 trial= 0.403  step= 0.584 mean= 0.403
 gam= 0.907 g(H,U,f)=  0.406E-03 0.420E-03 0.288E-05 ort(H,U,f) =-0.131E-03 0.132E-03-0.200E-05
CGA:  89    -0.223320753666E+03   -0.26395E-03   -0.26478E-03  5760   0.829E-03-0.650E-06
 gam= 0.907 trial= 0.412  step= 0.584 mean= 0.412
 gam= 0.649 g(H,U,f)=  0.286E-03 0.249E-03 0.304E-05 ort(H,U,f) =-0.149E-03 0.140E-03 0.101E-06
CGA:  90    -0.223320994293E+03   -0.24063E-03   -0.24173E-03  5760   0.538E-03-0.959E-05
 gam= 0.649 trial= 0.421  step= 0.500 mean= 0.421
 gam= 0.769 g(H,U,f)=  0.199E-03 0.215E-03 0.219E-06 ort(H,U,f) =-0.638E-04 0.796E-04-0.321E-06
CGA:  91    -0.223321127383E+03   -0.13309E-03   -0.13295E-03  5760   0.414E-03 0.154E-04
 gam= 0.769 trial= 0.425  step= 0.374 mean= 0.425
 gam= 1.345 g(H,U,f)=  0.174E-03 0.375E-03 0.709E-05 ort(H,U,f) = 0.174E-04 0.437E-04-0.303E-05
CGA:  92    -0.223321209375E+03   -0.81991E-04   -0.79682E-04  5760   0.557E-03 0.580E-04
 gam= 1.345 trial= 0.422  step= 0.233 mean= 0.422
 gam= 0.576 g(H,U,f)=  0.144E-03 0.176E-03 0.732E-06 ort(H,U,f) =-0.451E-04 0.580E-04-0.889E-06
CGA:  93    -0.223321290306E+03   -0.80931E-04   -0.73877E-04  5760   0.321E-03 0.121E-04
 gam= 0.576 trial= 0.413  step= 0.611 mean= 0.413
 gam= 0.937 g(H,U,f)=  0.139E-03 0.161E-03 0.160E-05 ort(H,U,f) =-0.821E-04 0.763E-04-0.110E-05
CGA:  94    -0.223321389752E+03   -0.99446E-04   -0.10026E-03  5760   0.301E-03-0.683E-05
 gam= 0.937 trial= 0.423  step= 0.448 mean= 0.423
 gam= 0.928 g(H,U,f)=  0.123E-03 0.156E-03 0.449E-06 ort(H,U,f) =-0.662E-04 0.652E-04-0.215E-06
CGA:  95    -0.223321455673E+03   -0.65921E-04   -0.65931E-04  5760   0.279E-03-0.120E-05
 gam= 0.928 trial= 0.424  step= 0.242 mean= 0.424
 gam= 0.987 g(H,U,f)=  0.123E-03 0.151E-03 0.188E-05 ort(H,U,f) = 0.625E-05 0.567E-04 0.558E-06
CGA:  96    -0.223321496040E+03   -0.40367E-04   -0.33616E-04  5760   0.276E-03 0.635E-04
 gam= 0.987 trial= 0.415  step= 0.552 mean= 0.415
 gam= 1.150 g(H,U,f)=  0.115E-03 0.202E-03 0.319E-06 ort(H,U,f) =-0.791E-04 0.674E-04-0.601E-06
CGA:  97    -0.223321587551E+03   -0.91511E-04   -0.93390E-04  5760   0.317E-03-0.123E-04
 gam= 1.150 trial= 0.422  step= 0.407 mean= 0.422
 gam= 0.890 g(H,U,f)=  0.129E-03 0.152E-03 0.133E-05 ort(H,U,f) =-0.117E-03 0.121E-03 0.911E-06
CGA:  98    -0.223321649418E+03   -0.61868E-04   -0.61627E-04  5760   0.282E-03 0.460E-05
 gam= 0.890 trial= 0.421  step= 0.303 mean= 0.421
 gam= 1.049 g(H,U,f)=  0.149E-03 0.146E-03 0.424E-06 ort(H,U,f) =-0.579E-04 0.802E-04-0.136E-05
CGA:  99    -0.223321695638E+03   -0.46220E-04   -0.43313E-04  5760   0.296E-03 0.209E-04
 gam= 1.049 trial= 0.415  step= 0.436 mean= 0.415
 gam= 1.186 g(H,U,f)=  0.135E-03 0.216E-03 0.295E-06 ort(H,U,f) =-0.504E-04 0.405E-04 0.612E-06
CGA: 100    -0.223321764243E+03   -0.68604E-04   -0.69365E-04  5760   0.351E-03-0.920E-05
 gam= 1.186 trial= 0.416  step= 0.345 mean= 0.416
 gam= 0.000 g(H,U,f)=  0.131E-03 0.162E-03 0.182E-05 ort(H,U,f) =-0.588E-04 0.676E-04-0.290E-05
SDA: 101    -0.223321824404E+03   -0.60161E-04   -0.58620E-04  5760   0.295E-03 0.588E-05
 gam= 0.000 trial= 0.413  step= 0.201 mean= 0.413
 gam= 0.643 g(H,U,f)=  0.672E-04 0.122E-03 0.544E-06 ort(H,U,f) = 0.690E-04-0.983E-05-0.537E-06
CGA: 102    -0.223321858995E+03   -0.34592E-04   -0.29705E-04  5760   0.190E-03 0.586E-04
 gam= 0.643 trial= 0.402  step= 0.278 mean= 0.402
 gam= 0.430 g(H,U,f)=  0.332E-04 0.483E-04 0.678E-07 ort(H,U,f) = 0.174E-04-0.138E-04 0.331E-07
CGA: 103    -0.223321893083E+03   -0.34088E-04   -0.31611E-04  5760   0.816E-04 0.359E-05
 gam= 0.430 trial= 0.396  step= 0.588 mean= 0.396
 gam= 1.774 g(H,U,f)=  0.368E-04 0.108E-03 0.295E-06 ort(H,U,f) =-0.390E-05 0.905E-05-0.430E-07
CGA: 104    -0.223321915709E+03   -0.22625E-04   -0.24435E-04  5760   0.145E-03 0.511E-05
 gam= 1.774 trial= 0.405  step= 0.221 mean= 0.405
 gam= 0.579 g(H,U,f)=  0.343E-04 0.487E-04 0.843E-06 ort(H,U,f) =-0.163E-04 0.317E-04-0.226E-06
CGA: 105    -0.223321936553E+03   -0.20845E-04   -0.16964E-04  5760   0.838E-04 0.152E-04
 gam= 0.579 trial= 0.396  step= 0.547 mean= 0.396
 gam= 0.693 g(H,U,f)=  0.296E-04 0.284E-04 0.421E-07 ort(H,U,f) =-0.229E-04 0.243E-04 0.245E-08
CGA: 106    -0.223321961765E+03   -0.25212E-04   -0.25314E-04  5760   0.580E-04 0.142E-05
 gam= 0.693 trial= 0.404  step= 0.584 mean= 0.404
 gam= 1.707 g(H,U,f)=  0.295E-04 0.694E-04 0.201E-06 ort(H,U,f) =-0.859E-05 0.163E-04 0.243E-06
CGA: 107    -0.223321978496E+03   -0.16730E-04   -0.17232E-04  5760   0.991E-04 0.796E-05
 gam= 1.707 trial= 0.413  step= 0.220 mean= 0.413
 gam= 0.682 g(H,U,f)=  0.290E-04 0.381E-04 0.468E-06 ort(H,U,f) =-0.151E-04 0.303E-04-0.700E-06
CGA: 108    -0.223321994544E+03   -0.16049E-04   -0.12408E-04  5760   0.676E-04 0.145E-04
 gam= 0.682 trial= 0.403  step= 0.645 mean= 0.403
 gam= 0.950 g(H,U,f)=  0.321E-04 0.318E-04 0.262E-06 ort(H,U,f) =-0.249E-04 0.228E-04 0.856E-07
CGA: 109    -0.223322019129E+03   -0.24584E-04   -0.24972E-04  5760   0.642E-04-0.201E-05
 gam= 0.950 trial= 0.415  step= 0.555 mean= 0.415
 gam= 1.597 g(H,U,f)=  0.375E-04 0.646E-04 0.375E-06 ort(H,U,f) =-0.149E-04 0.197E-04-0.376E-06
CGA: 110    -0.223322035676E+03   -0.16548E-04   -0.17275E-04  5760   0.102E-03 0.439E-05
 gam= 1.597 trial= 0.422  step= 0.218 mean= 0.422
 gam= 0.674 g(H,U,f)=  0.347E-04 0.343E-04 0.898E-07 ort(H,U,f) =-0.163E-04 0.290E-04 0.240E-07
CGA: 111    -0.223322050601E+03   -0.14925E-04   -0.11949E-04  5760   0.690E-04 0.127E-04
 gam= 0.674 trial= 0.412  step= 0.758 mean= 0.412
 gam= 1.147 g(H,U,f)=  0.413E-04 0.378E-04 0.146E-06 ort(H,U,f) =-0.231E-04 0.143E-04-0.164E-06
CGA: 112    -0.223322077526E+03   -0.26925E-04   -0.29420E-04  5760   0.792E-04-0.901E-05
 gam= 1.147 trial= 0.429  step= 0.391 mean= 0.429
 gam= 1.066 g(H,U,f)=  0.383E-04 0.460E-04 0.134E-06 ort(H,U,f) =-0.963E-05 0.135E-04 0.119E-06
CGA: 113    -0.223322091085E+03   -0.13559E-04   -0.13476E-04  5760   0.845E-04 0.400E-05
 gam= 1.066 trial= 0.427  step= 0.275 mean= 0.427
 gam= 0.790 g(H,U,f)=  0.262E-04 0.400E-04 0.491E-06 ort(H,U,f) = 0.660E-06 0.129E-04-0.224E-06
CGA: 114    -0.223322105674E+03   -0.14589E-04   -0.12190E-04  5760   0.667E-04 0.134E-04
 gam= 0.790 trial= 0.420  step= 0.361 mean= 0.420
 gam= 0.825 g(H,U,f)=  0.229E-04 0.320E-04 0.268E-07 ort(H,U,f) =-0.743E-05 0.844E-05 0.911E-07
CGA: 115    -0.223322119841E+03   -0.14167E-04   -0.13944E-04  5760   0.550E-04 0.110E-05
 gam= 0.825 trial= 0.417  step= 0.381 mean= 0.417
 gam= 0.979 g(H,U,f)=  0.222E-04 0.313E-04 0.243E-06 ort(H,U,f) =-0.862E-05 0.134E-04 0.115E-06
CGA: 116    -0.223322130677E+03   -0.10836E-04   -0.10660E-04  5760   0.538E-04 0.487E-05
 gam= 0.979 trial= 0.415  step= 0.343 mean= 0.415
 gam= 1.119 g(H,U,f)=  0.221E-04 0.378E-04 0.303E-06 ort(H,U,f) =-0.603E-05 0.115E-04-0.410E-06
CGA: 117    -0.223322141270E+03   -0.10593E-04   -0.10060E-04  5760   0.602E-04 0.501E-05
 gam= 1.119 trial= 0.411  step= 0.360 mean= 0.411
 gam= 0.813 g(H,U,f)=  0.204E-04 0.285E-04 0.751E-07 ort(H,U,f) =-0.155E-04 0.148E-04-0.185E-07
CGA: 118    -0.223322153518E+03   -0.12248E-04   -0.11835E-04  5760   0.490E-04-0.715E-06
 gam= 0.813 trial= 0.409  step= 0.329 mean= 0.409
 gam= 0.781 g(H,U,f)=  0.180E-04 0.202E-04 0.272E-07 ort(H,U,f) =-0.102E-04 0.127E-04-0.952E-07
CGA: 119    -0.223322161732E+03   -0.82141E-05   -0.79538E-05  5760   0.383E-04 0.242E-05
 gam= 0.781 trial= 0.405  step= 0.416 mean= 0.405
 gam= 1.319 g(H,U,f)=  0.180E-04 0.320E-04 0.532E-06 ort(H,U,f) =-0.536E-05 0.774E-05 0.143E-06
CGA: 120    -0.223322169996E+03   -0.82637E-05   -0.83564E-05  5760   0.505E-04 0.253E-05
 gam= 1.319 trial= 0.405  step= 0.265 mean= 0.405
 gam= 0.733 g(H,U,f)=  0.173E-04 0.197E-04 0.154E-07 ort(H,U,f) =-0.701E-05 0.778E-05 0.364E-07
CGA: 121    -0.223322177860E+03   -0.78642E-05   -0.71244E-05  5760   0.370E-04 0.801E-06
 gam= 0.733 trial= 0.398  step= 0.547 mean= 0.398
 gam= 0.715 g(H,U,f)=  0.154E-04 0.111E-04 0.241E-07 ort(H,U,f) =-0.867E-05 0.675E-05-0.127E-06
CGA: 122    -0.223322187873E+03   -0.10013E-04   -0.10281E-04  5760   0.265E-04-0.205E-05
 gam= 0.715 trial= 0.406  step= 0.513 mean= 0.406
 gam= 1.160 g(H,U,f)=  0.122E-04 0.182E-04 0.205E-06 ort(H,U,f) =-0.203E-05 0.272E-05-0.203E-06
CGA: 123    -0.223322193994E+03   -0.61210E-05   -0.64166E-05  5760   0.307E-04 0.484E-06
 gam= 1.160 trial= 0.411  step= 0.189 mean= 0.411
 gam= 0.656 g(H,U,f)=  0.994E-05 0.102E-04 0.338E-07 ort(H,U,f) = 0.104E-05 0.231E-05-0.165E-07
CGA: 124    -0.223322197846E+03   -0.38526E-05   -0.29542E-05  5760   0.201E-04 0.333E-05
 gam= 0.656 trial= 0.400  step= 0.516 mean= 0.400
 gam= 0.716 g(H,U,f)=  0.701E-05 0.738E-05 0.232E-07 ort(H,U,f) =-0.336E-05 0.333E-05 0.172E-07
CGA: 125    -0.223322203598E+03   -0.57519E-05   -0.57523E-05  5760   0.144E-04-0.142E-07
 gam= 0.716 trial= 0.406  step= 0.248 mean= 0.406
 gam= 1.148 g(H,U,f)=  0.601E-05 0.105E-04 0.452E-07 ort(H,U,f) = 0.472E-06 0.194E-05-0.395E-07
CGA: 126    -0.223322205520E+03   -0.19219E-05   -0.17879E-05  5760   0.165E-04 0.237E-05
 gam= 1.148 trial= 0.398  step= 0.383 mean= 0.398
 gam= 0.672 g(H,U,f)=  0.503E-05 0.607E-05 0.116E-07 ort(H,U,f) =-0.314E-05 0.212E-05 0.116E-07
CGA: 127    -0.223322209245E+03   -0.37243E-05   -0.36919E-05  5760   0.111E-04-0.101E-05
 gam= 0.672 trial= 0.397  step= 0.471 mean= 0.397
 gam= 1.121 g(H,U,f)=  0.498E-05 0.742E-05 0.569E-07 ort(H,U,f) =-0.220E-05 0.277E-05-0.202E-07
CGA: 128    -0.223322211659E+03   -0.24147E-05   -0.24579E-05  5760   0.125E-04 0.548E-06
 gam= 1.121 trial= 0.401  step= 0.255 mean= 0.401
 gam= 0.742 g(H,U,f)=  0.402E-05 0.522E-05 0.358E-08 ort(H,U,f) =-0.141E-05 0.285E-05 0.588E-08
CGA: 129    -0.223322213471E+03   -0.18115E-05   -0.16677E-05  5760   0.924E-05 0.145E-05
 gam= 0.742 trial= 0.394  step= 0.417 mean= 0.394
 gam= 0.897 g(H,U,f)=  0.341E-05 0.480E-05 0.740E-07 ort(H,U,f) =-0.138E-05 0.192E-05 0.243E-07
CGA: 130    -0.223322215603E+03   -0.21325E-05   -0.21499E-05  5760   0.829E-05 0.567E-06
 gam= 0.897 trial= 0.395  step= 0.380 mean= 0.395
 gam= 1.319 g(H,U,f)=  0.338E-05 0.755E-05 0.876E-08 ort(H,U,f) =-0.132E-05 0.211E-05-0.271E-07
CGA: 131    -0.223322217285E+03   -0.16814E-05   -0.16713E-05  5760   0.109E-04 0.763E-06
 gam= 1.319 trial= 0.394  step= 0.342 mean= 0.394
 gam= 0.000 g(H,U,f)=  0.372E-05 0.466E-05 0.280E-08 ort(H,U,f) =-0.312E-05 0.372E-05 0.307E-08
SDA: 132    -0.223322219376E+03   -0.20916E-05   -0.20444E-05  5760   0.838E-05 0.606E-06
 gam= 0.000 trial= 0.391  step= 0.201 mean= 0.391
 gam= 0.807 g(H,U,f)=  0.231E-05 0.443E-05 0.271E-07 ort(H,U,f) = 0.218E-05-0.297E-06-0.351E-08
CGA: 133    -0.223322220431E+03   -0.10543E-05   -0.84318E-06  5760   0.677E-05 0.188E-05
 gam= 0.807 trial= 0.382  step= 0.421 mean= 0.382
 gam= 0.799 g(H,U,f)=  0.149E-05 0.387E-05 0.403E-07 ort(H,U,f) =-0.409E-06-0.390E-06-0.287E-07
CGA: 134    -0.223322222141E+03   -0.17108E-05   -0.17452E-05  5760   0.541E-05-0.828E-06
 gam= 0.799 trial= 0.384  step= 0.572 mean= 0.384
 gam= 1.535 g(H,U,f)=  0.274E-05 0.556E-05 0.254E-08 ort(H,U,f) =-0.160E-05 0.108E-05-0.672E-09
CGA: 135    -0.223322223353E+03   -0.12117E-05   -0.13582E-05  5760   0.830E-05-0.526E-06
 gam= 1.535 trial= 0.393  step= 0.233 mean= 0.393
 gam= 0.767 g(H,U,f)=  0.298E-05 0.335E-05 0.316E-07 ort(H,U,f) =-0.189E-05 0.261E-05 0.229E-07
CGA: 136    -0.223322224423E+03   -0.10698E-05   -0.87234E-06  5760   0.637E-05 0.744E-06
 gam= 0.767 trial= 0.385  step= 0.659 mean= 0.385
 gam= 0.877 g(H,U,f)=  0.279E-05 0.276E-05 0.351E-07 ort(H,U,f) =-0.218E-05 0.143E-05-0.496E-07
CGA: 137    -0.223322226549E+03   -0.21265E-05   -0.22853E-05  5760   0.558E-05-0.801E-06
 gam= 0.877 trial= 0.399  step= 0.519 mean= 0.399
 gam= 1.489 g(H,U,f)=  0.274E-05 0.557E-05 0.673E-08 ort(H,U,f) =-0.108E-05 0.126E-05 0.331E-08
CGA: 138    -0.223322227784E+03   -0.12343E-05   -0.12668E-05  5760   0.831E-05 0.178E-06
 gam= 1.489 trial= 0.405  step= 0.270 mean= 0.405
 gam= 0.894 g(H,U,f)=  0.283E-05 0.459E-05 0.193E-07 ort(H,U,f) =-0.125E-05 0.234E-05-0.186E-07
CGA: 139    -0.223322229148E+03   -0.13642E-05   -0.11560E-05  5760   0.743E-05 0.107E-05
 gam= 0.894 trial= 0.398  step= 0.456 mean= 0.398
 gam= 0.862 g(H,U,f)=  0.291E-05 0.346E-05 0.310E-07 ort(H,U,f) =-0.209E-05 0.200E-05-0.645E-09
CGA: 140    -0.223322231023E+03   -0.18748E-05   -0.19122E-05  5760   0.641E-05-0.950E-07
 gam= 0.862 trial= 0.401  step= 0.346 mean= 0.401
 gam= 1.165 g(H,U,f)=  0.291E-05 0.454E-05 0.944E-08 ort(H,U,f) =-0.625E-06 0.144E-05-0.111E-07
CGA: 141    -0.223322232155E+03   -0.11328E-05   -0.10947E-05  5760   0.746E-05 0.804E-06
 gam= 1.165 trial= 0.398  step= 0.398 mean= 0.398
 gam= 1.095 g(H,U,f)=  0.299E-05 0.516E-05 0.258E-07 ort(H,U,f) =-0.891E-06 0.139E-05 0.227E-07
CGA: 142    -0.223322233826E+03   -0.16709E-05   -0.16703E-05  5760   0.817E-05 0.524E-06
 gam= 1.095 trial= 0.398  step= 0.395 mean= 0.398
 gam= 1.114 g(H,U,f)=  0.312E-05 0.596E-05 0.299E-07 ort(H,U,f) =-0.143E-05 0.176E-05-0.438E-07
CGA: 143    -0.223322235558E+03   -0.17315E-05   -0.17269E-05  5760   0.910E-05 0.286E-06
 gam= 1.114 trial= 0.398  step= 0.275 mean= 0.398
 gam= 0.573 g(H,U,f)=  0.269E-05 0.252E-05 0.443E-08 ort(H,U,f) =-0.162E-05 0.213E-05 0.933E-08
CGA: 144    -0.223322236976E+03   -0.14185E-05   -0.12948E-05  5760   0.522E-05 0.519E-06
 gam= 0.573 trial= 0.392  step= 0.440 mean= 0.392
 gam= 1.087 g(H,U,f)=  0.221E-05 0.344E-05 0.243E-07 ort(H,U,f) =-0.426E-06 0.596E-06-0.202E-07
CGA: 145    -0.223322238160E+03   -0.11840E-05   -0.12132E-05  5760   0.567E-05 0.149E-06
 gam= 1.087 trial= 0.394  step= 0.287 mean= 0.394
 gam= 0.998 g(H,U,f)=  0.207E-05 0.358E-05 0.817E-08 ort(H,U,f) =-0.150E-06 0.786E-06 0.279E-08
CGA: 146    -0.223322239074E+03   -0.91405E-06   -0.83812E-06  5760   0.566E-05 0.639E-06
 gam= 0.998 trial= 0.389  step= 0.504 mean= 0.389
 gam= 0.816 g(H,U,f)=  0.229E-05 0.233E-05 0.211E-08 ort(H,U,f) =-0.184E-05 0.149E-05 0.139E-08
CGA: 147    -0.223322240596E+03   -0.15212E-05   -0.15870E-05  5760   0.462E-05-0.352E-06
 gam= 0.816 trial= 0.395  step= 0.317 mean= 0.395
 gam= 1.143 g(H,U,f)=  0.233E-05 0.292E-05 0.293E-07 ort(H,U,f) =-0.549E-06 0.925E-06 0.113E-07
CGA: 148    -0.223322241339E+03   -0.74345E-06   -0.68664E-06  5760   0.528E-05 0.387E-06
 gam= 1.143 trial= 0.391  step= 0.407 mean= 0.391
 gam= 1.166 g(H,U,f)=  0.222E-05 0.392E-05 0.166E-07 ort(H,U,f) =-0.848E-06 0.152E-06-0.302E-07
CGA: 149    -0.223322242488E+03   -0.11489E-05   -0.11637E-05  5760   0.616E-05-0.726E-06
 gam= 1.166 trial= 0.392  step= 0.363 mean= 0.392
 gam= 0.741 g(H,U,f)=  0.213E-05 0.243E-05 0.130E-08 ort(H,U,f) =-0.160E-05 0.140E-05-0.625E-08
CGA: 150    -0.223322243477E+03   -0.98864E-06   -0.96522E-06  5760   0.457E-05-0.202E-06
 gam= 0.741 trial= 0.390  step= 0.268 mean= 0.390
 final diagonalization
   1 F= -.23231693E+03 E0= -.23231323E+03  d E =-.738386E-02  mag=     6.0000
