 vasp.5.4.4.18Apr17-6-g9f103f2a35 (build Nov 22 2021 14:44:17) complex          
  
 executed on             LinuxIFC date 2022.08.06  11:37:41
 running on   64 total cores
 distrk:  each k-point on   64 cores,    1 groups
 distr:  one band on NCORES_PER_BAND=   4 cores,   16 groups


--------------------------------------------------------------------------------------------------------


 INCAR:
 POTCAR:    PAW_PBE Li 17Jan2003                  
 POTCAR:    PAW_PBE Co 02Aug2007                  
 POTCAR:    PAW_PBE O 08Apr2002                   
 POTCAR:    PAW_PBE Li 17Jan2003                  
   VRHFIN =Li: s1p0                                                             
   LEXCH  = PE                                                                  
   EATOM  =     5.3001 eV,    0.3895 Ry                                         
                                                                                
   TITEL  = PAW_PBE Li 17Jan2003                                                
   LULTRA =        F    use ultrasoft PP ?                                      
   IUNSCR =        1    unscreen: 0-lin 1-nonlin 2-no                           
   RPACOR =    1.500    partial core radius                                     
   POMASS =    7.010; ZVAL   =    1.000    mass and valenz                      
   RCORE  =    2.050    outmost cutoff radius                                   
   RWIGS  =    2.600; RWIGS  =    1.376    wigner-seitz radius (au A)           
   ENMAX  =  140.000; ENMIN  =  100.000 eV                                      
   ICORE  =        2    local potential                                         
   LCOR   =        T    correct aug charges                                     
   LPAW   =        T    paw PP                                                  
   EAUG   =  331.638                                                            
   DEXC   =    0.000                                                            
   RMAX   =    2.098    core radius for proj-oper                               
   RAUG   =    1.300    factor for augmentation sphere                          
   RDEP   =    2.094    radius for radial grids                                 
   RDEPT  =    1.810    core radius for aug-charge                              
                                                                                
   Atomic configuration                                                         
    4 entries                                                                   
     n  l   j            E        occ.                                          
     1  0  0.50       -51.8549   2.0000                                         
     2  0  0.50        -2.8742   1.0000                                         
     2  1  0.50        -1.3606   0.0000                                         
     3  2  1.50        -1.3606   0.0000                                         
   Description                                                                  
     l       E           TYP  RCUT    TYP  RCUT                                 
     0     -2.8742052     23  2.050                                             
     0     27.2116520     23  2.050                                             
     1     -1.3605826     23  2.050                                             
     2     -1.3605826     23  2.050                                             
  local pseudopotential read in
  partial core-charges read in
  partial kinetic energy density read in
  atomic valenz-charges read in
  non local Contribution for L=           0  read in
    real space projection operators read in
  non local Contribution for L=           0  read in
    real space projection operators read in
  non local Contribution for L=           1  read in
    real space projection operators read in
    PAW grid and wavefunctions read in
 
   number of l-projection  operators is LMAX  =           3
   number of lm-projection operators is LMMAX =           5
 
 POTCAR:    PAW_PBE Co 02Aug2007                  
   VRHFIN =Co: d8 s1                                                            
   LEXCH  = PE                                                                  
   EATOM  =   813.3670 eV,   59.7808 Ry                                         
                                                                                
   TITEL  = PAW_PBE Co 02Aug2007                                                
   LULTRA =        F    use ultrasoft PP ?                                      
   IUNSCR =        1    unscreen: 0-lin 1-nonlin 2-no                           
   RPACOR =    2.000    partial core radius                                     
   POMASS =   58.933; ZVAL   =    9.000    mass and valenz                      
   RCORE  =    2.300    outmost cutoff radius                                   
   RWIGS  =    2.460; RWIGS  =    1.302    wigner-seitz radius (au A)           
   ENMAX  =  267.968; ENMIN  =  200.976 eV                                      
   RCLOC  =    1.203    cutoff for local pot                                    
   LCOR   =        T    correct aug charges                                     
   LPAW   =        T    paw PP                                                  
   EAUG   =  477.818                                                            
   DEXC   =    0.000                                                            
   RMAX   =    2.360    core radius for proj-oper                               
   RAUG   =    1.300    factor for augmentation sphere                          
   RDEP   =    2.393    radius for radial grids                                 
   RDEPT  =    1.864    core radius for aug-charge                              
                                                                                
   Atomic configuration                                                         
    9 entries                                                                   
     n  l   j            E        occ.                                          
     1  0  0.50     -7587.6674   2.0000                                         
     2  0  0.50      -893.6084   2.0000                                         
     2  1  1.50      -764.5805   6.0000                                         
     3  0  0.50       -97.5973   2.0000                                         
     3  1  1.50       -60.9648   6.0000                                         
     3  2  2.50        -4.2382   8.0000                                         
     4  0  0.50        -4.3746   1.0000                                         
     4  1  1.50        -4.0817   0.0000                                         
     4  3  2.50        -1.3606   0.0000                                         
   Description                                                                  
     l       E           TYP  RCUT    TYP  RCUT                                 
     2     -4.2382362     23  2.300                                             
     2     -5.5988188     23  2.300                                             
     0     -4.3745797     23  2.300                                             
     0      5.7660125     23  2.300                                             
     1     -2.7211652     23  2.300                                             
     1     16.9860234     23  2.300                                             
  local pseudopotential read in
  partial core-charges read in
  partial kinetic energy density read in
  atomic valenz-charges read in
  non local Contribution for L=           2  read in
    real space projection operators read in
  non local Contribution for L=           2  read in
    real space projection operators read in
  non local Contribution for L=           0  read in
    real space projection operators read in
  non local Contribution for L=           0  read in
    real space projection operators read in
  non local Contribution for L=           1  read in
    real space projection operators read in
  non local Contribution for L=           1  read in
    real space projection operators read in
    PAW grid and wavefunctions read in
 
   number of l-projection  operators is LMAX  =           6
   number of lm-projection operators is LMMAX =          18
 
 POTCAR:    PAW_PBE O 08Apr2002                   
   VRHFIN =O: s2p4                                                              
   LEXCH  = PE                                                                  
   EATOM  =   432.3788 eV,   31.7789 Ry                                         
                                                                                
   TITEL  = PAW_PBE O 08Apr2002                                                 
   LULTRA =        F    use ultrasoft PP ?                                      
   IUNSCR =        1    unscreen: 0-lin 1-nonlin 2-no                           
   RPACOR =    1.200    partial core radius                                     
   POMASS =   16.000; ZVAL   =    6.000    mass and valenz                      
   RCORE  =    1.520    outmost cutoff radius                                   
   RWIGS  =    1.550; RWIGS  =    0.820    wigner-seitz radius (au A)           
   ENMAX  =  400.000; ENMIN  =  300.000 eV                                      
   ICORE  =        2    local potential                                         
   LCOR   =        T    correct aug charges                                     
   LPAW   =        T    paw PP                                                  
   EAUG   =  605.392                                                            
   DEXC   =    0.000                                                            
   RMAX   =    1.553    core radius for proj-oper                               
   RAUG   =    1.300    factor for augmentation sphere                          
   RDEP   =    1.550    radius for radial grids                                 
   RDEPT  =    1.329    core radius for aug-charge                              
                                                                                
   Atomic configuration                                                         
    4 entries                                                                   
     n  l   j            E        occ.                                          
     1  0  0.50      -514.6923   2.0000                                         
     2  0  0.50       -23.9615   2.0000                                         
     2  1  0.50        -9.0305   4.0000                                         
     3  2  1.50        -9.5241   0.0000                                         
   Description                                                                  
     l       E           TYP  RCUT    TYP  RCUT                                 
     0    -23.9615318     23  1.200                                             
     0     -9.5240782     23  1.200                                             
     1     -9.0304911     23  1.520                                             
     1      8.1634956     23  1.520                                             
     2     -9.5240782      7  1.500                                             
  local pseudopotential read in
  partial core-charges read in
  partial kinetic energy density read in
  kinetic energy density of atom read in
  atomic valenz-charges read in
  non local Contribution for L=           0  read in
    real space projection operators read in
  non local Contribution for L=           0  read in
    real space projection operators read in
  non local Contribution for L=           1  read in
    real space projection operators read in
  non local Contribution for L=           1  read in
    real space projection operators read in
    PAW grid and wavefunctions read in
 
   number of l-projection  operators is LMAX  =           4
   number of lm-projection operators is LMMAX =           8
 
 Optimization of the real space projectors (new method)

 maximal supplied QI-value         = 18.33
 optimisation between [QCUT,QGAM] = [ 12.46, 24.93] = [ 43.51,174.03] Ry 
 Optimized for a Real-space Cutoff    1.13 Angstroem

   l    n(q)    QCUT    max X(q) W(low)/X(q) W(high)/X(q)  e(spline) 
   0      8    12.465    33.825    0.12E-03    0.29E-03    0.99E-07
   0      8    12.465     8.944    0.86E-04    0.22E-03    0.72E-07
   1      8    12.465     4.214    0.27E-03    0.11E-03    0.82E-07
 Optimization of the real space projectors (new method)

 maximal supplied QI-value         = 16.25
 optimisation between [QCUT,QGAM] = [ 12.51, 25.03] = [ 43.85,175.40] Ry 
 Optimized for a Real-space Cutoff    1.31 Angstroem

   l    n(q)    QCUT    max X(q) W(low)/X(q) W(high)/X(q)  e(spline) 
   2      9    12.514    65.824    0.30E-03    0.46E-03    0.43E-06
   2      9    12.514    61.429    0.31E-03    0.46E-03    0.44E-06
   0     10    12.514    56.174    0.90E-04    0.33E-03    0.30E-06
   0     10    12.514    31.263    0.81E-04    0.30E-03    0.28E-06
   1      9    12.514    19.828    0.38E-03    0.65E-04    0.24E-06
   1      9    12.514    15.139    0.32E-03    0.60E-04    0.20E-06
 Optimization of the real space projectors (new method)

 maximal supplied QI-value         = 24.76
 optimisation between [QCUT,QGAM] = [ 12.38, 25.00] = [ 42.90,175.06] Ry 
 Optimized for a Real-space Cutoff    1.13 Angstroem

   l    n(q)    QCUT    max X(q) W(low)/X(q) W(high)/X(q)  e(spline) 
   0      8    12.378    20.381    0.16E-03    0.54E-05    0.27E-06
   0      8    12.378    15.268    0.17E-03    0.61E-05    0.29E-06
   1      8    12.378     5.964    0.38E-03    0.23E-03    0.28E-06
   1      8    12.378     5.382    0.33E-03    0.20E-03    0.25E-06
  PAW_PBE Li 17Jan2003                  :
 energy of atom  1       EATOM=   -5.3001
 kinetic energy error for atom=    0.0000 (will be added to EATOM!!)
  PAW_PBE Co 02Aug2007                  :
 energy of atom  2       EATOM= -813.3670
 kinetic energy error for atom=    0.0018 (will be added to EATOM!!)
  PAW_PBE O 08Apr2002                   :
 energy of atom  3       EATOM= -432.3788
 kinetic energy error for atom=    0.0168 (will be added to EATOM!!)
 
 
 POSCAR: Li6 Co12 O24                            
  positions in cartesian coordinates
  No initial velocities read in
 exchange correlation table for  LEXCH =        8
   RHO(1)=    0.500       N(1)  =     2000
   RHO(2)=  100.500       N(2)  =     4000
 


--------------------------------------------------------------------------------------------------------


 ion  position               nearest neighbor table
   1  0.885  0.710  0.005-  37 1.83  26 1.84  36 2.36  23 2.42  18 2.68   8 2.72   2 2.81  10 3.03

   2  0.577  0.125  0.995-  38 1.98  25 2.06  37 2.21  36 2.23  23 2.26  26 2.58   9 2.64  16 2.76
                             1 2.81  17 2.95  15 3.01
   3  0.746  0.033  0.327-  34 1.82  21 1.91  19 2.04  20 2.16  33 2.24  31 2.62  10 2.62   4 2.65
                            13 2.71   9 2.80   7 2.84  11 2.95   4 3.00  12 3.20
   4  0.800  0.595  0.343-  33 1.90  34 1.99  20 2.10  19 2.10  32 2.18  22 2.31   3 2.65  14 2.65
                            11 2.79  12 2.85   8 2.89  10 2.94   3 3.00   9 3.02
   5  0.209  0.397  0.658-  28 1.84  39 1.94  29 2.16  42 2.23  27 2.27  40 2.38   6 2.49  12 2.71
                            14 2.85  15 2.91  17 2.94  11 3.06  16 3.15   6 3.21
   6  0.318  0.887  0.655-  28 1.94  27 1.99  41 2.10  40 2.22   5 2.49  30 2.51  13 2.59  16 2.72
                            12 3.00  11 3.15   5 3.21
   7  0.083  0.215  0.171-  24 1.72  25 1.90  19 1.92  23 1.93  22 1.95  20 1.98  10 2.77   8 2.78
                             9 2.78  10 2.78   8 2.82   3 2.84   9 2.89
   8  0.096  0.726  0.174-  26 1.83  19 1.85  21 1.93  20 1.95  23 1.95  24 2.00   9 2.70   1 2.72
                             7 2.78   7 2.82  10 2.83  10 2.84   9 2.86   4 2.89
   9  0.587  0.206  0.174-  21 1.83  26 1.85  22 1.87  23 1.87  20 1.88  25 1.95   2 2.64   8 2.70
                             7 2.78  10 2.78   3 2.80  10 2.82   8 2.86   7 2.89   4 3.02
  10  0.587  0.710  0.177-  22 1.86  21 1.87  24 1.88  19 1.88  26 1.91  25 1.93   3 2.62   7 2.77
                             7 2.78   9 2.78   9 2.82   8 2.83   8 2.84   4 2.94   1 3.03
  11  0.007  0.976  0.493-  34 1.81  29 1.82  30 1.83  31 1.84  32 1.96  27 2.03  14 2.69  12 2.74
                             4 2.79  13 2.83  13 2.84  14 2.86  12 2.87   3 2.95   5 3.06   6 3.15
  12  0.028  0.476  0.497-  33 1.85  28 1.86  29 1.88  32 1.89  30 1.93  31 1.96   5 2.71  11 2.74
                            13 2.76  13 2.79  14 2.80   4 2.85  11 2.87  14 2.87   6 3.00   3 3.20
  13  0.512  0.985  0.492-  32 1.86  33 1.88  27 1.94  34 1.97  29 1.99  28 2.00   6 2.59   3 2.71
                            12 2.76  14 2.77  12 2.79  11 2.83  14 2.84  11 2.84
  14  0.527  0.488  0.498-  31 1.87  28 1.87  27 1.87  30 1.92  33 1.95  34 1.97   4 2.65  11 2.69
                            13 2.77  12 2.80  13 2.84   5 2.85  11 2.86  12 2.87
  15  0.393  0.314  0.834-  42 1.79  37 1.86  41 1.87  36 1.89  35 1.91  39 1.92  18 2.78  16 2.78
                            18 2.78  16 2.83  17 2.83  17 2.84   5 2.91   2 3.01
  16  0.379  0.802  0.834-  42 1.84  36 1.89  35 1.90  40 1.90  38 1.96  41 2.01  17 2.71   6 2.72
                             2 2.76  15 2.78  18 2.83  15 2.83  18 2.85  17 2.85   5 3.15
  17  0.892  0.312  0.825-  40 1.75  41 1.81  35 1.91  38 1.93  39 1.96  37 2.01  16 2.71  18 2.75
                            15 2.83  15 2.84  16 2.85  18 2.86   5 2.94   2 2.95
  18  0.886  0.819  0.828-  38 1.87  36 1.89  39 1.91  42 1.92  40 2.01  37 2.03   1 2.68  17 2.75
                            15 2.78  15 2.78  16 2.83  16 2.85  17 2.86
  19  0.929  0.885  0.240-   8 1.85  10 1.88   7 1.92   3 2.04   4 2.10
  20  0.916  0.394  0.245-   9 1.88   8 1.95   7 1.98   4 2.10   3 2.16
  21  0.441  0.897  0.242-   9 1.83  10 1.87   3 1.91   8 1.93
  22  0.432  0.382  0.239-  10 1.86   9 1.87   7 1.95   4 2.31
  23  0.264  0.057  0.102-   9 1.87   7 1.93   8 1.95   2 2.26   1 2.42
  24  0.251  0.515  0.111-   7 1.72  10 1.88   8 2.00
  25  0.747  0.027  0.101-   7 1.90  10 1.93   9 1.95   2 2.06
  26  0.760  0.537  0.114-   8 1.83   1 1.84   9 1.85  10 1.91   2 2.58
  27  0.367  0.171  0.568-  14 1.87  13 1.94   6 1.99  11 2.03   5 2.27
  28  0.356  0.644  0.565-   5 1.84  12 1.86  14 1.87   6 1.94  13 2.00
  29  0.867  0.150  0.563-  11 1.82  12 1.88  13 1.99   5 2.16
  30  0.875  0.670  0.563-  11 1.83  14 1.92  12 1.93   6 2.51
  31  0.196  0.295  0.430-  11 1.84  14 1.87  12 1.96   3 2.62
  32  0.178  0.796  0.427-  13 1.86  12 1.89  11 1.96   4 2.18
  33  0.700  0.316  0.429-  12 1.85  13 1.88   4 1.90  14 1.95   3 2.24
  34  0.694  0.818  0.423-  11 1.81   3 1.82  14 1.97  13 1.97   4 1.99
  35  0.216  0.475  0.902-  16 1.90  17 1.91  15 1.91
  36  0.218  0.981  0.898-  18 1.89  15 1.89  16 1.89   2 2.23   1 2.36
  37  0.716  0.477  0.904-   1 1.83  15 1.86  17 2.01  18 2.03   2 2.21
  38  0.736  0.992  0.899-  18 1.87  17 1.93  16 1.96   2 1.98
  39  0.067  0.140  0.756-  18 1.91  15 1.92   5 1.94  17 1.96
  40  0.045  0.614  0.762-  17 1.75  16 1.90  18 2.01   6 2.22   5 2.38
  41  0.561  0.155  0.765-  17 1.81  15 1.87  16 2.01   6 2.10
  42  0.527  0.622  0.770-  15 1.79  16 1.84  18 1.92   5 2.23
 

IMPORTANT INFORMATION: All symmetrisations will be switched off!
NOSYMM: (Re-)initialisation of all symmetry stuff for point group C_1.

 
 

Automatic generation of k-mesh.
 generate k-points for:    6    6    2
Space group operators:
 irot       det(A)        alpha          n_x          n_y          n_z        tau_x        tau_y        tau_z
    1     1.000000     0.000000     1.000000     0.000000     0.000000     0.000000     0.000000     0.000000
 
 Subroutine IBZKPT returns following result:
 ===========================================
 
 Found     36 irreducible k-points:
 
 Following reciprocal coordinates:
            Coordinates               Weight
  0.083333  0.083333  0.250000      2.000000
  0.250000  0.083333  0.250000      2.000000
  0.416667  0.083333  0.250000      2.000000
 -0.416667  0.083333  0.250000      2.000000
 -0.250000  0.083333  0.250000      2.000000
 -0.083333  0.083333  0.250000      2.000000
  0.083333  0.250000  0.250000      2.000000
  0.250000  0.250000  0.250000      2.000000
  0.416667  0.250000  0.250000      2.000000
 -0.416667  0.250000  0.250000      2.000000
 -0.250000  0.250000  0.250000      2.000000
 -0.083333  0.250000  0.250000      2.000000
  0.083333  0.416667  0.250000      2.000000
  0.250000  0.416667  0.250000      2.000000
  0.416667  0.416667  0.250000      2.000000
 -0.416667  0.416667  0.250000      2.000000
 -0.250000  0.416667  0.250000      2.000000
 -0.083333  0.416667  0.250000      2.000000
  0.083333 -0.416667  0.250000      2.000000
  0.250000 -0.416667  0.250000      2.000000
  0.416667 -0.416667  0.250000      2.000000
 -0.416667 -0.416667  0.250000      2.000000
 -0.250000 -0.416667  0.250000      2.000000
 -0.083333 -0.416667  0.250000      2.000000
  0.083333 -0.250000  0.250000      2.000000
  0.250000 -0.250000  0.250000      2.000000
  0.416667 -0.250000  0.250000      2.000000
 -0.416667 -0.250000  0.250000      2.000000
 -0.250000 -0.250000  0.250000      2.000000
 -0.083333 -0.250000  0.250000      2.000000
  0.083333 -0.083333  0.250000      2.000000
  0.250000 -0.083333  0.250000      2.000000
  0.416667 -0.083333  0.250000      2.000000
 -0.416667 -0.083333  0.250000      2.000000
 -0.250000 -0.083333  0.250000      2.000000
 -0.083333 -0.083333  0.250000      2.000000
 
 Following cartesian coordinates:
            Coordinates               Weight
  0.014704  0.026173  0.018447      2.000000
  0.044113  0.043823  0.019356      2.000000
  0.073521  0.061473  0.020266      2.000000
 -0.073521 -0.026777  0.015718      2.000000
 -0.044113 -0.009127  0.016628      2.000000
 -0.014704  0.008523  0.017537      2.000000
  0.014704  0.060870  0.020146      2.000000
  0.044113  0.078520  0.021056      2.000000
  0.073521  0.096170  0.021966      2.000000
 -0.073521  0.007920  0.017418      2.000000
 -0.044113  0.025570  0.018327      2.000000
 -0.014704  0.043220  0.019237      2.000000
  0.014704  0.095566  0.021846      2.000000
  0.044113  0.113216  0.022756      2.000000
  0.073521  0.130866  0.023665      2.000000
 -0.073521  0.042616  0.019118      2.000000
 -0.044113  0.060266  0.020027      2.000000
 -0.014704  0.077916  0.020937      2.000000
  0.014704 -0.077916  0.013347      2.000000
  0.044113 -0.060266  0.014257      2.000000
  0.073521 -0.042616  0.015166      2.000000
 -0.073521 -0.130866  0.010618      2.000000
 -0.044113 -0.113216  0.011528      2.000000
 -0.014704 -0.095566  0.012438      2.000000
  0.014704 -0.043220  0.015047      2.000000
  0.044113 -0.025570  0.015956      2.000000
  0.073521 -0.007920  0.016866      2.000000
 -0.073521 -0.096170  0.012318      2.000000
 -0.044113 -0.078520  0.013228      2.000000
 -0.014704 -0.060870  0.014137      2.000000
  0.014704 -0.008523  0.016747      2.000000
  0.044113  0.009127  0.017656      2.000000
  0.073521  0.026777  0.018566      2.000000
 -0.073521 -0.061473  0.014018      2.000000
 -0.044113 -0.043823  0.014928      2.000000
 -0.014704 -0.026173  0.015837      2.000000
 


--------------------------------------------------------------------------------------------------------




 Dimension of arrays:
   k-points           NKPTS =     36   k-points in BZ     NKDIM =     36   number of bands    NBANDS=    160
   number of dos      NEDOS =    301   number of ions     NIONS =     42
   non local maximal  LDIM  =      6   non local SUM 2l+1 LMDIM =     18
   total plane-waves  NPLWV = 116640
   max r-space proj   IRMAX =   2795   max aug-charges    IRDMAX=  11785
   dimension x,y,z NGX =    36 NGY =   36 NGZ =   90
   dimension x,y,z NGXF=    72 NGYF=   72 NGZF=  180
   support grid    NGXF=    72 NGYF=   72 NGZF=  180
   ions per type =               6  12  24
   NGX,Y,Z   is equivalent  to a cutoff of  10.56, 10.68, 10.25 a.u.
   NGXF,Y,Z  is equivalent  to a cutoff of  21.12, 21.37, 20.49 a.u.

 SYSTEM =  LiCoO2                                  
 POSCAR =  Li6 Co12 O24                            

 Startparameter for this run:
   NWRITE =      2    write-flag & timer
   PREC   = normal    normal or accurate (medium, high low for compatibility)
   ISTART =      0    job   : 0-new  1-cont  2-samecut
   ICHARG =      2    charge: 1-file 2-atom 10-const
   ISPIN  =      2    spin polarized calculation?
   LNONCOLLINEAR =      F non collinear calculations
   LSORBIT =      F    spin-orbit coupling
   INIWAV =      1    electr: 0-lowe 1-rand  2-diag
   LASPH  =      F    aspherical Exc in radial PAW
   METAGGA=      F    non-selfconsistent MetaGGA calc.

 Electronic Relaxation 1
   ENCUT  =  600.0 eV  44.10 Ry    6.64 a.u.  11.32 11.19 29.16*2*pi/ulx,y,z
   ENINI  =  600.0     initial cutoff
   ENAUG  =  605.4 eV  augmentation charge cutoff
   NELM   =    600;   NELMIN=  2; NELMDL= -5     # of ELM steps 
   EDIFF  = 0.1E-05   stopping-criterion for ELM
   LREAL  =      T    real-space projection
   NLSPLINE    = F    spline interpolate recip. space projectors
   LCOMPAT=      F    compatible to vasp.4.4
   GGA_COMPAT  = T    GGA compatible to vasp.4.4-vasp.4.6
   LMAXPAW     = -100 max onsite density
   LMAXMIX     =    2 max onsite mixed and CHGCAR
   VOSKOWN=      0    Vosko Wilk Nusair interpolation
   ROPT   =   -0.00050  -0.00050  -0.00050
 Ionic relaxation
   EDIFFG = 0.1E-04   stopping-criterion for IOM
   NSW    =      0    number of steps for IOM
   NBLOCK =      1;   KBLOCK =      1    inner block; outer block 
   IBRION =     -1    ionic relax: 0-MD 1-quasi-New 2-CG
   NFREE  =      0    steps in history (QN), initial steepest desc. (CG)
   ISIF   =      2    stress and relaxation
   IWAVPR =     10    prediction:  0-non 1-charg 2-wave 3-comb
   ISYM   =      0    0-nonsym 1-usesym 2-fastsym
   LCORR  =      T    Harris-Foulkes like correction to forces

   POTIM  = 0.5000    time-step for ionic-motion
   TEIN   =    0.0    initial temperature
   TEBEG  =    0.0;   TEEND  =   0.0 temperature during run
   SMASS  =  -3.00    Nose mass-parameter (am)
   estimated Nose-frequenzy (Omega)   =  0.10E-29 period in steps =****** mass=  -0.734E-27a.u.
   SCALEE = 1.0000    scale energy and forces
   NPACO  =    256;   APACO  = 16.0  distance and # of slots for P.C.
   PSTRESS=    0.0 pullay stress

  Mass of Ions in am
   POMASS =   7.01 58.93 16.00
  Ionic Valenz
   ZVAL   =   1.00  9.00  6.00
  Atomic Wigner-Seitz radii
   RWIGS  =  -1.00 -1.00 -1.00
  virtual crystal weights 
   VCA    =   1.00  1.00  1.00
   NELECT =     258.0000    total number of electrons
   NUPDOWN=       6.0000    fix difference up-down

 DOS related values:
   EMIN   =  10.00;   EMAX   =-10.00  energy-range for DOS
   EFERMI =   0.00
   ISMEAR =     0;   SIGMA  =   0.05  broadening in eV -4-tet -1-fermi 0-gaus

 Electronic relaxation 2 (details)
   IALGO  =     58    algorithm
   LDIAG  =      T    sub-space diagonalisation (order eigenvalues)
   LSUBROT=      F    optimize rotation matrix (better conditioning)
   TURBO    =      0    0=normal 1=particle mesh
   IRESTART =      0    0=no restart 2=restart with 2 vectors
   NREBOOT  =      0    no. of reboots
   NMIN     =      0    reboot dimension
   EREF     =   0.00    reference energy to select bands
   IMIX   =      4    mixing-type and parameters
     AMIX     =   0.40;   BMIX     =  1.00
     AMIX_MAG =   1.60;   BMIX_MAG =  1.00
     AMIN     =   0.10
     WC   =   100.;   INIMIX=   1;  MIXPRE=   1;  MAXMIX= -45

 Intra band minimization:
   WEIMIN = 0.0000     energy-eigenvalue tresh-hold
   EBREAK =  0.16E-08  absolut break condition
   DEPER  =   0.30     relativ break condition  

   TIME   =   0.40     timestep for ELM

  volume/ion in A,a.u.               =       9.45        63.79
  Fermi-wavevector in a.u.,A,eV,Ry     =   1.417994  2.679621 27.357342  2.010708
  Thomas-Fermi vector in A             =   2.539166
 
 Write flags
   LWAVE        =      F    write WAVECAR
   LDOWNSAMPLE  =      F    k-point downsampling of WAVECAR
   LCHARG       =      F    write CHGCAR
   LVTOT        =      F    write LOCPOT, total local potential
   LVHAR        =      F    write LOCPOT, Hartree potential only
   LELF         =      F    write electronic localiz. function (ELF)
   LORBIT       =     11    0 simple, 1 ext, 2 COOP (PROOUT), +10 PAW based schemes


 Dipole corrections
   LMONO  =      F    monopole corrections only (constant potential shift)
   LDIPOL =      F    correct potential (dipole corrections)
   IDIPOL =      0    1-x, 2-y, 3-z, 4-all directions 
   EPSILON=  1.0000000 bulk dielectric constant

 LDA+U is selected, type is set to LDAUTYPE =  2
   angular momentum for each species LDAUL =    -1    2   -1
   U (eV)           for each species LDAUU =   0.0  5.1  0.0
   J (eV)           for each species LDAUJ =   0.0  0.0  0.0
 Exchange correlation treatment:
   GGA     =    --    GGA type
   LEXCH   =     8    internal setting for exchange type
   VOSKOWN=      0    Vosko Wilk Nusair interpolation
   LHFCALC =     F    Hartree Fock is set to
   LHFONE  =     F    Hartree Fock one center treatment
   AEXX    =    0.0000 exact exchange contribution

 Linear response parameters
   LEPSILON=     F    determine dielectric tensor
   LRPA    =     F    only Hartree local field effects (RPA)
   LNABLA  =     F    use nabla operator in PAW spheres
   LVEL    =     F    velocity operator in full k-point grid
   LINTERFAST=   F  fast interpolation
   KINTER  =     0    interpolate to denser k-point grid
   CSHIFT  =0.1000    complex shift for real part using Kramers Kronig
   OMEGAMAX=  -1.0    maximum frequency
   DEG_THRESHOLD= 0.2000000E-02 threshold for treating states as degnerate
   RTIME   =   -0.100 relaxation time in fs
  (WPLASMAI=    0.000 imaginary part of plasma frequency in eV, 0.658/RTIME)
   DFIELD  = 0.0000000 0.0000000 0.0000000 field for delta impulse in time
 
 Orbital magnetization related:
   ORBITALMAG=     F  switch on orbital magnetization
   LCHIMAG   =     F  perturbation theory with respect to B field
   DQ        =  0.001000  dq finite difference perturbation B field
   LLRAUG    =     F  two centre corrections for induced B field



--------------------------------------------------------------------------------------------------------


 Static calculation
 charge density and potential will be updated during run
 spin polarized calculation
 Conjugate gradient for all bands (Freysoldt, et al. PRB 79, 241103 (2009))
 preconditioned conjugated gradient                                        
 perform sub-space diagonalisation
    before iterative eigenvector-optimisation
 modified Broyden-mixing scheme, WC =      100.0
 initial mixing is a Kerker type mixing with AMIX =  0.4000 and BMIX =      1.0000
 Hartree-type preconditioning will be used
 using additional bands           31
 real space projection scheme for non local part
 use partial core corrections
 no Harris-corrections to forces 
 use gradient corrections 
 use of overlap-Matrix (Vanderbilt PP)
 Gauss-broadening in eV      SIGMA  =   0.05


--------------------------------------------------------------------------------------------------------


  energy-cutoff  :      600.00
  volume of cell :      397.03
      direct lattice vectors                 reciprocal lattice vectors
     5.667304993  0.000000000  0.000000000     0.176450712  0.105899808  0.005457230
    -2.882937431  4.803562641  0.000000000     0.000000000  0.208178819  0.010199021
    -0.022235701 -0.714500606 14.584135056     0.000000000  0.000000000  0.068567659

  length of vectors
     5.667304993  5.602280097 14.601643773     0.205862586  0.208428503  0.068567659


 
 k-points in units of 2pi/SCALE and weight: read from INCAR                         
   0.01470423  0.02617322  0.01844660       0.028
   0.04411268  0.04382319  0.01935614       0.028
   0.07352113  0.06147315  0.02026568       0.028
  -0.07352113 -0.02677669  0.01571799       0.028
  -0.04411268 -0.00912672  0.01662753       0.028
  -0.01470423  0.00852325  0.01753706       0.028
   0.01470423  0.06086969  0.02014644       0.028
   0.04411268  0.07851966  0.02105598       0.028
   0.07352113  0.09616962  0.02196552       0.028
  -0.07352113  0.00791978  0.01741782       0.028
  -0.04411268  0.02556975  0.01832736       0.028
  -0.01470423  0.04321972  0.01923690       0.028
   0.01470423  0.09556616  0.02184628       0.028
   0.04411268  0.11321613  0.02275581       0.028
   0.07352113  0.13086609  0.02366535       0.028
  -0.07352113  0.04261625  0.01911766       0.028
  -0.04411268  0.06026622  0.02002720       0.028
  -0.01470423  0.07791619  0.02093674       0.028
   0.01470423 -0.07791619  0.01334709       0.028
   0.04411268 -0.06026622  0.01425663       0.028
   0.07352113 -0.04261625  0.01516617       0.028
  -0.07352113 -0.13086609  0.01061848       0.028
  -0.04411268 -0.11321613  0.01152802       0.028
  -0.01470423 -0.09556616  0.01243755       0.028
   0.01470423 -0.04321972  0.01504693       0.028
   0.04411268 -0.02556975  0.01595647       0.028
   0.07352113 -0.00791978  0.01686601       0.028
  -0.07352113 -0.09616962  0.01231831       0.028
  -0.04411268 -0.07851966  0.01322785       0.028
  -0.01470423 -0.06086969  0.01413739       0.028
   0.01470423 -0.00852325  0.01674677       0.028
   0.04411268  0.00912672  0.01765630       0.028
   0.07352113  0.02677669  0.01856584       0.028
  -0.07352113 -0.06147315  0.01401815       0.028
  -0.04411268 -0.04382319  0.01492769       0.028
  -0.01470423 -0.02617322  0.01583723       0.028
 
 k-points in reciprocal lattice and weights: read from INCAR                         
   0.08333333  0.08333333  0.25000000       0.028
   0.25000000  0.08333333  0.25000000       0.028
   0.41666667  0.08333333  0.25000000       0.028
  -0.41666667  0.08333333  0.25000000       0.028
  -0.25000000  0.08333333  0.25000000       0.028
  -0.08333333  0.08333333  0.25000000       0.028
   0.08333333  0.25000000  0.25000000       0.028
   0.25000000  0.25000000  0.25000000       0.028
   0.41666667  0.25000000  0.25000000       0.028
  -0.41666667  0.25000000  0.25000000       0.028
  -0.25000000  0.25000000  0.25000000       0.028
  -0.08333333  0.25000000  0.25000000       0.028
   0.08333333  0.41666667  0.25000000       0.028
   0.25000000  0.41666667  0.25000000       0.028
   0.41666667  0.41666667  0.25000000       0.028
  -0.41666667  0.41666667  0.25000000       0.028
  -0.25000000  0.41666667  0.25000000       0.028
  -0.08333333  0.41666667  0.25000000       0.028
   0.08333333 -0.41666667  0.25000000       0.028
   0.25000000 -0.41666667  0.25000000       0.028
   0.41666667 -0.41666667  0.25000000       0.028
  -0.41666667 -0.41666667  0.25000000       0.028
  -0.25000000 -0.41666667  0.25000000       0.028
  -0.08333333 -0.41666667  0.25000000       0.028
   0.08333333 -0.25000000  0.25000000       0.028
   0.25000000 -0.25000000  0.25000000       0.028
   0.41666667 -0.25000000  0.25000000       0.028
  -0.41666667 -0.25000000  0.25000000       0.028
  -0.25000000 -0.25000000  0.25000000       0.028
  -0.08333333 -0.25000000  0.25000000       0.028
   0.08333333 -0.08333333  0.25000000       0.028
   0.25000000 -0.08333333  0.25000000       0.028
   0.41666667 -0.08333333  0.25000000       0.028
  -0.41666667 -0.08333333  0.25000000       0.028
  -0.25000000 -0.08333333  0.25000000       0.028
  -0.08333333 -0.08333333  0.25000000       0.028
 
 position of ions in fractional coordinates (direct lattice) 
   0.88454442  0.70988731  0.00505001
   0.57694910  0.12476619  0.99450191
   0.74625180  0.03343328  0.32698204
   0.80025990  0.59457745  0.34302273
   0.20900545  0.39656117  0.65779698
   0.31756924  0.88680071  0.65528674
   0.08254081  0.21539396  0.17119425
   0.09592711  0.72629485  0.17384575
   0.58681897  0.20596213  0.17387250
   0.58725185  0.70964091  0.17696901
   0.00674079  0.97613641  0.49343894
   0.02767526  0.47627978  0.49692011
   0.51246954  0.98543239  0.49205866
   0.52708706  0.48762582  0.49777585
   0.39283560  0.31396092  0.83377246
   0.37897642  0.80200712  0.83373133
   0.89249128  0.31247564  0.82490665
   0.88575945  0.81912087  0.82815672
   0.92898473  0.88513675  0.24041947
   0.91628744  0.39378644  0.24460142
   0.44079843  0.89659517  0.24246484
   0.43171514  0.38203632  0.23946158
   0.26376112  0.05712663  0.10173726
   0.25080550  0.51478225  0.11091504
   0.74701159  0.02746737  0.10099536
   0.76029921  0.53720511  0.11417544
   0.36696856  0.17088714  0.56781906
   0.35584586  0.64420861  0.56548093
   0.86739109  0.15043191  0.56278348
   0.87515257  0.67000740  0.56292812
   0.19590706  0.29472308  0.42979785
   0.17804080  0.79640144  0.42661150
   0.70009792  0.31581896  0.42913345
   0.69446633  0.81768015  0.42327158
   0.21620434  0.47523920  0.90175042
   0.21803870  0.98106705  0.89796551
   0.71645472  0.47658544  0.90401315
   0.73627457  0.99178076  0.89903518
   0.06684828  0.13957679  0.75592075
   0.04516792  0.61359576  0.76238663
   0.56145051  0.15546436  0.76530766
   0.52693262  0.62199821  0.76975080
 
 position of ions in cartesian coordinates  (Angst):
   2.96631002  3.40637994  0.07365000
   2.88793993 -0.11125000 14.50395012
   4.12557983 -0.07303000  4.76875019
   2.81356001  2.61100006  5.00268984
   0.02661000  1.43491006  9.59340000
  -0.77139997  3.79159999  9.55679035
  -0.15699001  0.91233999  2.49672008
  -1.55408001  3.36458993  2.53538990
   2.72803998  0.86511999  2.53577995
   1.27835000  3.28236008  2.58094001
  -2.78691006  4.33636999  7.19638014
  -1.22729003  1.93279004  7.24714994
   0.05244000  4.38200998  7.17624998
   1.57029998  1.98668003  7.25963020
   1.30264997  0.91240001 12.15985012
  -0.18290000  3.25678992 12.15925026
   4.13883018  0.91159999 12.03055000
   2.63998008  3.34297991 12.07794952
   2.70770001  4.08002996  3.50630999
   4.05217981  1.71680999  3.56730008
  -0.09208000  4.13360977  3.53613997
   1.33994997  1.66403997  3.49234009
   1.32786000  0.20172000  1.48374999
  -0.06516000  2.39353991  1.61759996
   4.15211010  0.05978000  1.47292995
   2.75758004  2.49891996  1.66515005
   1.57444000  0.41516000  8.28114986
   0.14690000  2.69045997  8.24705029
   4.46957016  0.32049999  8.20771027
   3.01565003  2.81621003  8.20981979
   0.25104001  1.10862994  6.26822996
  -1.29645002  3.52075005  6.22175980
   3.04764009  1.21044004  6.25854015
   1.56902003  3.62535000  6.17304993
  -0.16484000  1.63854003 13.15124989
  -1.61263001  4.07102013 13.09605026
   2.66630006  1.64339006 13.18424988
   1.29346001  4.12171984 13.11165047
  -0.04035000  0.13036001 11.02445030
  -1.52993000  2.40271997 11.11874962
   2.71670008  0.19997001 11.16135025
   1.17598999  2.43781996 11.22614956
 


--------------------------------------------------------------------------------------------------------


 k-point  1 :   0.0833 0.0833 0.2500  plane waves:   13256
 k-point  2 :   0.2500 0.0833 0.2500  plane waves:   13271
 k-point  3 :   0.4167 0.0833 0.2500  plane waves:   13252
 k-point  4 :  -0.4167 0.0833 0.2500  plane waves:   13251
 k-point  5 :  -0.2500 0.0833 0.2500  plane waves:   13234
 k-point  6 :  -0.0833 0.0833 0.2500  plane waves:   13258
 k-point  7 :   0.0833 0.2500 0.2500  plane waves:   13262
 k-point  8 :   0.2500 0.2500 0.2500  plane waves:   13270
 k-point  9 :   0.4167 0.2500 0.2500  plane waves:   13266
 k-point 10 :  -0.4167 0.2500 0.2500  plane waves:   13234
 k-point 11 :  -0.2500 0.2500 0.2500  plane waves:   13235
 k-point 12 :  -0.0833 0.2500 0.2500  plane waves:   13260
 k-point 13 :   0.0833 0.4167 0.2500  plane waves:   13256
 k-point 14 :   0.2500 0.4167 0.2500  plane waves:   13268
 k-point 15 :   0.4167 0.4167 0.2500  plane waves:   13251
 k-point 16 :  -0.4167 0.4167 0.2500  plane waves:   13230
 k-point 17 :  -0.2500 0.4167 0.2500  plane waves:   13266
 k-point 18 :  -0.0833 0.4167 0.2500  plane waves:   13251
 k-point 19 :   0.0833-0.4167 0.2500  plane waves:   13278
 k-point 20 :   0.2500-0.4167 0.2500  plane waves:   13238
 k-point 21 :   0.4167-0.4167 0.2500  plane waves:   13252
 k-point 22 :  -0.4167-0.4167 0.2500  plane waves:   13252
 k-point 23 :  -0.2500-0.4167 0.2500  plane waves:   13262
 k-point 24 :  -0.0833-0.4167 0.2500  plane waves:   13258
 k-point 25 :   0.0833-0.2500 0.2500  plane waves:   13262
 k-point 26 :   0.2500-0.2500 0.2500  plane waves:   13228
 k-point 27 :   0.4167-0.2500 0.2500  plane waves:   13231
 k-point 28 :  -0.4167-0.2500 0.2500  plane waves:   13266
 k-point 29 :  -0.2500-0.2500 0.2500  plane waves:   13271
 k-point 30 :  -0.0833-0.2500 0.2500  plane waves:   13254
 k-point 31 :   0.0833-0.0833 0.2500  plane waves:   13233
 k-point 32 :   0.2500-0.0833 0.2500  plane waves:   13234
 k-point 33 :   0.4167-0.0833 0.2500  plane waves:   13234
 k-point 34 :  -0.4167-0.0833 0.2500  plane waves:   13260
 k-point 35 :  -0.2500-0.0833 0.2500  plane waves:   13246
 k-point 36 :  -0.0833-0.0833 0.2500  plane waves:   13258

 maximum and minimum number of plane-waves per node :      3338     3272

 maximum number of plane-waves:     13278
 maximum index in each direction: 
   IXMAX=   11   IYMAX=   11   IZMAX=   28
   IXMIN=  -11   IYMIN=  -11   IZMIN=  -29


 real space projection operators:
  total allocation   :       7463.05 KBytes
  max/ min on nodes  :       1868.73       1862.59


 parallel 3D FFT for wavefunctions:
    minimum data exchange during FFTs selected (reduces bandwidth)
 parallel 3D FFT for charge:
    minimum data exchange during FFTs selected (reduces bandwidth)


 total amount of memory used by VASP MPI-rank0   160388. kBytes
=======================================================================

   base      :      30000. kBytes
   nonlr-proj:       4274. kBytes
   fftplans  :       1689. kBytes
   grid      :       4644. kBytes
   one-center:        342. kBytes
   wavefun   :     119439. kBytes
 
     INWAV:  cpu time    0.0000: real time    0.0002
 Broyden mixing: mesh for mixing (old mesh)
   NGX = 23   NGY = 23   NGZ = 59
  (NGX  = 72   NGY  = 72   NGZ  =180)
  gives a total of  31211 points

 initial charge density was supplied:
 charge density of overlapping atoms calculated
 number of electron     258.0000000 magnetization       6.0000000
 keeping initial charge density in first step


--------------------------------------------------------------------------------------------------------


 Maximum index for non-local projection operator          689
 Maximum index for augmentation-charges          953 (set IRDMAX)


--------------------------------------------------------------------------------------------------------


 First call to EWALD:  gamma=   0.241
 Maximum number of real-space cells 4x 4x 2
 Maximum number of reciprocal cells 2x 2x 5

    FEWALD:  cpu time    0.0035: real time    0.0035


--------------------------------------- Iteration      1(   1)  ---------------------------------------


    POTLOK:  cpu time    0.0556: real time    0.0691
    SETDIJ:  cpu time    0.0171: real time    0.0173
    TRIAL :  cpu time   22.9520: real time   23.3338
    CORREC:  cpu time    0.0036: real time    0.0036
    --------------------------------------------
      LOOP:  cpu time   23.1920: real time   23.5879

 eigenvalue-minimisations  : 23040
 total energy-change (2. order) : 0.3480337E+04  (-0.1393479E+05)
 number of electron     258.0000000 magnetization       6.0000000
 augmentation part      258.0000000 magnetization       6.0000000

 Free energy of the ion-electron system (eV)
  ---------------------------------------------------
  alpha Z        PSCENC =       738.40390812
  Ewald energy   TEWEN  =    -13535.89297069
  -Hartree energ DENC   =     -7443.61913678
  -exchange      EXHF   =         0.00000000
  -V(xc)+E(xc)   XCENC  =       842.91828309
  PAW double counting   =     17015.18481625   -17491.61297812
  entropy T*S    EENTRO =        -0.00697305
  eigenvalues    EBANDS =      3186.09100856
  atomic energy  EATOM  =     20168.87094289
  ---------------------------------------------------
  free energy    TOTEN  =      3480.33690027 eV

  energy without entropy =     3480.34387331  energy(sigma->0) =     3480.34038679


--------------------------------------------------------------------------------------------------------




--------------------------------------- Iteration      1(   2)  ---------------------------------------


    TRIAL :  cpu time   23.8520: real time   24.1779
    CORREC:  cpu time    0.0042: real time    0.0042
    --------------------------------------------
      LOOP:  cpu time   23.8603: real time   24.1861

 eigenvalue-minimisations  : 24800
 total energy-change (2. order) :-0.3066918E+04  (-0.2828002E+04)
 number of electron     258.0000000 magnetization       6.0000000
 augmentation part      258.0000000 magnetization       6.0000000

 Free energy of the ion-electron system (eV)
  ---------------------------------------------------
  alpha Z        PSCENC =       738.40390812
  Ewald energy   TEWEN  =    -13535.89297069
  -Hartree energ DENC   =     -7443.61913678
  -exchange      EXHF   =         0.00000000
  -V(xc)+E(xc)   XCENC  =       842.91828309
  PAW double counting   =     17015.18481625   -17491.61297812
  entropy T*S    EENTRO =        -0.02080694
  eigenvalues    EBANDS =       119.18668082
  atomic energy  EATOM  =     20168.87094289
  ---------------------------------------------------
  free energy    TOTEN  =       413.41873863 eV

  energy without entropy =      413.43954557  energy(sigma->0) =      413.42914210


--------------------------------------------------------------------------------------------------------




--------------------------------------- Iteration      1(   3)  ---------------------------------------


    TRIAL :  cpu time   25.2904: real time   25.4517
    CORREC:  cpu time    0.0042: real time    0.0042
    --------------------------------------------
      LOOP:  cpu time   25.2984: real time   25.4597

 eigenvalue-minimisations  : 26192
 total energy-change (2. order) :-0.6326850E+03  (-0.5776743E+03)
 number of electron     258.0000000 magnetization       6.0000000
 augmentation part      258.0000000 magnetization       6.0000000

 Free energy of the ion-electron system (eV)
  ---------------------------------------------------
  alpha Z        PSCENC =       738.40390812
  Ewald energy   TEWEN  =    -13535.89297069
  -Hartree energ DENC   =     -7443.61913678
  -exchange      EXHF   =         0.00000000
  -V(xc)+E(xc)   XCENC  =       842.91828309
  PAW double counting   =     17015.18481625   -17491.61297812
  entropy T*S    EENTRO =        -0.04028936
  eigenvalues    EBANDS =      -513.47880682
  atomic energy  EATOM  =     20168.87094289
  ---------------------------------------------------
  free energy    TOTEN  =      -219.26623143 eV

  energy without entropy =     -219.22594206  energy(sigma->0) =     -219.24608675


--------------------------------------------------------------------------------------------------------




--------------------------------------- Iteration      1(   4)  ---------------------------------------


    TRIAL :  cpu time   24.6859: real time   24.8070
    CORREC:  cpu time    0.0034: real time    0.0034
    --------------------------------------------
      LOOP:  cpu time   24.6932: real time   24.8143

 eigenvalue-minimisations  : 25248
 total energy-change (2. order) :-0.5105763E+02  (-0.4994846E+02)
 number of electron     258.0000000 magnetization       6.0000000
 augmentation part      258.0000000 magnetization       6.0000000

 Free energy of the ion-electron system (eV)
  ---------------------------------------------------
  alpha Z        PSCENC =       738.40390812
  Ewald energy   TEWEN  =    -13535.89297069
  -Hartree energ DENC   =     -7443.61913678
  -exchange      EXHF   =         0.00000000
  -V(xc)+E(xc)   XCENC  =       842.91828309
  PAW double counting   =     17015.18481625   -17491.61297812
  entropy T*S    EENTRO =        -0.05143522
  eigenvalues    EBANDS =      -564.52528731
  atomic energy  EATOM  =     20168.87094289
  ---------------------------------------------------
  free energy    TOTEN  =      -270.32385777 eV

  energy without entropy =     -270.27242256  energy(sigma->0) =     -270.29814017


--------------------------------------------------------------------------------------------------------




--------------------------------------- Iteration      1(   5)  ---------------------------------------


    TRIAL :  cpu time   26.7874: real time   26.9033
    CORREC:  cpu time    0.0037: real time    0.0037
    CHARGE:  cpu time    0.5107: real time    0.5130
    --------------------------------------------
      LOOP:  cpu time   27.3058: real time   27.4241

 eigenvalue-minimisations  : 28448
 total energy-change (2. order) :-0.1756713E+01  (-0.1753620E+01)
 number of electron     257.9999964 magnetization       5.9999998
 augmentation part       68.1313660 magnetization       4.3246400

 Free energy of the ion-electron system (eV)
  ---------------------------------------------------
  alpha Z        PSCENC =       738.40390812
  Ewald energy   TEWEN  =    -13535.89297069
  -Hartree energ DENC   =     -7443.61913678
  -exchange      EXHF   =         0.00000000
  -V(xc)+E(xc)   XCENC  =       842.91828309
  PAW double counting   =     17015.18481625   -17491.61297812
  entropy T*S    EENTRO =        -0.05212710
  eigenvalues    EBANDS =      -566.28130811
  atomic energy  EATOM  =     20168.87094289
  ---------------------------------------------------
  free energy    TOTEN  =      -272.08057046 eV

  energy without entropy =     -272.02844336  energy(sigma->0) =     -272.05450691


--------------------------------------------------------------------------------------------------------




--------------------------------------- Iteration      1(   6)  ---------------------------------------


    POTLOK:  cpu time    0.0447: real time    0.0447
    SETDIJ:  cpu time    0.0122: real time    0.0122
    TRIAL :  cpu time   13.2270: real time   13.2385
    CORREC:  cpu time    4.5790: real time    4.5832
    CHARGE:  cpu time    0.5115: real time    0.5119
    --------------------------------------------
      LOOP:  cpu time   18.3785: real time   18.3953

 eigenvalue-minimisations  :     0
 total energy-change (2. order) : 0.3488346E+03  (-0.2060387E+03)
 number of electron     257.9999958 magnetization       6.0000006
 augmentation part       71.5287336 magnetization       4.4524458

 Free energy of the ion-electron system (eV)
  ---------------------------------------------------
  alpha Z        PSCENC =       738.40390812
  Ewald energy   TEWEN  =    -13535.89297069
  -Hartree energ DENC   =     -7143.94817034
  -exchange      EXHF   =         0.00000000
  -V(xc)+E(xc)   XCENC  =       877.32146036
  PAW double counting   =     23830.65376203   -24040.06596617
  entropy T*S    EENTRO =        -0.03203574
  eigenvalues    EBANDS =      -818.53685472
  atomic energy  EATOM  =     20168.87094289
  ---------------------------------------------------
  free energy    TOTEN  =        76.75398436 eV

  energy without entropy =       76.78602009  energy(sigma->0) =       76.77000222


--------------------------------------------------------------------------------------------------------




--------------------------------------- Iteration      1(   7)  ---------------------------------------


    POTLOK:  cpu time    0.0446: real time    0.0449
    SETDIJ:  cpu time    0.0123: real time    0.0123
    TRIAL :  cpu time   13.1554: real time   13.2428
    CORREC:  cpu time    4.3920: real time    4.4267
    CHARGE:  cpu time    0.5034: real time    0.5077
    --------------------------------------------
      LOOP:  cpu time   18.1118: real time   18.2385

 eigenvalue-minimisations  :     0
 total energy-change (2. order) :-0.8708727E+02  (-0.3986181E+03)
 number of electron     257.9999969 magnetization       5.9999995
 augmentation part       73.2408911 magnetization       3.4686931

 Free energy of the ion-electron system (eV)
  ---------------------------------------------------
  alpha Z        PSCENC =       738.40390812
  Ewald energy   TEWEN  =    -13535.89297069
  -Hartree energ DENC   =     -7143.64851834
  -exchange      EXHF   =         0.00000000
  -V(xc)+E(xc)   XCENC  =       866.81720796
  PAW double counting   =     23985.85452856   -24331.57917554
  entropy T*S    EENTRO =        -0.02516641
  eigenvalues    EBANDS =      -759.12717013
  atomic energy  EATOM  =     20168.87094289
  ---------------------------------------------------
  free energy    TOTEN  =       -10.33328291 eV

  energy without entropy =      -10.30811650  energy(sigma->0) =      -10.32069971


--------------------------------------------------------------------------------------------------------




--------------------------------------- Iteration      1(   8)  ---------------------------------------


    POTLOK:  cpu time    0.0438: real time    0.0440
    SETDIJ:  cpu time    0.0121: real time    0.0122
    TRIAL :  cpu time   13.0291: real time   13.1711
    CORREC:  cpu time    4.3655: real time    4.4006
    CHARGE:  cpu time    0.5048: real time    0.5088
    --------------------------------------------
      LOOP:  cpu time   17.9599: real time   18.1414

 eigenvalue-minimisations  :     0
 total energy-change (2. order) :-0.7323769E-01  (-0.1896047E+03)
 number of electron     257.9999967 magnetization       5.9999999
 augmentation part       75.9111732 magnetization       2.2669834

 Free energy of the ion-electron system (eV)
  ---------------------------------------------------
  alpha Z        PSCENC =       738.40390812
  Ewald energy   TEWEN  =    -13535.89297069
  -Hartree energ DENC   =     -7109.37291020
  -exchange      EXHF   =         0.00000000
  -V(xc)+E(xc)   XCENC  =       843.36536825
  PAW double counting   =     23917.89465087   -24341.75165406
  entropy T*S    EENTRO =        -0.02209060
  eigenvalues    EBANDS =      -691.89868936
  atomic energy  EATOM  =     20168.87094289
  ---------------------------------------------------
  free energy    TOTEN  =       -10.40652060 eV

  energy without entropy =      -10.38443000  energy(sigma->0) =      -10.39547530


--------------------------------------------------------------------------------------------------------




--------------------------------------- Iteration      1(   9)  ---------------------------------------


    POTLOK:  cpu time    0.0441: real time    0.0443
    SETDIJ:  cpu time    0.0121: real time    0.0122
    TRIAL :  cpu time   13.0578: real time   13.2734
    CORREC:  cpu time    4.3835: real time    4.4519
    CHARGE:  cpu time    0.5087: real time    0.5165
    --------------------------------------------
      LOOP:  cpu time   18.0103: real time   18.3024

 eigenvalue-minimisations  :     0
 total energy-change (2. order) :-0.2690770E+02  (-0.5697140E+02)
 number of electron     257.9999967 magnetization       5.9999999
 augmentation part       78.6402248 magnetization       2.1225152

 Free energy of the ion-electron system (eV)
  ---------------------------------------------------
  alpha Z        PSCENC =       738.40390812
  Ewald energy   TEWEN  =    -13535.89297069
  -Hartree energ DENC   =     -7245.00602252
  -exchange      EXHF   =         0.00000000
  -V(xc)+E(xc)   XCENC  =       832.19889374
  PAW double counting   =     26278.69987124   -26801.07467548
  entropy T*S    EENTRO =        -0.02226596
  eigenvalues    EBANDS =      -473.49207512
  atomic energy  EATOM  =     20168.87094289
  ---------------------------------------------------
  free energy    TOTEN  =       -37.31421844 eV

  energy without entropy =      -37.29195247  energy(sigma->0) =      -37.30308546


--------------------------------------------------------------------------------------------------------




--------------------------------------- Iteration      1(  10)  ---------------------------------------


    POTLOK:  cpu time    0.0438: real time    0.0442
    SETDIJ:  cpu time    0.0123: real time    0.0123
    TRIAL :  cpu time   13.0223: real time   13.2394
    CORREC:  cpu time    4.3637: real time    4.4324
    CHARGE:  cpu time    0.6132: real time    0.6198
    --------------------------------------------
      LOOP:  cpu time   18.0596: real time   18.3524

 eigenvalue-minimisations  :     0
 total energy-change (2. order) :-0.3361007E+02  (-0.7588475E+02)
 number of electron     257.9999969 magnetization       5.9999997
 augmentation part       79.0187537 magnetization       2.2628674

 Free energy of the ion-electron system (eV)
  ---------------------------------------------------
  alpha Z        PSCENC =       738.40390812
  Ewald energy   TEWEN  =    -13535.89297069
  -Hartree energ DENC   =     -7458.09907928
  -exchange      EXHF   =         0.00000000
  -V(xc)+E(xc)   XCENC  =       837.53415925
  PAW double counting   =     24890.60449331   -25509.75248810
  entropy T*S    EENTRO =        -0.02603086
  eigenvalues    EBANDS =      -202.57099099
  atomic energy  EATOM  =     20168.87094289
  ---------------------------------------------------
  free energy    TOTEN  =       -70.92429145 eV

  energy without entropy =      -70.89826059  energy(sigma->0) =      -70.91127602


--------------------------------------------------------------------------------------------------------




--------------------------------------- Iteration      1(  11)  ---------------------------------------


    POTLOK:  cpu time    0.0612: real time    0.0615
    SETDIJ:  cpu time    0.0116: real time    0.0124
    TRIAL :  cpu time   12.9386: real time   13.0981
    CORREC:  cpu time    4.5487: real time    4.5783
    CHARGE:  cpu time    0.5040: real time    0.5059
    --------------------------------------------
      LOOP:  cpu time   18.0683: real time   18.2604

 eigenvalue-minimisations  :     0
 total energy-change (2. order) :-0.5040096E+02  (-0.7029695E+02)
 number of electron     257.9999968 magnetization       5.9999999
 augmentation part       76.7238977 magnetization       2.8673926

 Free energy of the ion-electron system (eV)
  ---------------------------------------------------
  alpha Z        PSCENC =       738.40390812
  Ewald energy   TEWEN  =    -13535.89297069
  -Hartree energ DENC   =     -7634.65646553
  -exchange      EXHF   =         0.00000000
  -V(xc)+E(xc)   XCENC  =       844.14766767
  PAW double counting   =     24271.70063058   -24891.11219821
  entropy T*S    EENTRO =        -0.02511216
  eigenvalues    EBANDS =       -82.76073128
  atomic energy  EATOM  =     20168.87094289
  ---------------------------------------------------
  free energy    TOTEN  =      -121.32524733 eV

  energy without entropy =     -121.30013517  energy(sigma->0) =     -121.31269125


--------------------------------------------------------------------------------------------------------




--------------------------------------- Iteration      1(  12)  ---------------------------------------


    POTLOK:  cpu time    0.0441: real time    0.0446
    SETDIJ:  cpu time    0.0121: real time    0.0122
    TRIAL :  cpu time   13.1356: real time   13.2039
    CORREC:  cpu time    4.4439: real time    4.4546
    CHARGE:  cpu time    0.5018: real time    0.5028
    --------------------------------------------
      LOOP:  cpu time   18.1418: real time   18.2227

 eigenvalue-minimisations  :     0
 total energy-change (2. order) :-0.5286954E+02  (-0.3430928E+02)
 number of electron     257.9999967 magnetization       5.9999999
 augmentation part       75.2410294 magnetization       3.1355317

 Free energy of the ion-electron system (eV)
  ---------------------------------------------------
  alpha Z        PSCENC =       738.40390812
  Ewald energy   TEWEN  =    -13535.89297069
  -Hartree energ DENC   =     -7564.35587274
  -exchange      EXHF   =         0.00000000
  -V(xc)+E(xc)   XCENC  =       848.44139533
  PAW double counting   =     24642.83858790   -25152.09277421
  entropy T*S    EENTRO =        -0.02402172
  eigenvalues    EBANDS =      -320.38288856
  atomic energy  EATOM  =     20168.87094289
  ---------------------------------------------------
  free energy    TOTEN  =      -174.19478412 eV

  energy without entropy =     -174.17076240  energy(sigma->0) =     -174.18277326


--------------------------------------------------------------------------------------------------------




--------------------------------------- Iteration      1(  13)  ---------------------------------------


    POTLOK:  cpu time    0.0442: real time    0.0442
    SETDIJ:  cpu time    0.0122: real time    0.0122
    TRIAL :  cpu time   13.1433: real time   13.2791
    CORREC:  cpu time    4.3719: real time    4.4109
    CHARGE:  cpu time    0.5147: real time    0.5159
    --------------------------------------------
      LOOP:  cpu time   18.0903: real time   18.2664

 eigenvalue-minimisations  :     0
 total energy-change (2. order) :-0.6376495E+01  (-0.4178132E+02)
 number of electron     257.9999969 magnetization       5.9999997
 augmentation part       75.4953881 magnetization       3.2426954

 Free energy of the ion-electron system (eV)
  ---------------------------------------------------
  alpha Z        PSCENC =       738.40390812
  Ewald energy   TEWEN  =    -13535.89297069
  -Hartree energ DENC   =     -7411.08738967
  -exchange      EXHF   =         0.00000000
  -V(xc)+E(xc)   XCENC  =       850.82961290
  PAW double counting   =     25127.66464570   -25570.42256989
  entropy T*S    EENTRO =        -0.01769337
  eigenvalues    EBANDS =      -548.91343636
  atomic energy  EATOM  =     20168.87094289
  ---------------------------------------------------
  free energy    TOTEN  =      -180.57127873 eV

  energy without entropy =     -180.55358537  energy(sigma->0) =     -180.56243205


--------------------------------------------------------------------------------------------------------




--------------------------------------- Iteration      1(  14)  ---------------------------------------


    POTLOK:  cpu time    0.0440: real time    0.0442
    SETDIJ:  cpu time    0.0123: real time    0.0123
    TRIAL :  cpu time   13.0929: real time   13.2308
    CORREC:  cpu time    4.4041: real time    4.4350
    CHARGE:  cpu time    0.5069: real time    0.5098
    --------------------------------------------
      LOOP:  cpu time   18.0644: real time   18.2362

 eigenvalue-minimisations  :     0
 total energy-change (2. order) : 0.1013056E+02  (-0.2161625E+02)
 number of electron     257.9999968 magnetization       5.9999998
 augmentation part       75.6171305 magnetization       3.1950009

 Free energy of the ion-electron system (eV)
  ---------------------------------------------------
  alpha Z        PSCENC =       738.40390812
  Ewald energy   TEWEN  =    -13535.89297069
  -Hartree energ DENC   =     -7528.08715582
  -exchange      EXHF   =         0.00000000
  -V(xc)+E(xc)   XCENC  =       851.33304278
  PAW double counting   =     24881.55065101   -25333.77072716
  entropy T*S    EENTRO =        -0.02646987
  eigenvalues    EBANDS =      -412.83071289
  atomic energy  EATOM  =     20168.87094289
  ---------------------------------------------------
  free energy    TOTEN  =      -170.44071513 eV

  energy without entropy =     -170.41424525  energy(sigma->0) =     -170.42748019


--------------------------------------------------------------------------------------------------------




--------------------------------------- Iteration      1(  15)  ---------------------------------------


    POTLOK:  cpu time    0.0442: real time    0.0452
    SETDIJ:  cpu time    0.0122: real time    0.0122
    TRIAL :  cpu time   13.0940: real time   13.1932
    CORREC:  cpu time    4.5311: real time    4.5978
    CHARGE:  cpu time    0.5089: real time    0.5121
    --------------------------------------------
      LOOP:  cpu time   18.1945: real time   18.3647

 eigenvalue-minimisations  :     0
 total energy-change (2. order) :-0.3206404E+02  (-0.3364672E+01)
 number of electron     257.9999967 magnetization       5.9999999
 augmentation part       75.7237368 magnetization       3.2230961

 Free energy of the ion-electron system (eV)
  ---------------------------------------------------
  alpha Z        PSCENC =       738.40390812
  Ewald energy   TEWEN  =    -13535.89297069
  -Hartree energ DENC   =     -7446.54857691
  -exchange      EXHF   =         0.00000000
  -V(xc)+E(xc)   XCENC  =       851.07840164
  PAW double counting   =     24793.31902280   -25247.69214507
  entropy T*S    EENTRO =        -0.02597415
  eigenvalues    EBANDS =      -524.01686540
  atomic energy  EATOM  =     20168.87094289
  ---------------------------------------------------
  free energy    TOTEN  =      -202.50475250 eV

  energy without entropy =     -202.47877835  energy(sigma->0) =     -202.49176542


--------------------------------------------------------------------------------------------------------




--------------------------------------- Iteration      1(  16)  ---------------------------------------


    POTLOK:  cpu time    0.0439: real time    0.0445
    SETDIJ:  cpu time    0.0124: real time    0.0124
    TRIAL :  cpu time   12.9706: real time   13.0382
    CORREC:  cpu time    4.5783: real time    4.5929
    CHARGE:  cpu time    0.5125: real time    0.5138
    --------------------------------------------
      LOOP:  cpu time   18.1221: real time   18.2063

 eigenvalue-minimisations  :     0
 total energy-change (2. order) :-0.2827175E+01  (-0.5287134E+01)
 number of electron     257.9999966 magnetization       6.0000000
 augmentation part       76.0753362 magnetization       3.3182386

 Free energy of the ion-electron system (eV)
  ---------------------------------------------------
  alpha Z        PSCENC =       738.40390812
  Ewald energy   TEWEN  =    -13535.89297069
  -Hartree energ DENC   =     -7432.90573076
  -exchange      EXHF   =         0.00000000
  -V(xc)+E(xc)   XCENC  =       851.24573951
  PAW double counting   =     24665.34923338   -25122.81935943
  entropy T*S    EENTRO =        -0.02600806
  eigenvalues    EBANDS =      -537.55771602
  atomic energy  EATOM  =     20168.87094289
  ---------------------------------------------------
  free energy    TOTEN  =      -205.33192714 eV

  energy without entropy =     -205.30591908  energy(sigma->0) =     -205.31892311


--------------------------------------------------------------------------------------------------------




--------------------------------------- Iteration      1(  17)  ---------------------------------------


    POTLOK:  cpu time    0.0444: real time    0.0445
    SETDIJ:  cpu time    0.0122: real time    0.0122
    TRIAL :  cpu time   13.1209: real time   13.1787
    CORREC:  cpu time    4.4054: real time    4.4366
    CHARGE:  cpu time    0.5012: real time    0.5030
    --------------------------------------------
      LOOP:  cpu time   18.0883: real time   18.1792

 eigenvalue-minimisations  :     0
 total energy-change (2. order) :-0.4652069E+01  (-0.6754357E+01)
 number of electron     257.9999966 magnetization       5.9999999
 augmentation part       76.3773024 magnetization       3.3465869

 Free energy of the ion-electron system (eV)
  ---------------------------------------------------
  alpha Z        PSCENC =       738.40390812
  Ewald energy   TEWEN  =    -13535.89297069
  -Hartree energ DENC   =     -7437.11618500
  -exchange      EXHF   =         0.00000000
  -V(xc)+E(xc)   XCENC  =       851.75047756
  PAW double counting   =     24279.74221638   -24747.25318542
  entropy T*S    EENTRO =        -0.02526936
  eigenvalues    EBANDS =      -528.46319147
  atomic energy  EATOM  =     20168.87094289
  ---------------------------------------------------
  free energy    TOTEN  =      -209.98399568 eV

  energy without entropy =     -209.95872633  energy(sigma->0) =     -209.97136100


--------------------------------------------------------------------------------------------------------




--------------------------------------- Iteration      1(  18)  ---------------------------------------


    POTLOK:  cpu time    0.0522: real time    0.0525
    SETDIJ:  cpu time    0.0121: real time    0.0121
    TRIAL :  cpu time   13.0681: real time   13.1931
    CORREC:  cpu time    4.3944: real time    4.4249
    CHARGE:  cpu time    0.5080: real time    0.5096
    --------------------------------------------
      LOOP:  cpu time   18.0374: real time   18.1949

 eigenvalue-minimisations  :     0
 total energy-change (2. order) :-0.4224484E+01  (-0.2082620E+01)
 number of electron     257.9999967 magnetization       5.9999999
 augmentation part       76.4380606 magnetization       3.3662321

 Free energy of the ion-electron system (eV)
  ---------------------------------------------------
  alpha Z        PSCENC =       738.40390812
  Ewald energy   TEWEN  =    -13535.89297069
  -Hartree energ DENC   =     -7441.77655769
  -exchange      EXHF   =         0.00000000
  -V(xc)+E(xc)   XCENC  =       851.84358107
  PAW double counting   =     23963.69163641   -24439.26339451
  entropy T*S    EENTRO =        -0.02573672
  eigenvalues    EBANDS =      -520.06035616
  atomic energy  EATOM  =     20168.87094289
  ---------------------------------------------------
  free energy    TOTEN  =      -214.20847994 eV

  energy without entropy =     -214.18274322  energy(sigma->0) =     -214.19561158


--------------------------------------------------------------------------------------------------------




--------------------------------------- Iteration      1(  19)  ---------------------------------------


    POTLOK:  cpu time    0.0438: real time    0.0438
    SETDIJ:  cpu time    0.0121: real time    0.0121
    TRIAL :  cpu time   13.1734: real time   13.2646
    CORREC:  cpu time    4.3845: real time    4.4140
    CHARGE:  cpu time    0.5157: real time    0.5170
    --------------------------------------------
      LOOP:  cpu time   18.1337: real time   18.2557

 eigenvalue-minimisations  :     0
 total energy-change (2. order) :-0.1890543E+01  (-0.9852370E+00)
 number of electron     257.9999967 magnetization       5.9999998
 augmentation part       76.3982929 magnetization       3.3970547

 Free energy of the ion-electron system (eV)
  ---------------------------------------------------
  alpha Z        PSCENC =       738.40390812
  Ewald energy   TEWEN  =    -13535.89297069
  -Hartree energ DENC   =     -7425.71057962
  -exchange      EXHF   =         0.00000000
  -V(xc)+E(xc)   XCENC  =       851.84566007
  PAW double counting   =     23869.61954584   -24346.44404738
  entropy T*S    EENTRO =        -0.02505191
  eigenvalues    EBANDS =      -536.76574532
  atomic energy  EATOM  =     20168.87094289
  ---------------------------------------------------
  free energy    TOTEN  =      -216.09902281 eV

  energy without entropy =     -216.07397091  energy(sigma->0) =     -216.08649686


--------------------------------------------------------------------------------------------------------




--------------------------------------- Iteration      1(  20)  ---------------------------------------


    POTLOK:  cpu time    0.0443: real time    0.0444
    SETDIJ:  cpu time    0.0122: real time    0.0122
    TRIAL :  cpu time   13.2040: real time   13.2505
    CORREC:  cpu time    4.5703: real time    4.5823
    CHARGE:  cpu time    0.5124: real time    0.5136
    --------------------------------------------
      LOOP:  cpu time   18.3473: real time   18.4072

 eigenvalue-minimisations  :     0
 total energy-change (2. order) :-0.6495675E+00  (-0.1050914E+01)
 number of electron     257.9999967 magnetization       5.9999998
 augmentation part       76.2439000 magnetization       3.4669365

 Free energy of the ion-electron system (eV)
  ---------------------------------------------------
  alpha Z        PSCENC =       738.40390812
  Ewald energy   TEWEN  =    -13535.89297069
  -Hartree energ DENC   =     -7409.88173747
  -exchange      EXHF   =         0.00000000
  -V(xc)+E(xc)   XCENC  =       851.93132620
  PAW double counting   =     23838.41460526   -24313.51867421
  entropy T*S    EENTRO =        -0.02345873
  eigenvalues    EBANDS =      -555.05093848
  atomic energy  EATOM  =     20168.87094289
  ---------------------------------------------------
  free energy    TOTEN  =      -216.74859029 eV

  energy without entropy =     -216.72513156  energy(sigma->0) =     -216.73686092


--------------------------------------------------------------------------------------------------------




--------------------------------------- Iteration      1(  21)  ---------------------------------------


    POTLOK:  cpu time    0.0437: real time    0.0439
    SETDIJ:  cpu time    0.0123: real time    0.0123
    TRIAL :  cpu time   13.1266: real time   13.1923
    CORREC:  cpu time    4.3827: real time    4.4172
    CHARGE:  cpu time    0.5128: real time    0.5143
    --------------------------------------------
      LOOP:  cpu time   18.0820: real time   18.1840

 eigenvalue-minimisations  :     0
 total energy-change (2. order) :-0.8611706E+00  (-0.1781843E+01)
 number of electron     257.9999967 magnetization       5.9999998
 augmentation part       76.0868596 magnetization       3.5303540

 Free energy of the ion-electron system (eV)
  ---------------------------------------------------
  alpha Z        PSCENC =       738.40390812
  Ewald energy   TEWEN  =    -13535.89297069
  -Hartree energ DENC   =     -7394.10281947
  -exchange      EXHF   =         0.00000000
  -V(xc)+E(xc)   XCENC  =       852.15893249
  PAW double counting   =     23789.75297067   -24258.83256623
  entropy T*S    EENTRO =        -0.02425235
  eigenvalues    EBANDS =      -577.94469996
  atomic energy  EATOM  =     20168.87094289
  ---------------------------------------------------
  free energy    TOTEN  =      -217.60976092 eV

  energy without entropy =     -217.58550857  energy(sigma->0) =     -217.59763474


--------------------------------------------------------------------------------------------------------




--------------------------------------- Iteration      1(  22)  ---------------------------------------


    POTLOK:  cpu time    0.0442: real time    0.0443
    SETDIJ:  cpu time    0.0121: real time    0.0121
    TRIAL :  cpu time   13.1329: real time   13.1831
    CORREC:  cpu time    4.4022: real time    4.4416
    CHARGE:  cpu time    0.4917: real time    0.4967
    --------------------------------------------
      LOOP:  cpu time   18.0872: real time   18.1819

 eigenvalue-minimisations  :     0
 total energy-change (2. order) :-0.1210207E+01  (-0.3285603E+00)
 number of electron     257.9999967 magnetization       5.9999998
 augmentation part       76.0887158 magnetization       3.5374902

 Free energy of the ion-electron system (eV)
  ---------------------------------------------------
  alpha Z        PSCENC =       738.40390812
  Ewald energy   TEWEN  =    -13535.89297069
  -Hartree energ DENC   =     -7392.47141085
  -exchange      EXHF   =         0.00000000
  -V(xc)+E(xc)   XCENC  =       852.40851774
  PAW double counting   =     23755.19092251   -24218.34199987
  entropy T*S    EENTRO =        -0.02490831
  eigenvalues    EBANDS =      -586.96362496
  atomic energy  EATOM  =     20168.87094289
  ---------------------------------------------------
  free energy    TOTEN  =      -218.81996746 eV

  energy without entropy =     -218.79505914  energy(sigma->0) =     -218.80751330


--------------------------------------------------------------------------------------------------------




--------------------------------------- Iteration      1(  23)  ---------------------------------------


    POTLOK:  cpu time    0.0438: real time    0.0441
    SETDIJ:  cpu time    0.0120: real time    0.0121
    TRIAL :  cpu time   13.1573: real time   13.3353
    CORREC:  cpu time    4.3909: real time    4.4066
    CHARGE:  cpu time    0.5084: real time    0.5098
    --------------------------------------------
      LOOP:  cpu time   18.1166: real time   18.3120

 eigenvalue-minimisations  :     0
 total energy-change (2. order) :-0.2555814E+00  (-0.8504423E+00)
 number of electron     257.9999967 magnetization       5.9999998
 augmentation part       76.1949472 magnetization       3.5378031

 Free energy of the ion-electron system (eV)
  ---------------------------------------------------
  alpha Z        PSCENC =       738.40390812
  Ewald energy   TEWEN  =    -13535.89297069
  -Hartree energ DENC   =     -7400.70550166
  -exchange      EXHF   =         0.00000000
  -V(xc)+E(xc)   XCENC  =       852.46282939
  PAW double counting   =     23762.78785070   -24226.17448461
  entropy T*S    EENTRO =        -0.02540684
  eigenvalues    EBANDS =      -578.80321470
  atomic energy  EATOM  =     20168.87094289
  ---------------------------------------------------
  free energy    TOTEN  =      -219.07554890 eV

  energy without entropy =     -219.05014206  energy(sigma->0) =     -219.06284548


--------------------------------------------------------------------------------------------------------




--------------------------------------- Iteration      1(  24)  ---------------------------------------


    POTLOK:  cpu time    0.0447: real time    0.0450
    SETDIJ:  cpu time    0.0122: real time    0.0123
    TRIAL :  cpu time   13.0952: real time   13.2121
    CORREC:  cpu time    4.5458: real time    4.5863
    CHARGE:  cpu time    0.5074: real time    0.5124
    --------------------------------------------
      LOOP:  cpu time   18.2097: real time   18.3722

 eigenvalue-minimisations  :     0
 total energy-change (2. order) :-0.8320791E+00  (-0.5524877E+00)
 number of electron     257.9999967 magnetization       5.9999999
 augmentation part       76.2481332 magnetization       3.5447284

 Free energy of the ion-electron system (eV)
  ---------------------------------------------------
  alpha Z        PSCENC =       738.40390812
  Ewald energy   TEWEN  =    -13535.89297069
  -Hartree energ DENC   =     -7427.15690059
  -exchange      EXHF   =         0.00000000
  -V(xc)+E(xc)   XCENC  =       852.57959702
  PAW double counting   =     23829.31951564   -24297.76334113
  entropy T*S    EENTRO =        -0.02228116
  eigenvalues    EBANDS =      -548.24297245
  atomic energy  EATOM  =     20168.87094289
  ---------------------------------------------------
  free energy    TOTEN  =      -219.90762804 eV

  energy without entropy =     -219.88534688  energy(sigma->0) =     -219.89648746


--------------------------------------------------------------------------------------------------------




--------------------------------------- Iteration      1(  25)  ---------------------------------------


    POTLOK:  cpu time    0.0438: real time    0.0441
    SETDIJ:  cpu time    0.0122: real time    0.0123
    TRIAL :  cpu time   12.9945: real time   13.0625
    CORREC:  cpu time    4.4681: real time    4.5024
    CHARGE:  cpu time    0.5096: real time    0.5113
    --------------------------------------------
      LOOP:  cpu time   18.0324: real time   18.1367

 eigenvalue-minimisations  :     0
 total energy-change (2. order) :-0.5175104E+00  (-0.4577499E+00)
 number of electron     257.9999967 magnetization       5.9999998
 augmentation part       76.2101481 magnetization       3.5600433

 Free energy of the ion-electron system (eV)
  ---------------------------------------------------
[...]
   20        1.568   3.408   0.000   4.976
   21        1.568   3.443   0.000   5.011
   22        1.576   3.383   0.000   4.960
   23        1.571   3.391   0.000   4.962
   24        1.579   3.407   0.000   4.985
   25        1.569   3.402   0.000   4.971
   26        1.563   3.488   0.000   5.051
   27        1.566   3.408   0.000   4.974
   28        1.559   3.486   0.000   5.045
   29        1.575   3.402   0.000   4.977
   30        1.578   3.380   0.000   4.958
   31        1.580   3.378   0.000   4.958
   32        1.576   3.383   0.000   4.959
   33        1.564   3.458   0.000   5.021
   34        1.562   3.476   0.000   5.038
   35        1.583   3.347   0.000   4.930
   36        1.564   3.435   0.000   4.999
   37        1.564   3.429   0.000   4.993
   38        1.567   3.421   0.000   4.987
   39        1.570   3.394   0.000   4.964
   40        1.566   3.445   0.000   5.011
   41        1.570   3.419   0.000   4.990
   42        1.569   3.445   0.000   5.014
--------------------------------------------------
tot         43.617  91.808  87.658 223.083
 


 magnetization (x)
 
# of ion       s       p       d       tot
------------------------------------------
    1       -0.000  -0.002   0.000  -0.002
    2        0.000  -0.000   0.000  -0.000
    3        0.001   0.001   0.000   0.002
    4        0.000  -0.001   0.000  -0.001
    5        0.001   0.000   0.000   0.001
    6        0.000  -0.000   0.000  -0.000
    7        0.010   0.011   1.294   1.315
    8        0.004   0.005   0.005   0.014
    9        0.010   0.013   1.249   1.271
   10        0.004   0.006  -0.011   0.000
   11        0.011   0.015   1.234   1.260
   12        0.012   0.015   1.337   1.364
   13        0.003   0.003   0.003   0.009
   14        0.003   0.004   0.003   0.011
   15        0.009   0.012   1.230   1.251
   16        0.007   0.008   0.006   0.021
   17        0.009   0.013   1.253   1.275
   18        0.002   0.002  -0.001   0.003
   19        0.000  -0.014   0.000  -0.014
   20        0.000  -0.096   0.000  -0.095
   21        0.000  -0.040   0.000  -0.040
   22        0.000  -0.143   0.000  -0.143
   23        0.000  -0.106   0.000  -0.105
   24        0.001  -0.019   0.000  -0.018
   25        0.001  -0.089   0.000  -0.089
   26        0.000  -0.022   0.000  -0.022
   27       -0.000  -0.063   0.000  -0.064
   28       -0.000  -0.034   0.000  -0.034
   29        0.001  -0.078   0.000  -0.077
   30        0.001  -0.102   0.000  -0.101
   31        0.001  -0.090   0.000  -0.089
   32        0.001  -0.103   0.000  -0.102
   33       -0.000  -0.050   0.000  -0.050
   34        0.000  -0.036   0.000  -0.036
   35        0.001  -0.119   0.000  -0.119
   36        0.000  -0.026   0.000  -0.026
   37       -0.000  -0.093   0.000  -0.093
   38       -0.000  -0.036   0.000  -0.036
   39       -0.000  -0.125   0.000  -0.126
   40        0.000  -0.008   0.000  -0.008
   41        0.001  -0.046   0.000  -0.045
   42        0.000  -0.031   0.000  -0.031
--------------------------------------------------
tot          0.093  -1.464   7.602   6.230
 
    FORLOC:  cpu time    0.0079: real time    0.0079
    FORNL :  cpu time    4.4063: real time    4.4190
    STRESS:  cpu time   13.2260: real time   13.2778
    FORCOR:  cpu time    0.0475: real time    0.0475
    OFIELD:  cpu time    0.0004: real time    0.0004

  DFT-D2 method for vdW energy calculation
  -------------------------------------------------------------------

  Parameters of vdW forcefield:
         C6(Jnm^6/mol)     R0(A)
   -----------------------------
   Li       1.610          0.825
   Co      10.800          1.562
   O        0.700          1.342

  IVDW =   1
  VDW_RADIUS =    50.000 A
  VDW_S6 =     0.750
  VDW_SR =     1.000
  VDW_D =    20.000
  LVDW_EWALD = F

  Number of pair interactions contributing to vdW energy: 1191068
  Edisp (eV):   -9.20559
    FORVDW:  cpu time    0.1741: real time    0.1741

  FORCE on cell =-STRESS in cart. coord.  units (eV):
  Direction    XX          YY          ZZ          XY          YZ          ZX
  --------------------------------------------------------------------------------------
  Alpha Z   738.40391   738.40391   738.40391
  Ewald   -1293.20738 -1195.77023-11046.98388    55.83102  -103.36103    90.59249
  Hartree  4952.73791  4958.38775 -2502.96449    25.93713   -26.82538    35.78362
  E(xc)   -1285.58195 -1285.09439 -1286.89178     0.19385    -0.30411     0.17781
  Local   -8623.78824 -8685.29719  8566.69470   -73.35124   111.95032  -116.70331
  n-local  -597.45978  -587.33046  -599.43572     3.03248    -3.64376     3.50889
  augment  2033.05823  2006.21936  2002.48576    -6.19281     8.91887    -5.32032
  Kinetic  4076.16686  4064.01288  4138.43350    -2.98753    10.35192    -4.35013
  Fock        0.00000     0.00000     0.00000     0.00000     0.00000     0.00000
  vdW        -6.38429    -6.51139   -12.98759    -0.00365    -0.26961    -0.15910
  -------------------------------------------------------------------------------------
  Total      -6.05472     7.02025    -3.24561     2.45925    -3.18278     3.52995
  in kB     -24.43341    28.32971   -13.09744     9.92412   -12.84388    14.24486
  external pressure =       -3.07 kB  Pullay stress =        0.00 kB


 VOLUME and BASIS-vectors are now :
 -----------------------------------------------------------------------------
  energy-cutoff  :      600.00
  volume of cell :      397.03
      direct lattice vectors                 reciprocal lattice vectors
     5.667304993  0.000000000  0.000000000     0.176450712  0.105899808  0.005457230
    -2.882937431  4.803562641  0.000000000     0.000000000  0.208178819  0.010199021
    -0.022235701 -0.714500606 14.584135056     0.000000000  0.000000000  0.068567659

  length of vectors
     5.667304993  5.602280097 14.601643773     0.205862586  0.208428503  0.068567659


 FORCES acting on ions:
    Electron-Ion                     Ewald-Force                    Non-Local-Force
 -----------------------------------------------------------------------------------------------
   -.237E+01 -.793E+01 0.641E+01   0.207E+01 0.707E+01 -.644E+01   0.412E+00 0.199E+01 0.867E-02
   0.265E+01 -.688E+00 -.393E+01   -.216E+01 0.399E+00 0.364E+01   -.638E+00 0.259E+00 0.278E+00
   -.130E+01 -.708E+01 -.436E+01   0.110E+01 0.661E+01 0.426E+01   0.181E+00 0.139E+01 -.143E+00
   0.330E+00 -.243E+00 0.108E+02   -.150E+00 0.758E-01 -.108E+02   0.468E-01 0.276E+00 -.766E+00
   -.567E-01 -.219E+00 -.129E+02   0.311E+00 -.119E+00 0.130E+02   0.227E-01 -.422E+00 0.519E+00
   0.973E+00 -.443E-02 -.173E+02   -.923E+00 0.556E+00 0.171E+02   -.450E+00 -.510E-01 0.810E+00
   0.169E+02 0.239E+02 0.856E+02   -.160E+02 -.247E+02 -.854E+02   0.315E+00 -.296E+00 0.100E+01
   -.529E+02 -.682E+01 0.130E+03   0.538E+02 0.580E+01 -.129E+03   0.870E+00 -.200E+00 -.441E+00
   -.140E+02 0.197E+02 0.128E+03   0.139E+02 -.189E+02 -.127E+03   0.306E+00 -.684E-01 -.562E+00
   0.183E+02 -.145E+02 0.107E+03   -.183E+02 0.137E+02 -.108E+03   0.460E+00 0.389E+00 -.230E+00
   -.454E+02 0.208E+01 -.659E+02   0.477E+02 -.138E+01 0.667E+02   0.135E+01 0.156E+00 -.526E-01
   0.117E+01 -.781E+01 -.765E+02   -.159E+01 0.815E+01 0.758E+02   0.645E-01 0.106E+00 0.170E+00
   0.988E+00 0.139E+02 -.723E+02   -.841E+00 -.133E+02 0.722E+02   0.130E+01 -.874E+00 0.132E+01
   -.144E+02 -.152E+02 -.733E+02   0.147E+02 0.139E+02 0.741E+02   0.645E+00 0.851E+00 -.110E+01
   -.170E+01 0.256E+02 -.737E+02   0.121E+01 -.264E+02 0.745E+02   -.734E+00 -.337E+00 -.304E+00
   0.290E+01 -.479E+02 -.597E+02   -.248E+01 0.480E+02 0.611E+02   -.930E-01 0.765E+00 -.930E+00
   0.369E+01 0.313E+02 -.274E+02   -.365E+01 -.325E+02 0.289E+02   0.425E+00 -.918E-01 0.102E+01
   -.101E+02 0.248E+02 0.844E+01   0.101E+02 -.249E+02 -.896E+01   0.748E+00 -.155E+01 0.229E+00
   -.967E+01 -.246E+02 -.265E+03   0.125E+02 0.262E+02 0.282E+03   -.343E+01 -.517E+00 -.171E+02
   -.346E+02 -.485E+01 -.264E+03   0.377E+02 0.739E+01 0.282E+03   -.234E+01 -.314E+01 -.186E+02
   0.166E+02 0.221E+02 -.271E+03   -.213E+02 -.262E+02 0.292E+03   0.406E+01 0.413E+01 -.211E+02
   0.266E+02 0.172E+02 -.281E+03   -.293E+02 -.200E+02 0.303E+03   0.222E+01 0.244E+01 -.219E+02
   0.484E+01 0.160E+02 0.415E+03   -.727E+01 -.145E+02 -.436E+03   0.233E+01 -.249E+01 0.208E+02
   0.197E+02 -.451E+02 0.419E+03   -.196E+02 0.506E+02 -.444E+03   -.129E+01 -.347E+01 0.244E+02
   0.380E+01 0.672E+01 0.414E+03   -.273E+01 -.889E+01 -.433E+03   -.141E+01 0.264E+01 0.200E+02
   -.477E-01 -.534E+01 0.414E+03   -.279E+01 0.497E+01 -.430E+03   0.218E+01 0.123E+00 0.142E+02
   -.122E+02 0.202E+02 -.376E+03   0.117E+02 -.199E+02 0.394E+03   0.192E+00 -.139E+01 -.188E+02
   -.798E+01 -.382E+02 -.376E+03   0.121E+02 0.417E+02 0.391E+03   -.468E+01 -.216E+01 -.150E+02
   0.385E+02 0.141E+02 -.394E+03   -.432E+02 -.175E+02 0.416E+03   0.364E+01 0.375E+01 -.224E+02
   -.427E+01 0.158E+02 -.397E+03   0.359E+01 -.181E+02 0.421E+03   0.543E+00 0.179E+01 -.237E+02
   -.544E+01 -.207E+02 0.306E+03   0.697E+01 0.232E+02 -.330E+03   -.295E+01 -.200E+01 0.243E+02
   -.536E+01 -.606E+01 0.288E+03   0.578E+01 0.724E+01 -.311E+03   -.108E+01 -.115E+01 0.231E+02
   0.163E+02 0.191E+01 0.278E+03   -.188E+02 -.233E+01 -.297E+03   0.203E+01 0.110E+00 0.183E+02
   0.344E+02 0.204E+02 0.284E+03   -.395E+02 -.237E+02 -.301E+03   0.428E+01 0.232E+01 0.167E+02
   0.693E+01 0.294E+01 -.380E+03   -.746E+01 -.471E+01 0.405E+03   0.490E+00 0.164E+01 -.258E+02
   0.114E+01 0.123E+02 -.352E+03   -.272E+01 -.130E+02 0.371E+03   0.189E+01 0.959E+00 -.191E+02
   -.229E+02 -.151E+02 -.352E+03   0.253E+02 0.155E+02 0.367E+03   -.174E+01 -.120E+00 -.153E+02
   0.695E+01 0.125E+01 -.349E+03   -.534E+01 -.128E+01 0.369E+03   -.226E+01 0.363E+00 -.198E+02
   0.248E+01 0.246E+02 0.307E+03   -.206E+01 -.269E+02 -.326E+03   -.915E+00 0.239E+01 0.202E+02
   0.270E+02 -.476E+02 0.314E+03   -.312E+02 0.527E+02 -.334E+03   0.393E+01 -.315E+01 0.191E+02
   0.481E+01 0.312E+02 0.309E+03   -.622E+01 -.317E+02 -.330E+03   0.895E+00 -.915E+00 0.198E+02
   -.230E+02 -.341E+02 0.316E+03   0.249E+02 0.373E+02 -.338E+03   -.112E+01 -.254E+01 0.206E+02
 -----------------------------------------------------------------------------------------------
   -.107E+02 -.187E+01 -.380E+01   0.711E-14 -.114E-12 -.853E-12   0.107E+02 0.189E+01 0.379E+01
 
 
 POSITION                                       TOTAL-FORCE (eV/Angst)
 -----------------------------------------------------------------------------------
      2.96631      3.40638      0.07365         0.076212      0.970882      0.010880
      2.88794     -0.11125     14.50395        -0.171371      0.031804     -0.093437
      4.12558     -0.07303      4.76875        -0.018094      0.722989     -0.141025
      2.81356      2.61100      5.00269         0.121602      0.058682     -0.675644
      0.02661      1.43491      9.59340         0.234884     -0.530576      0.531046
     -0.77140      3.79160      9.55679        -0.378729      0.296189      0.471091
     -0.15699      0.91234      2.49672         1.224861     -0.889319      0.978306
     -1.55408      3.36459      2.53539         1.308198     -1.206394      0.578612
      2.72804      0.86512      2.53578         0.104757      0.776042      0.238619
      1.27835      3.28236      2.58094         0.550065     -0.398351     -1.117880
     -2.78691      4.33637      7.19638         3.252132      0.789717      0.605509
     -1.22729      1.93279      7.24715        -0.338967      0.441978     -0.556913
      0.05244      4.38201      7.17625         1.303835     -0.173249      1.029058
      1.57030      1.98668      7.25963         0.785191     -0.498356     -0.242578
      1.30265      0.91240     12.15985        -1.118594     -0.983338      0.371851
     -0.18290      3.25679     12.15925         0.299946      0.648967      0.376096
      4.13883      0.91160     12.03055         0.423370     -1.138041      2.268020
      2.63998      3.34298     12.07795         0.703262     -1.429133     -0.088403
      2.70770      4.08003      3.50631        -0.496412      1.073079      0.477223
      4.05218      1.71681      3.56730         0.831776     -0.587308     -0.537483
     -0.09208      4.13361      3.53614        -0.620430     -0.046794     -0.256638
      1.33995      1.66404      3.49234        -0.476641     -0.279038      0.650427
      1.32786      0.20172      1.48375        -0.122385     -1.095426      0.256876
     -0.06516      2.39354      1.61760        -1.215755      2.061880     -0.640918
      4.15211      0.05978      1.47293        -0.243304      0.413575      0.755385
      2.75758      2.49892      1.66515        -0.650978     -0.302069     -1.477816
      1.57444      0.41516      8.28115        -0.305941     -1.044426     -0.843625
      0.14690      2.69046      8.24705        -0.485593      1.277997     -0.368822
      4.46957      0.32050      8.20771        -1.110080      0.319236     -0.062606
      3.01565      2.81621      8.20982        -0.088844     -0.582595      0.034049
      0.25104      1.10863      6.26823        -1.437907      0.531258     -0.062269
     -1.29645      3.52075      6.22176        -0.574429      0.071830      0.434521
      3.04764      1.21044      6.25854        -0.441874     -0.365171      0.037930
      1.56902      3.62535      6.17305        -0.840601     -0.956823      0.620500
     -0.16484      1.63854     13.15125        -0.048992     -0.101572     -0.849636
     -1.61263      4.07102     13.09605         0.276888      0.255207      0.178879
      2.66630      1.64339     13.18425         0.637045      0.338774     -0.866085
      1.29346      4.12172     13.11165        -0.564829      0.266169     -0.580912
     -0.04035      0.13036     11.02445        -0.481893     -0.048711      1.072612
     -1.52993      2.40272     11.11875        -0.286590      1.935022     -0.956630
      2.71670      0.19997     11.16135        -0.475084     -1.399443     -0.448240
      1.17599      2.43782     11.22615         0.860291      0.774857     -1.109933
 -----------------------------------------------------------------------------------
    total drift:                               -0.037310      0.020279     -0.007118


--------------------------------------------------------------------------------------------------------



  FREE ENERGIE OF THE ION-ELECTRON SYSTEM (eV)
  ---------------------------------------------------
  free  energy   TOTEN  =      -234.08617687 eV

  energy  without entropy=     -234.08617687  energy(sigma->0) =     -234.08617687
 


--------------------------------------------------------------------------------------------------------


    POTLOK:  cpu time    0.0606: real time    0.0606


--------------------------------------------------------------------------------------------------------


     LOOP+:  cpu time 4457.6009: real time 4491.0554
    4ORBIT:  cpu time    0.0000: real time    0.0000
 


 total charge     
 
# of ion       s       p       d       tot
------------------------------------------
    1        0.093   0.194   0.000   0.287
    2        0.073   0.145   0.000   0.218
    3        0.105   0.227   0.000   0.333
    4        0.093   0.196   0.000   0.289
    5        0.096   0.197   0.000   0.293
    6        0.082   0.167   0.000   0.249
    7        0.459   0.732   7.229   8.420
    8        0.429   0.666   7.367   8.462
    9        0.480   0.785   7.258   8.523
   10        0.451   0.721   7.420   8.592
   11        0.484   0.790   7.269   8.543
   12        0.464   0.744   7.228   8.436
   13        0.413   0.623   7.323   8.359
   14        0.432   0.679   7.368   8.479
   15        0.477   0.782   7.241   8.501
   16        0.432   0.673   7.394   8.499
   17        0.470   0.763   7.239   8.473
   18        0.413   0.626   7.321   8.360
   19        1.561   3.471   0.000   5.032
   20        1.568   3.408   0.000   4.976
   21        1.568   3.443   0.000   5.011
   22        1.576   3.383   0.000   4.960
   23        1.571   3.391   0.000   4.962
   24        1.579   3.407   0.000   4.985
   25        1.569   3.402   0.000   4.971
   26        1.563   3.488   0.000   5.051
   27        1.566   3.408   0.000   4.974
   28        1.559   3.486   0.000   5.045
   29        1.575   3.402   0.000   4.977
   30        1.578   3.380   0.000   4.958
   31        1.580   3.378   0.000   4.958
   32        1.576   3.383   0.000   4.959
   33        1.564   3.458   0.000   5.021
   34        1.562   3.476   0.000   5.038
   35        1.583   3.347   0.000   4.930
   36        1.564   3.435   0.000   4.999
   37        1.564   3.429   0.000   4.993
   38        1.567   3.421   0.000   4.987
   39        1.570   3.394   0.000   4.964
   40        1.566   3.445   0.000   5.011
   41        1.570   3.419   0.000   4.990
   42        1.569   3.445   0.000   5.014
--------------------------------------------------
tot         43.617  91.808  87.658 223.083
 


 magnetization (x)
 
# of ion       s       p       d       tot
------------------------------------------
    1       -0.000  -0.002   0.000  -0.002
    2        0.000  -0.000   0.000  -0.000
    3        0.001   0.001   0.000   0.002
    4        0.000  -0.001   0.000  -0.001
    5        0.001   0.000   0.000   0.001
    6        0.000  -0.000   0.000  -0.000
    7        0.010   0.011   1.294   1.315
    8        0.004   0.005   0.005   0.014
    9        0.010   0.013   1.249   1.271
   10        0.004   0.006  -0.011   0.000
   11        0.011   0.015   1.234   1.260
   12        0.012   0.015   1.337   1.364
   13        0.003   0.003   0.003   0.009
   14        0.003   0.004   0.003   0.011
   15        0.009   0.012   1.230   1.251
   16        0.007   0.008   0.006   0.021
   17        0.009   0.013   1.253   1.275
   18        0.002   0.002  -0.001   0.003
   19        0.000  -0.014   0.000  -0.014
   20        0.000  -0.096   0.000  -0.095
   21        0.000  -0.040   0.000  -0.040
   22        0.000  -0.143   0.000  -0.143
   23        0.000  -0.106   0.000  -0.105
   24        0.001  -0.019   0.000  -0.018
   25        0.001  -0.089   0.000  -0.089
   26        0.000  -0.022   0.000  -0.022
   27       -0.000  -0.063   0.000  -0.064
   28       -0.000  -0.034   0.000  -0.034
   29        0.001  -0.078   0.000  -0.077
   30        0.001  -0.102   0.000  -0.101
   31        0.001  -0.090   0.000  -0.089
   32        0.001  -0.103   0.000  -0.102
   33       -0.000  -0.050   0.000  -0.050
   34        0.000  -0.036   0.000  -0.036
   35        0.001  -0.119   0.000  -0.119
   36        0.000  -0.026   0.000  -0.026
   37       -0.000  -0.093   0.000  -0.093
   38       -0.000  -0.036   0.000  -0.036
   39       -0.000  -0.125   0.000  -0.126
   40        0.000  -0.008   0.000  -0.008
   41        0.001  -0.046   0.000  -0.045
   42        0.000  -0.031   0.000  -0.031
--------------------------------------------------
tot          0.093  -1.464   7.602   6.230
 

 total amount of memory used by VASP MPI-rank0   160388. kBytes
=======================================================================

   base      :      30000. kBytes
   nonlr-proj:       4274. kBytes
   fftplans  :       1689. kBytes
   grid      :       4644. kBytes
   one-center:        342. kBytes
   wavefun   :     119439. kBytes
 
  
  
 General timing and accounting informations for this job:
 ========================================================
  
                  Total CPU time used (sec):     4482.508
                            User time (sec):     4178.347
                          System time (sec):      304.161
                         Elapsed time (sec):     4516.481
  
                   Maximum memory used (kb):      996984.
                   Average memory used (kb):           0.
  
                          Minor page faults:        71445
                          Major page faults:           73
                 Voluntary context switches:          627
