 running on   64 total cores
 distrk:  each k-point on   64 cores,    1 groups
 distr:  one band on    4 cores,   16 groups
 using from now: INCAR     
 vasp.5.4.4.18Apr17-6-g9f103f2a35 (build Nov 22 2021 14:44:17) complex          
  
 POSCAR found type information on POSCAR  Li Co O 
 POSCAR found :  3 types and      42 ions
 scaLAPACK will be used
 LDA part: xc-table for Pade appr. of Perdew
 generate k-points for:    6    6    2
 POSCAR, INCAR and KPOINTS ok, starting setup
 FFT: planning ...
 WAVECAR not read
 entering main loop
       N       E                     dE             d eps       ncg     rms          ort
DAV:   1     0.347548805705E+04    0.34755E+04   -0.13967E+05  5760   0.218E+03
DAV:   2     0.402994406416E+03   -0.30725E+04   -0.28308E+04  5760   0.532E+02
DAV:   3    -0.221243560309E+03   -0.62424E+03   -0.57034E+03  5760   0.253E+02
DAV:   4    -0.270811347678E+03   -0.49568E+02   -0.48577E+02  5760   0.733E+01
DAV:   5    -0.272505095709E+03   -0.16937E+01   -0.16910E+01  5760   0.136E+01
 gam= 0.000 g(H,U,f)=  0.174E+04 0.730E+03 0.647E+02 ort(H,U,f) = 0.000E+00 0.000E+00 0.000E+00
SDA:   6     0.910017579888E+02    0.36351E+03   -0.16910E+01  5760   0.254E+04 0.000E+00
 gam= 0.000 trial= 0.400  step= 0.043 mean= 0.400
 gam= 2.050 g(H,U,f)=  0.123E+04 0.203E+04 0.194E+04 ort(H,U,f) = 0.136E+04-0.675E+03-0.160E+04
CGA:   7     0.221934227881E+02   -0.68808E+02   -0.54792E+02  5760   0.520E+04-0.914E+03
 gam= 2.050 trial= 0.382  step= 0.041 mean= 0.382
 gam= 0.000 g(H,U,f)=  0.354E+04 0.432E+04 0.799E+04 ort(H,U,f) = 0.555E+04 0.182E+04-0.117E+04
CGA:   8     0.343249157794E+03    0.32106E+03   -0.67768E+02  5760   0.158E+05 0.619E+04
 gam= 0.000 trial= 0.365  step= 0.126 mean= 0.365
 gam= 0.000 g(H,U,f)=  0.698E+04 0.762E+05 0.761E+05 ort(H,U,f) =-0.150E+04-0.158E+05-0.190E+05
CGA:   9     0.187749064342E+04    0.15342E+04   -0.99808E+03  5760   0.159E+06-0.363E+05
 gam= 0.000 trial= 0.353  step= 0.151 mean= 0.353
 gam= 0.277 g(H,U,f)=  0.306E+05 0.134E+05 0.177E+03 ort(H,U,f) =-0.107E+05-0.457E+04-0.514E+02
CGA:  10     0.948063400460E+04    0.76031E+04   -0.12039E+05  5760   0.442E+05-0.153E+05
 gam= 0.277 trial= 0.343  step= 0.247 mean= 0.343
 gam= 2.562 g(H,U,f)=  0.940E+05 0.160E+05 0.322E+04 ort(H,U,f) = 0.123E+04-0.425E+04 0.260E+03
CGA:  11     0.541119041025E+04   -0.40694E+04   -0.49414E+04  5760   0.113E+06-0.277E+04
 gam= 2.562 trial= 0.338  step= 0.159 mean= 0.338
 gam= 0.611 g(H,U,f)=  0.320E+05 0.328E+05 0.435E+04 ort(H,U,f) =-0.215E+04-0.703E+04-0.962E+03
CGA:  12     0.341145266103E+04   -0.19997E+04   -0.84134E+04  5760   0.692E+05-0.101E+05
 gam= 0.611 trial= 0.329  step= 0.132 mean= 0.329
 gam= 0.000 g(H,U,f)=  0.367E+05 0.464E+05 0.103E+05 ort(H,U,f) =-0.151E+05-0.341E+05-0.840E+04
CGA:  13     0.395765221857E+04    0.54620E+03   -0.41636E+04  5760   0.934E+05-0.576E+05
 gam= 0.000 trial= 0.319  step= 0.111 mean= 0.319
 gam= 0.000 g(H,U,f)=  0.461E+05 0.675E+05 0.502E+04 ort(H,U,f) =-0.253E+05-0.575E+05-0.472E+04
CGA:  14     0.402679958644E+04    0.69147E+02   -0.51894E+04  5760   0.119E+06-0.875E+05
 gam= 0.000 trial= 0.309  step= 0.118 mean= 0.309
 gam= 0.000 g(H,U,f)=  0.439E+05 0.355E+05 0.297E+04 ort(H,U,f) =-0.342E+05-0.278E+05-0.253E+04
CGA:  15     0.441137863935E+04    0.38458E+03   -0.69764E+04  5760   0.825E+05-0.645E+05
 gam= 0.000 trial= 0.299  step= 0.094 mean= 0.299
 gam= 0.000 g(H,U,f)=  0.143E+05 0.221E+05 0.275E+04 ort(H,U,f) =-0.182E+05-0.374E+05-0.484E+04
CGA:  16     0.256449819099E+04   -0.18469E+04   -0.38842E+04  5760   0.391E+05-0.604E+05
 gam= 0.000 trial= 0.289  step= 0.078 mean= 0.289
 gam= 0.000 g(H,U,f)=  0.766E+04 0.146E+05 0.985E+03 ort(H,U,f) =-0.763E+04-0.183E+05-0.128E+04
CGA:  17     0.210992259201E+04   -0.45458E+03   -0.15253E+04  5760   0.232E+05-0.272E+05
 gam= 0.000 trial= 0.279  step= 0.065 mean= 0.279
 gam= 0.344 g(H,U,f)=  0.282E+04 0.457E+04 0.605E+03 ort(H,U,f) =-0.197E+04-0.798E+04-0.116E+04
CGA:  18     0.169513851173E+04   -0.41478E+03   -0.74947E+03  5760   0.800E+04-0.111E+05
 gam= 0.344 trial= 0.268  step= 0.204 mean= 0.268
 gam= 0.482 g(H,U,f)=  0.163E+04 0.207E+04 0.153E+03 ort(H,U,f) = 0.917E+03-0.751E+03-0.657E+02
CGA:  19     0.127635691588E+04   -0.41878E+03   -0.42475E+03  5760   0.385E+04 0.101E+03
 gam= 0.482 trial= 0.265  step= 0.093 mean= 0.265
 gam= 0.592 g(H,U,f)=  0.103E+04 0.118E+04 0.750E+02 ort(H,U,f) = 0.851E+03-0.798E+03-0.698E+02
CGA:  20     0.111202707243E+04   -0.16433E+03   -0.18134E+03  5760   0.228E+04-0.168E+02
 gam= 0.592 trial= 0.256  step= 0.270 mean= 0.256
 gam= 2.109 g(H,U,f)=  0.134E+04 0.329E+04 0.184E+03 ort(H,U,f) = 0.587E+03-0.482E+03-0.296E+02
CGA:  21     0.804674163626E+03   -0.30735E+03   -0.30663E+03  5760   0.481E+04 0.754E+02
 gam= 2.109 trial= 0.257  step= 0.141 mean= 0.257
 gam= 0.465 g(H,U,f)=  0.102E+04 0.117E+04 0.437E+02 ort(H,U,f) = 0.622E+03-0.907E+03-0.302E+02
CGA:  22     0.526588258403E+03   -0.27809E+03   -0.35135E+03  5760   0.224E+04-0.315E+03
 gam= 0.465 trial= 0.251  step= 0.239 mean= 0.251
 gam= 0.892 g(H,U,f)=  0.804E+03 0.114E+04 0.495E+02 ort(H,U,f) = 0.105E+03 0.698E+03-0.186E+02
CGA:  23     0.288348815815E+03   -0.23824E+03   -0.24965E+03  5760   0.199E+04 0.785E+03
 gam= 0.892 trial= 0.250  step= 0.136 mean= 0.250
 gam= 0.487 g(H,U,f)=  0.532E+03 0.431E+03 0.813E+01 ort(H,U,f) = 0.226E+03-0.279E+03-0.397E+01
CGA:  24     0.130357113227E+03   -0.15799E+03   -0.18296E+03  5760   0.971E+03-0.568E+02
 gam= 0.487 trial= 0.245  step= 0.197 mean= 0.245
 gam= 0.290 g(H,U,f)=  0.203E+03 0.758E+02 0.223E+01 ort(H,U,f) = 0.124E+03-0.671E+02-0.179E+01
CGA:  25     0.431473256337E+02   -0.87210E+02   -0.92980E+02  5760   0.281E+03 0.549E+02
 gam= 0.290 trial= 0.242  step= 0.270 mean= 0.242
 gam= 1.134 g(H,U,f)=  0.222E+03 0.960E+02 0.153E+01 ort(H,U,f) = 0.530E+02-0.488E+02-0.182E+00
CGA:  26     0.288348733520E+01   -0.40264E+02   -0.40219E+02  5760   0.319E+03 0.395E+01
 gam= 1.134 trial= 0.244  step= 0.310 mean= 0.244
 gam= 1.351 g(H,U,f)=  0.148E+03 0.275E+03 0.841E+01 ort(H,U,f) = 0.552E+02-0.158E+03-0.491E+01
CGA:  27    -0.428436587994E+02   -0.45727E+02   -0.50103E+02  5760   0.431E+03-0.108E+03
 gam= 1.351 trial= 0.247  step= 0.146 mean= 0.247
 gam= 0.854 g(H,U,f)=  0.113E+03 0.244E+03 0.119E+02 ort(H,U,f) =-0.182E+02 0.182E+02-0.138E+01
CGA:  28    -0.643281319408E+02   -0.21484E+02   -0.20839E+02  5760   0.368E+03-0.138E+01
 gam= 0.854 trial= 0.242  step= 0.056 mean= 0.242
 gam= 0.381 g(H,U,f)=  0.962E+02 0.422E+02 0.197E+01 ort(H,U,f) = 0.116E+02 0.810E+02 0.695E+01
CGA:  29    -0.780644505671E+02   -0.13736E+02   -0.10195E+02  5760   0.140E+03 0.995E+02
 gam= 0.381 trial= 0.233  step= 0.085 mean= 0.233
 gam= 1.419 g(H,U,f)=  0.102E+03 0.939E+02 0.335E+01 ort(H,U,f) = 0.684E+02-0.443E+02-0.241E+01
CGA:  30    -0.866955719582E+02   -0.86311E+01   -0.75472E+01  5760   0.199E+03 0.217E+02
 gam= 1.419 trial= 0.225  step= 0.099 mean= 0.225
 gam= 2.469 g(H,U,f)=  0.114E+03 0.364E+03 0.138E+02 ort(H,U,f) = 0.103E+03-0.832E+02-0.990E+01
CGA:  31    -0.989521150812E+02   -0.12257E+02   -0.11392E+02  5760   0.492E+03 0.100E+02
 gam= 2.469 trial= 0.219  step= 0.061 mean= 0.219
 gam= 1.465 g(H,U,f)=  0.141E+03 0.555E+03 0.240E+02 ort(H,U,f) = 0.461E+02 0.428E+02-0.508E+01
CGA:  32    -0.114260100707E+03   -0.15308E+02   -0.15630E+02  5760   0.720E+03 0.839E+02
 gam= 1.465 trial= 0.211  step= 0.016 mean= 0.211
 gam= 0.000 g(H,U,f)=  0.178E+03 0.541E+03 0.238E+02 ort(H,U,f) = 0.389E+03 0.494E+03 0.178E+02
CGA:  33    -0.109021014391E+03    0.52391E+01   -0.68806E+01  5760   0.743E+03 0.901E+03
 gam= 0.000 trial= 0.201  step= 0.059 mean= 0.201
 gam= 0.152 g(H,U,f)=  0.642E+02 0.477E+02 0.116E+01 ort(H,U,f) = 0.647E+02-0.125E+02-0.263E+01
CGA:  34    -0.132151255149E+03   -0.23130E+02   -0.21948E+02  5760   0.113E+03 0.496E+02
 gam= 0.152 trial= 0.194  step= 0.261 mean= 0.194
 gam= 1.326 g(H,U,f)=  0.542E+02 0.918E+02 0.401E+01 ort(H,U,f) = 0.170E+02-0.177E+02-0.106E+01
CGA:  35    -0.147824168556E+03   -0.15673E+02   -0.15744E+02  5760   0.150E+03-0.181E+01
 gam= 1.326 trial= 0.198  step= 0.195 mean= 0.198
 gam= 1.469 g(H,U,f)=  0.654E+02 0.149E+03 0.568E+01 ort(H,U,f) = 0.152E+02-0.585E+01-0.201E+01
CGA:  36    -0.162199668939E+03   -0.14376E+02   -0.14395E+02  5760   0.220E+03 0.735E+01
 gam= 1.469 trial= 0.197  step= 0.152 mean= 0.197
 gam= 0.323 g(H,U,f)=  0.323E+02 0.370E+02 0.197E+01 ort(H,U,f) =-0.511E+02 0.444E+02 0.937E+00
CGA:  37    -0.180556072928E+03   -0.18356E+02   -0.17521E+02  5760   0.713E+02-0.575E+01
 gam= 0.323 trial= 0.195  step= 0.233 mean= 0.195
 gam= 1.099 g(H,U,f)=  0.318E+02 0.452E+02 0.129E+01 ort(H,U,f) =-0.870E+01 0.115E+02 0.656E+00
CGA:  38    -0.188760338395E+03   -0.82043E+01   -0.80797E+01  5760   0.783E+02 0.345E+01
 gam= 1.099 trial= 0.197  step= 0.182 mean= 0.197
 gam= 0.831 g(H,U,f)=  0.312E+02 0.330E+02 0.966E+00 ort(H,U,f) =-0.870E+01 0.550E+00-0.909E-01
CGA:  39    -0.196379265205E+03   -0.76189E+01   -0.74906E+01  5760   0.651E+02-0.824E+01
 gam= 0.831 trial= 0.196  step= 0.222 mean= 0.196
 gam= 0.889 g(H,U,f)=  0.272E+02 0.297E+02 0.993E+00 ort(H,U,f) =-0.372E+00-0.254E+01 0.144E+00
CGA:  40    -0.202816798091E+03   -0.64375E+01   -0.64705E+01  5760   0.579E+02-0.277E+01
 gam= 0.889 trial= 0.198  step= 0.150 mean= 0.198
 gam= 0.707 g(H,U,f)=  0.167E+02 0.225E+02 0.177E+01 ort(H,U,f) = 0.372E+01-0.726E+01 0.656E+00
CGA:  41    -0.207135098418E+03   -0.43183E+01   -0.41455E+01  5760   0.410E+02-0.289E+01
 gam= 0.707 trial= 0.195  step= 0.140 mean= 0.195
 gam= 0.450 g(H,U,f)=  0.105E+02 0.767E+01 0.272E+00 ort(H,U,f) = 0.212E+01-0.367E+01 0.103E+01
CGA:  42    -0.209941144605E+03   -0.28060E+01   -0.27331E+01  5760   0.184E+02-0.515E+00
 gam= 0.450 trial= 0.192  step= 0.147 mean= 0.192
 gam= 1.295 g(H,U,f)=  0.894E+01 0.140E+02 0.904E+00 ort(H,U,f) = 0.537E+01-0.559E+01-0.218E+00
CGA:  43    -0.211302905535E+03   -0.13618E+01   -0.13343E+01  5760   0.239E+02-0.439E+00
 gam= 1.295 trial= 0.190  step= 0.175 mean= 0.190
 gam= 0.902 g(H,U,f)=  0.902E+01 0.121E+02 0.365E+00 ort(H,U,f) = 0.154E+01-0.187E+01 0.848E+00
CGA:  44    -0.213341997751E+03   -0.20391E+01   -0.20335E+01  5760   0.215E+02 0.516E+00
 gam= 0.902 trial= 0.189  step= 0.116 mean= 0.189
 gam= 1.054 g(H,U,f)=  0.697E+01 0.148E+02 0.888E+00 ort(H,U,f) = 0.119E+01-0.109E+00 0.742E+00
CGA:  45    -0.214661478385E+03   -0.13195E+01   -0.12749E+01  5760   0.227E+02 0.182E+01
 gam= 1.054 trial= 0.186  step= 0.088 mean= 0.186
 gam= 0.436 g(H,U,f)=  0.442E+01 0.521E+01 0.270E+00 ort(H,U,f) =-0.257E+01 0.425E+01 0.132E+01
CGA:  46    -0.215792698348E+03   -0.11312E+01   -0.10849E+01  5760   0.990E+01 0.299E+01
 gam= 0.436 trial= 0.181  step= 0.086 mean= 0.181
 gam= 1.410 g(H,U,f)=  0.412E+01 0.900E+01 0.839E+00 ort(H,U,f) = 0.584E+00 0.409E+00-0.401E+00
CGA:  47    -0.216261444054E+03   -0.46875E+00   -0.47967E+00  5760   0.140E+02 0.593E+00
 gam= 1.410 trial= 0.176  step= 0.122 mean= 0.176
 gam= 1.232 g(H,U,f)=  0.466E+01 0.114E+02 0.116E+01 ort(H,U,f) =-0.241E+01 0.316E+01 0.915E-01
CGA:  48    -0.217155804045E+03   -0.89436E+00   -0.90358E+00  5760   0.172E+02 0.837E+00
 gam= 1.232 trial= 0.173  step= 0.056 mean= 0.173
 gam= 0.764 g(H,U,f)=  0.444E+01 0.814E+01 0.560E+00 ort(H,U,f) =-0.305E+01 0.437E+01-0.530E+00
CGA:  49    -0.217646347736E+03   -0.49054E+00   -0.51080E+00  5760   0.131E+02 0.789E+00
 gam= 0.764 trial= 0.167  step= 0.092 mean= 0.167
 gam= 1.146 g(H,U,f)=  0.405E+01 0.944E+01 0.157E+01 ort(H,U,f) =-0.265E+01 0.379E+01-0.277E+00
CGA:  50    -0.218255376318E+03   -0.60903E+00   -0.63155E+00  5760   0.151E+02 0.864E+00
 gam= 1.146 trial= 0.164  step= 0.062 mean= 0.164
 gam= 0.572 g(H,U,f)=  0.408E+01 0.443E+01 0.103E+00 ort(H,U,f) =-0.311E+01 0.280E+01 0.710E-01
CGA:  51    -0.218664407024E+03   -0.40903E+00   -0.49791E+00  5760   0.861E+01-0.235E+00
 gam= 0.572 trial= 0.159  step= 0.095 mean= 0.159
 gam= 1.119 g(H,U,f)=  0.351E+01 0.540E+01 0.732E+00 ort(H,U,f) = 0.884E-02 0.119E+01-0.465E+00
CGA:  52    -0.219028175640E+03   -0.36377E+00   -0.40133E+00  5760   0.964E+01 0.735E+00
 gam= 1.119 trial= 0.155  step= 0.093 mean= 0.155
 gam= 0.641 g(H,U,f)=  0.247E+01 0.338E+01 0.331E+00 ort(H,U,f) =-0.396E+00 0.127E+01 0.432E-01
CGA:  53    -0.219485951507E+03   -0.45778E+00   -0.48803E+00  5760   0.618E+01 0.921E+00
 gam= 0.641 trial= 0.152  step= 0.088 mean= 0.152
 gam= 0.794 g(H,U,f)=  0.214E+01 0.265E+01 0.125E+00 ort(H,U,f) = 0.230E+00 0.502E+00-0.132E+00
CGA:  54    -0.219760546945E+03   -0.27460E+00   -0.29706E+00  5760   0.491E+01 0.599E+00
 gam= 0.794 trial= 0.149  step= 0.140 mean= 0.149
 gam= 1.293 g(H,U,f)=  0.213E+01 0.374E+01 0.478E+00 ort(H,U,f) = 0.301E+00 0.566E+00-0.159E-01
CGA:  55    -0.220132137515E+03   -0.37159E+00   -0.37565E+00  5760   0.635E+01 0.851E+00
 gam= 1.293 trial= 0.149  step= 0.109 mean= 0.149
 gam= 0.861 g(H,U,f)=  0.203E+01 0.336E+01 0.815E-01 ort(H,U,f) =-0.470E-02 0.837E+00 0.546E-01
CGA:  56    -0.220521911991E+03   -0.38977E+00   -0.40674E+00  5760   0.546E+01 0.887E+00
 gam= 0.861 trial= 0.147  step= 0.117 mean= 0.147
 gam= 0.856 g(H,U,f)=  0.158E+01 0.296E+01 0.138E+00 ort(H,U,f) =-0.263E+00 0.125E+01-0.110E+00
CGA:  57    -0.220870321647E+03   -0.34841E+00   -0.36362E+00  5760   0.468E+01 0.873E+00
 gam= 0.856 trial= 0.145  step= 0.104 mean= 0.145
 gam= 0.740 g(H,U,f)=  0.122E+01 0.220E+01 0.402E-01 ort(H,U,f) =-0.690E+00 0.142E+01-0.934E-01
CGA:  58    -0.221137909272E+03   -0.26759E+00   -0.28270E+00  5760   0.346E+01 0.633E+00
 gam= 0.740 trial= 0.143  step= 0.128 mean= 0.143
 gam= 1.115 g(H,U,f)=  0.136E+01 0.235E+01 0.157E+00 ort(H,U,f) =-0.788E+00 0.128E+01 0.582E-01
CGA:  59    -0.221386484807E+03   -0.24858E+00   -0.25259E+00  5760   0.386E+01 0.549E+00
 gam= 1.115 trial= 0.142  step= 0.132 mean= 0.142
 gam= 1.097 g(H,U,f)=  0.168E+01 0.240E+01 0.156E+00 ort(H,U,f) =-0.993E+00 0.134E+01 0.230E+00
CGA:  60    -0.221679923472E+03   -0.29344E+00   -0.29640E+00  5760   0.423E+01 0.576E+00
 gam= 1.097 trial= 0.142  step= 0.120 mean= 0.142
 gam= 0.955 g(H,U,f)=  0.164E+01 0.238E+01 0.303E-01 ort(H,U,f) =-0.679E+00 0.122E+01 0.443E-02
CGA:  61    -0.221963581625E+03   -0.28366E+00   -0.29158E+00  5760   0.405E+01 0.549E+00
 gam= 0.955 trial= 0.141  step= 0.118 mean= 0.141
 gam= 0.775 g(H,U,f)=  0.124E+01 0.185E+01 0.513E-01 ort(H,U,f) =-0.381E+00 0.908E+00-0.150E+00
CGA:  62    -0.222227673143E+03   -0.26409E+00   -0.26984E+00  5760   0.314E+01 0.377E+00
 gam= 0.775 trial= 0.140  step= 0.113 mean= 0.140
 gam= 0.841 g(H,U,f)=  0.974E+00 0.150E+01 0.165E+00 ort(H,U,f) =-0.207E+00 0.463E+00-0.309E+00
CGA:  63    -0.222419411340E+03   -0.19174E+00   -0.19449E+00  5760   0.264E+01-0.531E-01
 gam= 0.841 trial= 0.138  step= 0.122 mean= 0.138
 gam= 0.000 g(H,U,f)=  0.981E+00 0.173E+01 0.392E+00 ort(H,U,f) =-0.177E+00 0.286E+00-0.319E+00
SDA:  64    -0.222578326695E+03   -0.15892E+00   -0.15835E+00  5760   0.311E+01-0.211E+00
 gam= 0.000 trial= 0.138  step= 0.226 mean= 0.138
 gam= 0.969 g(H,U,f)=  0.702E+00 0.155E+01 0.758E+00 ort(H,U,f) = 0.494E+00 0.648E+00-0.283E+00
CGA:  65    -0.222976346105E+03   -0.39802E+00   -0.35106E+00  5760   0.301E+01 0.859E+00
 gam= 0.969 trial= 0.142  step= 0.272 mean= 0.142
 gam= 1.994 g(H,U,f)=  0.103E+01 0.351E+01 0.147E+01 ort(H,U,f) =-0.176E+00 0.206E-01-0.663E+00
CGA:  66    -0.223450178450E+03   -0.47383E+00   -0.52176E+00  5760   0.600E+01-0.819E+00
 gam= 1.994 trial= 0.148  step= 0.192 mean= 0.148
 gam= 0.622 g(H,U,f)=  0.147E+01 0.155E+01 0.714E+00 ort(H,U,f) =-0.148E+01 0.151E+01 0.970E-01
CGA:  67    -0.223873860718E+03   -0.42368E+00   -0.41988E+00  5760   0.373E+01 0.122E+00
 gam= 0.622 trial= 0.151  step= 0.095 mean= 0.151
 gam= 0.504 g(H,U,f)=  0.908E+00 0.538E+00 0.435E+00 ort(H,U,f) =-0.258E+00 0.810E+00-0.623E+00
CGA:  68    -0.224038670536E+03   -0.16481E+00   -0.18117E+00  5760   0.188E+01-0.715E-01
 gam= 0.504 trial= 0.148  step= 0.209 mean= 0.148
 gam= 0.354 g(H,U,f)=  0.490E+00 0.168E+00 0.827E-02 ort(H,U,f) =-0.228E+00 0.100E+00 0.243E-01
CGA:  69    -0.224227454611E+03   -0.18878E+00   -0.19246E+00  5760   0.666E+00-0.103E+00
 gam= 0.354 trial= 0.151  step= 0.279 mean= 0.151
 gam= 2.660 g(H,U,f)=  0.328E+00 0.519E+00 0.924E+00 ort(H,U,f) = 0.130E+00-0.168E-01-0.207E+00
CGA:  70    -0.224309406488E+03   -0.81952E-01   -0.87878E-01  5760   0.177E+01-0.943E-01
 gam= 2.660 trial= 0.157  step= 0.102 mean= 0.157
 gam= 0.312 g(H,U,f)=  0.216E+00 0.133E+00 0.203E+00 ort(H,U,f) =-0.143E+00-0.236E-01 0.164E+00
CGA:  71    -0.224385050753E+03   -0.75644E-01   -0.77403E-01  5760   0.552E+00-0.198E-02
 gam= 0.312 trial= 0.155  step= 0.097 mean= 0.155
 gam= 0.830 g(H,U,f)=  0.192E+00 0.207E+00 0.594E-01 ort(H,U,f) = 0.636E-01 0.523E-01-0.126E+00
CGA:  72    -0.224409319856E+03   -0.24269E-01   -0.26686E-01  5760   0.458E+00-0.954E-02
 gam= 0.830 trial= 0.152  step= 0.241 mean= 0.152
 gam= 0.461 g(H,U,f)=  0.106E+00 0.102E+00 0.356E-02 ort(H,U,f) =-0.850E-01 0.720E-01 0.109E-05
CGA:  73    -0.224462909076E+03   -0.53589E-01   -0.54248E-01  5760   0.211E+00-0.130E-01
 gam= 0.461 trial= 0.156  step= 0.236 mean= 0.156
 gam= 2.687 g(H,U,f)=  0.112E+00 0.170E+00 0.287E+00 ort(H,U,f) =-0.104E-01-0.229E-01 0.895E-02
CGA:  74    -0.224485634905E+03   -0.22726E-01   -0.24251E-01  5760   0.568E+00-0.243E-01
 gam= 2.687 trial= 0.160  step= 0.085 mean= 0.160
 gam= 1.338 g(H,U,f)=  0.139E+00 0.270E+00 0.351E+00 ort(H,U,f) =-0.615E-01-0.882E-01 0.262E+00
CGA:  75    -0.224509353656E+03   -0.23719E-01   -0.21469E-01  5760   0.760E+00 0.113E+00
 gam= 1.338 trial= 0.156  step= 0.061 mean= 0.156
 gam= 0.754 g(H,U,f)=  0.157E+00 0.282E+00 0.135E+00 ort(H,U,f) =-0.115E+00-0.248E-01 0.263E+00
CGA:  76    -0.224534940839E+03   -0.25587E-01   -0.27843E-01  5760   0.573E+00 0.123E+00
 gam= 0.754 trial= 0.152  step= 0.088 mean= 0.152
 gam= 0.643 g(H,U,f)=  0.154E+00 0.209E+00 0.523E-02 ort(H,U,f) =-0.880E-01 0.983E-01 0.822E-02
CGA:  77    -0.224557023491E+03   -0.22083E-01   -0.29284E-01  5760   0.369E+00 0.185E-01
 gam= 0.643 trial= 0.148  step= 0.131 mean= 0.148
 gam= 0.664 g(H,U,f)=  0.129E+00 0.114E+00 0.235E-02 ort(H,U,f) =-0.707E-01 0.827E-01-0.559E-02
CGA:  78    -0.224581727349E+03   -0.24704E-01   -0.24881E-01  5760   0.245E+00 0.641E-02
 gam= 0.664 trial= 0.148  step= 0.202 mean= 0.148
 gam= 0.797 g(H,U,f)=  0.122E+00 0.724E-01 0.552E-03 ort(H,U,f) =-0.654E-01 0.669E-01 0.122E-02
CGA:  79    -0.224607014988E+03   -0.25288E-01   -0.25217E-01  5760   0.195E+00 0.273E-02
 gam= 0.797 trial= 0.150  step= 0.185 mean= 0.150
 gam= 1.238 g(H,U,f)=  0.112E+00 0.126E+00 0.442E-02 ort(H,U,f) =-0.143E-01 0.210E-01 0.353E-02
CGA:  80    -0.224625101677E+03   -0.18087E-01   -0.18275E-01  5760   0.242E+00 0.102E-01
 gam= 1.238 trial= 0.152  step= 0.252 mean= 0.152
 gam= 0.741 g(H,U,f)=  0.102E+00 0.741E-01 0.276E-02 ort(H,U,f) =-0.570E-01 0.499E-01 0.552E-02
CGA:  81    -0.224656755905E+03   -0.31654E-01   -0.32047E-01  5760   0.179E+00-0.158E-02
 gam= 0.741 trial= 0.157  step= 0.155 mean= 0.157
 gam= 0.565 g(H,U,f)=  0.680E-01 0.324E-01 0.848E-03 ort(H,U,f) = 0.234E-02 0.930E-02-0.165E-03
CGA:  82    -0.224670502933E+03   -0.13747E-01   -0.13762E-01  5760   0.101E+00 0.115E-01
 gam= 0.565 trial= 0.157  step= 0.266 mean= 0.157
 gam= 0.757 g(H,U,f)=  0.408E-01 0.351E-01 0.755E-03 ort(H,U,f) =-0.666E-02-0.176E-02-0.105E-02
CGA:  83    -0.224684193304E+03   -0.13690E-01   -0.14320E-01  5760   0.766E-01-0.947E-02
 gam= 0.757 trial= 0.162  step= 0.247 mean= 0.162
 gam= 0.883 g(H,U,f)=  0.319E-01 0.345E-01 0.124E-02 ort(H,U,f) =-0.717E-02 0.993E-02-0.593E-03
CGA:  84    -0.224692731778E+03   -0.85385E-02   -0.85941E-02  5760   0.677E-01 0.217E-02
 gam= 0.883 trial= 0.167  step= 0.184 mean= 0.167
 gam= 0.550 g(H,U,f)=  0.219E-01 0.153E-01 0.540E-04 ort(H,U,f) =-0.522E-02 0.394E-02-0.497E-04
CGA:  85    -0.224699119260E+03   -0.63875E-02   -0.64148E-02  5760   0.372E-01-0.133E-02
 gam= 0.550 trial= 0.167  step= 0.275 mean= 0.167
 gam= 0.843 g(H,U,f)=  0.153E-01 0.155E-01 0.584E-03 ort(H,U,f) =-0.132E-02 0.153E-02-0.187E-03
CGA:  86    -0.224704140432E+03   -0.50212E-02   -0.50143E-02  5760   0.314E-01 0.261E-04
 gam= 0.843 trial= 0.173  step= 0.238 mean= 0.173
 gam= 0.840 g(H,U,f)=  0.124E-01 0.136E-01 0.367E-03 ort(H,U,f) =-0.387E-02 0.411E-02 0.267E-03
CGA:  87    -0.224707876105E+03   -0.37357E-02   -0.37375E-02  5760   0.264E-01 0.503E-03
 gam= 0.840 trial= 0.176  step= 0.208 mean= 0.176
 gam= 0.675 g(H,U,f)=  0.109E-01 0.686E-02 0.936E-04 ort(H,U,f) =-0.552E-02 0.590E-02-0.172E-03
CGA:  88    -0.224710664238E+03   -0.27881E-02   -0.27825E-02  5760   0.178E-01 0.202E-03
 gam= 0.675 trial= 0.178  step= 0.330 mean= 0.178
 gam= 1.025 g(H,U,f)=  0.112E-01 0.689E-02 0.213E-03 ort(H,U,f) =-0.385E-02 0.314E-02-0.119E-03
CGA:  89    -0.224713563779E+03   -0.28995E-02   -0.29569E-02  5760   0.183E-01-0.834E-03
 gam= 1.025 trial= 0.185  step= 0.235 mean= 0.185
 gam= 0.837 g(H,U,f)=  0.794E-02 0.719E-02 0.153E-03 ort(H,U,f) =-0.152E-02 0.174E-02 0.339E-04
CGA:  90    -0.224715583192E+03   -0.20194E-02   -0.20439E-02  5760   0.153E-01 0.254E-03
 gam= 0.837 trial= 0.188  step= 0.201 mean= 0.188
 gam= 0.556 g(H,U,f)=  0.554E-02 0.279E-02 0.168E-03 ort(H,U,f) =-0.218E-02 0.218E-02 0.160E-03
CGA:  91    -0.224717142519E+03   -0.15593E-02   -0.15601E-02  5760   0.849E-02 0.157E-03
 gam= 0.556 trial= 0.188  step= 0.253 mean= 0.188
 gam= 0.840 g(H,U,f)=  0.445E-02 0.263E-02 0.552E-04 ort(H,U,f) =-0.452E-03 0.941E-03 0.124E-03
CGA:  92    -0.224718251629E+03   -0.11091E-02   -0.10864E-02  5760   0.714E-02 0.613E-03
 gam= 0.840 trial= 0.192  step= 0.257 mean= 0.192
 gam= 1.057 g(H,U,f)=  0.384E-02 0.369E-02 0.209E-04 ort(H,U,f) =-0.243E-03 0.470E-03-0.771E-04
CGA:  93    -0.224719240661E+03   -0.98903E-03   -0.98512E-03  5760   0.755E-02 0.150E-03
 gam= 1.057 trial= 0.195  step= 0.246 mean= 0.195
 gam= 0.677 g(H,U,f)=  0.263E-02 0.243E-02 0.556E-04 ort(H,U,f) =-0.140E-02 0.115E-02-0.267E-04
CGA:  94    -0.224720175798E+03   -0.93514E-03   -0.94911E-03  5760   0.511E-02-0.277E-03
 gam= 0.677 trial= 0.198  step= 0.270 mean= 0.198
 gam= 0.000 g(H,U,f)=  0.236E-02 0.215E-02 0.894E-04 ort(H,U,f) =-0.148E-02 0.152E-02 0.139E-03
SDA:  95    -0.224720844122E+03   -0.66832E-03   -0.66452E-03  5760   0.460E-02 0.181E-03
 gam= 0.000 trial= 0.201  step= 0.344 mean= 0.201
 gam= 0.896 g(H,U,f)=  0.108E-02 0.303E-02 0.180E-04 ort(H,U,f) = 0.382E-03-0.191E-03-0.969E-05
CGA:  96    -0.224721626024E+03   -0.78190E-03   -0.79151E-03  5760   0.413E-02 0.181E-03
 gam= 0.896 trial= 0.208  step= 0.204 mean= 0.208
 gam= 0.760 g(H,U,f)=  0.894E-03 0.222E-02 0.191E-04 ort(H,U,f) =-0.119E-03 0.202E-04 0.709E-05
CGA:  97    -0.224722064663E+03   -0.43864E-03   -0.43731E-03  5760   0.313E-02-0.921E-04
 gam= 0.760 trial= 0.208  step= 0.583 mean= 0.208
 gam= 0.760 g(H,U,f)=  0.133E-02 0.104E-02 0.164E-04 ort(H,U,f) =-0.135E-02 0.112E-02 0.268E-04
CGA:  98    -0.224722905943E+03   -0.84128E-03   -0.89304E-03  5760   0.238E-02-0.204E-03
 gam= 0.760 trial= 0.227  step= 0.748 mean= 0.227
 gam= 1.561 g(H,U,f)=  0.164E-02 0.204E-02 0.367E-04 ort(H,U,f) =-0.675E-03 0.780E-03 0.452E-04
CGA:  99    -0.224723760277E+03   -0.85433E-03   -0.83325E-03  5760   0.372E-02 0.150E-03
 gam= 1.561 trial= 0.253  step= 0.306 mean= 0.253
 gam= 1.468 g(H,U,f)=  0.163E-02 0.377E-02 0.491E-04 ort(H,U,f) =-0.406E-03 0.583E-03-0.109E-04
CGA: 100    -0.224724358723E+03   -0.59845E-03   -0.60487E-03  5760   0.545E-02 0.166E-03
 gam= 1.468 trial= 0.256  step= 0.363 mean= 0.256
 gam= 0.817 g(H,U,f)=  0.183E-02 0.250E-02 0.129E-03 ort(H,U,f) =-0.127E-02 0.109E-02 0.350E-03
CGA: 101    -0.224725370272E+03   -0.10115E-02   -0.10355E-02  5760   0.445E-02 0.177E-03
 gam= 0.817 trial= 0.261  step= 0.519 mean= 0.261
 gam= 0.807 g(H,U,f)=  0.171E-02 0.184E-02 0.386E-04 ort(H,U,f) =-0.906E-03 0.159E-02 0.951E-05
CGA: 102    -0.224726663938E+03   -0.12937E-02   -0.11940E-02  5760   0.360E-02 0.693E-03
 gam= 0.807 trial= 0.274  step= 0.470 mean= 0.274
 gam= 2.537 g(H,U,f)=  0.181E-02 0.727E-02 0.393E-04 ort(H,U,f) =-0.178E-03 0.424E-03 0.552E-04
CGA: 103    -0.224727634159E+03   -0.97022E-03   -0.97676E-03  5760   0.912E-02 0.301E-03
 gam= 2.537 trial= 0.284  step= 0.349 mean= 0.284
 gam= 0.897 g(H,U,f)=  0.362E-02 0.441E-02 0.161E-03 ort(H,U,f) =-0.360E-02 0.270E-02-0.885E-03
CGA: 104    -0.224729281692E+03   -0.16475E-02   -0.17241E-02  5760   0.818E-02-0.179E-02
 gam= 0.897 trial= 0.287  step= 0.529 mean= 0.287
 gam= 1.174 g(H,U,f)=  0.562E-02 0.392E-02 0.706E-04 ort(H,U,f) =-0.385E-02 0.262E-02 0.356E-03
CGA: 105    -0.224730820169E+03   -0.15385E-02   -0.17385E-02  5760   0.961E-02-0.880E-03
 gam= 1.174 trial= 0.299  step= 0.297 mean= 0.299
 gam= 1.136 g(H,U,f)=  0.457E-02 0.631E-02 0.392E-04 ort(H,U,f) =-0.454E-03 0.825E-03-0.222E-03
CGA: 106    -0.224732097078E+03   -0.12769E-02   -0.12754E-02  5760   0.109E-01 0.149E-03
 gam= 1.136 trial= 0.299  step= 0.313 mean= 0.299
 gam= 0.552 g(H,U,f)=  0.286E-02 0.316E-02 0.470E-05 ort(H,U,f) =-0.432E-03 0.580E-03-0.697E-04
CGA: 107    -0.224733835826E+03   -0.17387E-02   -0.17366E-02  5760   0.603E-02 0.789E-04
 gam= 0.552 trial= 0.300  step= 0.460 mean= 0.300
 gam= 0.677 g(H,U,f)=  0.160E-02 0.244E-02 0.382E-04 ort(H,U,f) =-0.646E-03 0.570E-03-0.226E-03
CGA: 108    -0.224735209712E+03   -0.13739E-02   -0.13947E-02  5760   0.408E-02-0.302E-03
 gam= 0.677 trial= 0.308  step= 0.290 mean= 0.308
 gam= 1.167 g(H,U,f)=  0.159E-02 0.317E-02 0.843E-05 ort(H,U,f) = 0.175E-03-0.105E-03 0.300E-04
CGA: 109    -0.224735774912E+03   -0.56520E-03   -0.56084E-03  5760   0.476E-02 0.995E-04
 gam= 1.167 trial= 0.307  step= 0.357 mean= 0.307
 gam= 0.837 g(H,U,f)=  0.168E-02 0.222E-02 0.862E-04 ort(H,U,f) =-0.828E-03 0.546E-03-0.206E-03
CGA: 110    -0.224736625233E+03   -0.85032E-03   -0.87117E-03  5760   0.398E-02-0.488E-03
 gam= 0.837 trial= 0.309  step= 0.393 mean= 0.309
 gam= 0.783 g(H,U,f)=  0.114E-02 0.198E-02 0.311E-05 ort(H,U,f) =-0.872E-03 0.716E-03-0.109E-04
CGA: 111    -0.224737314842E+03   -0.68961E-03   -0.70185E-03  5760   0.312E-02-0.167E-03
 gam= 0.783 trial= 0.313  step= 0.254 mean= 0.313
 gam= 0.847 g(H,U,f)=  0.121E-02 0.142E-02 0.141E-04 ort(H,U,f) =-0.484E-03 0.526E-03-0.171E-04
CGA: 112    -0.224737709513E+03   -0.39467E-03   -0.37901E-03  5760   0.264E-02 0.248E-04
 gam= 0.847 trial= 0.310  step= 0.466 mean= 0.310
 gam= 1.199 g(H,U,f)=  0.142E-02 0.172E-02 0.269E-04 ort(H,U,f) =-0.561E-03 0.513E-03 0.166E-05
CGA: 113    -0.224738322288E+03   -0.61278E-03   -0.62018E-03  5760   0.317E-02-0.466E-04
 gam= 1.199 trial= 0.318  step= 0.345 mean= 0.318
 gam= 0.835 g(H,U,f)=  0.112E-02 0.151E-02 0.157E-04 ort(H,U,f) =-0.476E-03 0.494E-03-0.208E-04
CGA: 114    -0.224738853207E+03   -0.53092E-03   -0.53680E-03  5760   0.265E-02-0.210E-05
 gam= 0.835 trial= 0.320  step= 0.238 mean= 0.320
 gam= 0.665 g(H,U,f)=  0.890E-03 0.865E-03 0.328E-05 ort(H,U,f) =-0.182E-03 0.211E-03-0.353E-05
CGA: 115    -0.224739173246E+03   -0.32004E-03   -0.31437E-03  5760   0.176E-02 0.255E-04
 gam= 0.665 trial= 0.315  step= 0.545 mean= 0.315
 gam= 1.154 g(H,U,f)=  0.708E-03 0.129E-02 0.346E-04 ort(H,U,f) =-0.204E-03 0.133E-03 0.564E-05
CGA: 116    -0.224739632764E+03   -0.45952E-03   -0.48431E-03  5760   0.203E-02-0.654E-04
 gam= 1.154 trial= 0.327  step= 0.225 mean= 0.327
 gam= 0.576 g(H,U,f)=  0.539E-03 0.627E-03 0.173E-05 ort(H,U,f) =-0.225E-03 0.268E-03 0.157E-05
CGA: 117    -0.224739853735E+03   -0.22097E-03   -0.21995E-03  5760   0.117E-02 0.442E-04
 gam= 0.576 trial= 0.322  step= 0.344 mean= 0.322
 gam= 0.739 g(H,U,f)=  0.332E-03 0.527E-03 0.339E-05 ort(H,U,f) =-0.652E-04 0.403E-04 0.553E-05
CGA: 118    -0.224740056848E+03   -0.20311E-03   -0.20509E-03  5760   0.863E-03-0.194E-04
 gam= 0.739 trial= 0.323  step= 0.337 mean= 0.323
 gam= 1.067 g(H,U,f)=  0.323E-03 0.594E-03 0.404E-05 ort(H,U,f) =-0.292E-04 0.360E-04-0.791E-05
CGA: 119    -0.224740199308E+03   -0.14246E-03   -0.14277E-03  5760   0.921E-03-0.112E-05
 gam= 1.067 trial= 0.324  step= 0.261 mean= 0.324
 gam= 0.496 g(H,U,f)=  0.220E-03 0.235E-03 0.133E-05 ort(H,U,f) =-0.142E-03 0.148E-03 0.111E-05
CGA: 120    -0.224740321385E+03   -0.12208E-03   -0.12020E-03  5760   0.457E-03 0.677E-05
 gam= 0.496 trial= 0.321  step= 0.436 mean= 0.321
 gam= 1.063 g(H,U,f)=  0.171E-03 0.312E-03 0.249E-05 ort(H,U,f) =-0.363E-04 0.335E-04-0.206E-05
CGA: 121    -0.224740418663E+03   -0.97278E-04   -0.10019E-03  5760   0.486E-03-0.484E-05
 gam= 1.063 trial= 0.326  step= 0.230 mean= 0.326
 gam= 0.744 g(H,U,f)=  0.166E-03 0.193E-03 0.257E-05 ort(H,U,f) =-0.351E-04 0.335E-04 0.183E-05
CGA: 122    -0.224740477043E+03   -0.58380E-04   -0.55147E-04  5760   0.361E-03 0.220E-06
 gam= 0.744 trial= 0.321  step= 0.416 mean= 0.321
 gam= 0.672 g(H,U,f)=  0.116E-03 0.126E-03 0.553E-06 ort(H,U,f) =-0.615E-04 0.543E-04 0.409E-06
CGA: 123    -0.224740551909E+03   -0.74866E-04   -0.75198E-04  5760   0.243E-03-0.683E-05
 gam= 0.672 trial= 0.326  step= 0.485 mean= 0.326
 gam= 1.135 g(H,U,f)=  0.839E-04 0.187E-03 0.435E-05 ort(H,U,f) =-0.319E-04 0.352E-04-0.653E-06
CGA: 124    -0.224740608629E+03   -0.56720E-04   -0.57734E-04  5760   0.275E-03 0.265E-05
 gam= 1.135 trial= 0.334  step= 0.232 mean= 0.334
 gam= 0.887 g(H,U,f)=  0.863E-04 0.155E-03 0.279E-05 ort(H,U,f) =-0.368E-04 0.455E-04-0.414E-05
CGA: 125    -0.224740642105E+03   -0.33476E-04   -0.32223E-04  5760   0.244E-03 0.454E-05
 gam= 0.887 trial= 0.329  step= 0.476 mean= 0.329
 gam= 0.000 g(H,U,f)=  0.110E-03 0.136E-03 0.502E-06 ort(H,U,f) =-0.787E-04 0.710E-04 0.936E-06
SDA: 126    -0.224740700112E+03   -0.58007E-04   -0.59090E-04  5760   0.247E-03-0.667E-05
 gam= 0.000 trial= 0.336  step= 0.333 mean= 0.336
 gam= 0.977 g(H,U,f)=  0.527E-04 0.187E-03 0.192E-05 ort(H,U,f) = 0.287E-04-0.230E-04-0.655E-06
CGA: 127    -0.224740741265E+03   -0.41153E-04   -0.41133E-04  5760   0.242E-03 0.502E-05
 gam= 0.977 trial= 0.336  step= 0.199 mean= 0.336
 gam= 0.604 g(H,U,f)=  0.356E-04 0.109E-03 0.108E-05 ort(H,U,f) = 0.665E-05 0.144E-05-0.715E-06
CGA: 128    -0.224740767848E+03   -0.26583E-04   -0.24559E-04  5760   0.146E-03 0.738E-05
 gam= 0.604 trial= 0.329  step= 0.533 mean= 0.329
 gam= 0.812 g(H,U,f)=  0.438E-04 0.740E-04 0.609E-06 ort(H,U,f) =-0.359E-04 0.404E-04 0.373E-06
CGA: 129    -0.224740808266E+03   -0.40418E-04   -0.40079E-04  5760   0.118E-03 0.485E-05
 gam= 0.812 trial= 0.340  step= 0.744 mean= 0.340
 gam= 0.970 g(H,U,f)=  0.553E-04 0.594E-04 0.211E-06 ort(H,U,f) =-0.356E-04 0.453E-04 0.293E-06
CGA: 130    -0.224740855876E+03   -0.47610E-04   -0.45546E-04  5760   0.115E-03 0.998E-05
 gam= 0.970 trial= 0.360  step= 0.846 mean= 0.360
 gam= 1.309 g(H,U,f)=  0.573E-04 0.916E-04 0.142E-05 ort(H,U,f) =-0.302E-04 0.294E-04-0.165E-05
CGA: 131    -0.224740908448E+03   -0.52572E-04   -0.52708E-04  5760   0.150E-03-0.246E-05
 gam= 1.309 trial= 0.384  step= 0.429 mean= 0.384
 gam= 2.290 g(H,U,f)=  0.639E-04 0.279E-03 0.112E-05 ort(H,U,f) =-0.924E-05 0.200E-04-0.796E-07
CGA: 132    -0.224740939729E+03   -0.31282E-04   -0.31528E-04  5760   0.344E-03 0.107E-04
 gam= 2.290 trial= 0.386  step= 0.334 mean= 0.386
 gam= 0.597 g(H,U,f)=  0.938E-04 0.109E-03 0.258E-05 ort(H,U,f) =-0.816E-04 0.780E-04-0.294E-05
CGA: 133    -0.224741002443E+03   -0.62714E-04   -0.61638E-04  5760   0.206E-03-0.652E-05
 gam= 0.597 trial= 0.384  step= 0.521 mean= 0.384
 gam= 1.656 g(H,U,f)=  0.891E-04 0.247E-03 0.452E-05 ort(H,U,f) =-0.213E-04 0.217E-04-0.114E-05
CGA: 134    -0.224741053800E+03   -0.51357E-04   -0.52540E-04  5760   0.340E-03-0.740E-06
 gam= 1.656 trial= 0.391  step= 0.266 mean= 0.391
 gam= 0.857 g(H,U,f)=  0.785E-04 0.212E-03 0.666E-06 ort(H,U,f) =-0.158E-04 0.227E-04 0.553E-06
CGA: 135    -0.224741102058E+03   -0.48258E-04   -0.45112E-04  5760   0.291E-03 0.742E-05
 gam= 0.857 trial= 0.384  step= 0.431 mean= 0.384
 gam= 0.637 g(H,U,f)=  0.613E-04 0.124E-03 0.639E-06 ort(H,U,f) =-0.481E-04 0.392E-04 0.768E-06
CGA: 136    -0.224741165786E+03   -0.63728E-04   -0.64108E-04  5760   0.186E-03-0.811E-05
 gam= 0.637 trial= 0.387  step= 0.271 mean= 0.387
 gam= 0.922 g(H,U,f)=  0.506E-04 0.120E-03 0.103E-05 ort(H,U,f) =-0.162E-05 0.140E-04-0.115E-05
CGA: 137    -0.224741190996E+03   -0.25210E-04   -0.24453E-04  5760   0.171E-03 0.112E-04
 gam= 0.922 trial= 0.381  step= 0.338 mean= 0.381
 gam= 0.741 g(H,U,f)=  0.408E-04 0.853E-04 0.654E-06 ort(H,U,f) =-0.125E-04 0.144E-04 0.995E-07
CGA: 138    -0.224741222184E+03   -0.31188E-04   -0.30718E-04  5760   0.127E-03 0.201E-05
 gam= 0.741 trial= 0.379  step= 0.374 mean= 0.379
 gam= 1.231 g(H,U,f)=  0.324E-04 0.123E-03 0.638E-06 ort(H,U,f) =-0.608E-05 0.855E-05-0.651E-06
CGA: 139    -0.224741246185E+03   -0.24001E-04   -0.23967E-04  5760   0.156E-03 0.182E-05
 gam= 1.231 trial= 0.379  step= 0.258 mean= 0.379
 gam= 0.437 g(H,U,f)=  0.282E-04 0.394E-04 0.524E-06 ort(H,U,f) =-0.212E-04 0.217E-04 0.275E-06
CGA: 140    -0.224741267439E+03   -0.21254E-04   -0.20378E-04  5760   0.681E-04 0.774E-06
 gam= 0.437 trial= 0.372  step= 0.430 mean= 0.372
 gam= 1.490 g(H,U,f)=  0.245E-04 0.762E-04 0.815E-06 ort(H,U,f) =-0.740E-06 0.382E-05-0.539E-06
CGA: 141    -0.224741281982E+03   -0.14543E-04   -0.14709E-04  5760   0.102E-03 0.254E-05
 gam= 1.490 trial= 0.375  step= 0.276 mean= 0.375
 gam= 0.689 g(H,U,f)=  0.213E-04 0.478E-04 0.890E-06 ort(H,U,f) =-0.812E-05 0.110E-04 0.735E-06
CGA: 142    -0.224741297169E+03   -0.15187E-04   -0.14556E-04  5760   0.700E-04 0.365E-05
 gam= 0.689 trial= 0.370  step= 0.381 mean= 0.370
 gam= 0.826 g(H,U,f)=  0.172E-04 0.401E-04 0.455E-06 ort(H,U,f) =-0.112E-04 0.159E-04 0.299E-06
CGA: 143    -0.224741310986E+03   -0.13817E-04   -0.13808E-04  5760   0.578E-04 0.500E-05
 gam= 0.826 trial= 0.371  step= 0.286 mean= 0.371
 gam= 0.992 g(H,U,f)=  0.169E-04 0.394E-04 0.104E-05 ort(H,U,f) =-0.482E-05 0.907E-05 0.980E-06
CGA: 144    -0.224741320068E+03   -0.90819E-05   -0.88639E-05  5760   0.573E-04 0.523E-05
 gam= 0.992 trial= 0.367  step= 0.419 mean= 0.367
 gam= 1.075 g(H,U,f)=  0.204E-04 0.407E-04 0.558E-06 ort(H,U,f) =-0.975E-05 0.106E-04-0.106E-05
CGA: 145    -0.224741333071E+03   -0.13003E-04   -0.13102E-04  5760   0.616E-04-0.251E-06
 gam= 1.075 trial= 0.369  step= 0.313 mean= 0.369
 gam= 0.870 g(H,U,f)=  0.156E-04 0.374E-04 0.609E-06 ort(H,U,f) =-0.834E-05 0.882E-05 0.520E-06
CGA: 146    -0.224741342906E+03   -0.98348E-05   -0.95917E-05  5760   0.536E-04 0.996E-06
 gam= 0.870 trial= 0.366  step= 0.283 mean= 0.366
 gam= 0.625 g(H,U,f)=  0.135E-04 0.198E-04 0.245E-06 ort(H,U,f) =-0.335E-05 0.446E-05 0.442E-07
CGA: 147    -0.224741350801E+03   -0.78948E-05   -0.77043E-05  5760   0.335E-04 0.116E-05
 gam= 0.625 trial= 0.362  step= 0.357 mean= 0.362
 gam= 1.000 g(H,U,f)=  0.102E-04 0.225E-04 0.793E-06 ort(H,U,f) = 0.194E-06 0.839E-06 0.881E-06
CGA: 148    -0.224741356920E+03   -0.61197E-05   -0.61152E-05  5760   0.335E-04 0.191E-05
 gam= 1.000 trial= 0.362  step= 0.271 mean= 0.362
 gam= 0.610 g(H,U,f)=  0.635E-05 0.138E-04 0.245E-06 ort(H,U,f) = 0.505E-06 0.729E-06-0.118E-06
CGA: 149    -0.224741361838E+03   -0.49173E-05   -0.48014E-05  5760   0.204E-04 0.112E-05
 gam= 0.610 trial= 0.358  step= 0.326 mean= 0.358
 gam= 0.846 g(H,U,f)=  0.463E-05 0.124E-04 0.240E-06 ort(H,U,f) =-0.146E-05 0.730E-06 0.213E-07
CGA: 150    -0.224741365329E+03   -0.34916E-05   -0.34434E-05  5760   0.173E-04-0.709E-06
 gam= 0.846 trial= 0.356  step= 0.268 mean= 0.356
 gam= 0.706 g(H,U,f)=  0.398E-05 0.802E-05 0.203E-06 ort(H,U,f) =-0.187E-05 0.170E-05-0.441E-06
CGA: 151    -0.224741367663E+03   -0.23335E-05   -0.22354E-05  5760   0.122E-04-0.613E-06
 gam= 0.706 trial= 0.352  step= 0.403 mean= 0.352
 gam= 0.932 g(H,U,f)=  0.366E-05 0.752E-05 0.197E-06 ort(H,U,f) =-0.136E-05 0.150E-05-0.512E-07
CGA: 152    -0.224741370009E+03   -0.23460E-05   -0.23719E-05  5760   0.114E-04 0.915E-07
 gam= 0.932 trial= 0.354  step= 0.265 mean= 0.354
 gam= 0.869 g(H,U,f)=  0.306E-05 0.664E-05 0.181E-06 ort(H,U,f) =-0.806E-06 0.168E-05-0.209E-06
CGA: 153    -0.224741371577E+03   -0.15684E-05   -0.15203E-05  5760   0.988E-05 0.667E-06
 gam= 0.869 trial= 0.350  step= 0.436 mean= 0.350
 gam= 0.937 g(H,U,f)=  0.243E-05 0.669E-05 0.138E-06 ort(H,U,f) =-0.160E-05 0.182E-05-0.494E-07
CGA: 154    -0.224741373840E+03   -0.22631E-05   -0.22821E-05  5760   0.926E-05 0.169E-06
 gam= 0.937 trial= 0.354  step= 0.268 mean= 0.354
 gam= 0.878 g(H,U,f)=  0.274E-05 0.519E-05 0.193E-06 ort(H,U,f) =-0.136E-05 0.174E-05-0.152E-06
CGA: 155    -0.224741375141E+03   -0.13008E-05   -0.12626E-05  5760   0.813E-05 0.223E-06
 gam= 0.878 trial= 0.350  step= 0.472 mean= 0.350
 gam= 1.461 g(H,U,f)=  0.317E-05 0.860E-05 0.103E-06 ort(H,U,f) =-0.111E-05 0.106E-05-0.429E-07
CGA: 156    -0.224741377044E+03   -0.19029E-05   -0.19648E-05  5760   0.119E-04-0.849E-07
 gam= 1.461 trial= 0.356  step= 0.346 mean= 0.356
 gam= 0.000 g(H,U,f)=  0.345E-05 0.910E-05 0.122E-06 ort(H,U,f) =-0.217E-05 0.263E-05-0.564E-07
SDA: 157    -0.224741379087E+03   -0.20428E-05   -0.20356E-05  5760   0.127E-04 0.404E-06
 gam= 0.000 trial= 0.355  step= 0.125 mean= 0.355
 gam= 0.372 g(H,U,f)=  0.165E-05 0.307E-05 0.576E-08 ort(H,U,f) = 0.165E-05-0.402E-06-0.587E-08
CGA: 158    -0.224741379965E+03   -0.87833E-06   -0.79195E-06  5760   0.472E-05 0.125E-05
 gam= 0.372 trial= 0.344  step= 0.521 mean= 0.344
 gam= 0.909 g(H,U,f)=  0.138E-05 0.287E-05 0.480E-07 ort(H,U,f) =-0.405E-06 0.540E-06 0.203E-07
CGA: 159    -0.224741381313E+03   -0.13482E-05   -0.13495E-05  5760   0.429E-05 0.156E-06
 gam= 0.909 trial= 0.353  step= 0.808 mean= 0.353
 gam= 2.073 g(H,U,f)=  0.265E-05 0.623E-05 0.168E-07 ort(H,U,f) =-0.177E-05 0.901E-06 0.318E-07
CGA: 160    -0.224741382912E+03   -0.15985E-05   -0.17913E-05  5760   0.890E-05-0.839E-06
 gam= 2.073 trial= 0.375  step= 0.152 mean= 0.375
 gam= 0.561 g(H,U,f)=  0.284E-05 0.211E-05 0.395E-07 ort(H,U,f) =-0.254E-05 0.276E-05-0.119E-06
CGA: 161    -0.224741383571E+03   -0.65907E-06   -0.54529E-06  5760   0.499E-05 0.983E-07
 gam= 0.561 trial= 0.364  step= 0.406 mean= 0.364
 gam= 1.247 g(H,U,f)=  0.194E-05 0.426E-05 0.157E-07 ort(H,U,f) =-0.414E-06 0.325E-06 0.189E-07
CGA: 162    -0.224741384592E+03   -0.10209E-05   -0.10240E-05  5760   0.622E-05-0.704E-07
 gam= 1.247 trial= 0.366  step= 0.170 mean= 0.366
 gam= 0.848 g(H,U,f)=  0.194E-05 0.315E-05 0.176E-06 ort(H,U,f) = 0.174E-07 0.521E-06 0.133E-06
CGA: 163    -0.224741385153E+03   -0.56070E-06   -0.52135E-06  5760   0.527E-05 0.671E-06
 gam= 0.848 trial= 0.357  step= 0.357 mean= 0.357
 gam= 0.967 g(H,U,f)=  0.147E-05 0.360E-05 0.212E-07 ort(H,U,f) =-0.717E-06 0.113E-05 0.707E-07
CGA: 164    -0.224741386196E+03   -0.10430E-05   -0.10428E-05  5760   0.510E-05 0.486E-06
 gam= 0.967 trial= 0.357  step= 0.166 mean= 0.357
 gam= 0.873 g(H,U,f)=  0.173E-05 0.264E-05 0.754E-07 ort(H,U,f) =-0.528E-06 0.912E-06-0.209E-06
CGA: 165    -0.224741386702E+03   -0.50611E-06   -0.46330E-06  5760   0.445E-05 0.175E-06
 gam= 0.873 trial= 0.347  step= 0.570 mean= 0.347
 gam= 1.634 g(H,U,f)=  0.261E-05 0.459E-05 0.670E-07 ort(H,U,f) =-0.183E-05 0.826E-06-0.103E-06
CGA: 166    -0.224741387889E+03   -0.11870E-05   -0.13110E-05  5760   0.727E-05-0.111E-05
 gam= 1.634 trial= 0.358  step= 0.148 mean= 0.358
 gam= 0.846 g(H,U,f)=  0.289E-05 0.326E-05 0.305E-08 ort(H,U,f) =-0.202E-05 0.255E-05 0.580E-08
CGA: 167    -0.224741388334E+03   -0.44515E-06   -0.40459E-06  5760   0.615E-05 0.539E-06
 gam= 0.846 trial= 0.348  step= 0.311 mean= 0.348
 gam= 1.118 g(H,U,f)=  0.254E-05 0.430E-05 0.288E-07 ort(H,U,f) =-0.132E-05 0.216E-05 0.627E-07
CGA: 168    -0.224741389347E+03   -0.10128E-05   -0.10282E-05  5760   0.687E-05 0.902E-06
 gam= 1.118 trial= 0.346  step= 0.154 mean= 0.346
 gam= 0.697 g(H,U,f)=  0.241E-05 0.236E-05 0.238E-07 ort(H,U,f) =-0.557E-06 0.151E-05-0.325E-07
CGA: 169    -0.224741389971E+03   -0.62420E-06   -0.60490E-06  5760   0.479E-05 0.921E-06
 gam= 0.697 trial= 0.336  step= 0.490 mean= 0.336
 gam= 1.531 g(H,U,f)=  0.211E-05 0.517E-05 0.538E-07 ort(H,U,f) =-0.766E-06 0.971E-06-0.575E-07
CGA: 170    -0.224741391312E+03   -0.13414E-05   -0.13294E-05  5760   0.733E-05 0.147E-06
 gam= 1.531 trial= 0.344  step= 0.145 mean= 0.344
 gam= 0.582 g(H,U,f)=  0.218E-05 0.208E-05 0.928E-08 ort(H,U,f) =-0.106E-05 0.140E-05-0.310E-07
CGA: 171    -0.224741391974E+03   -0.66204E-06   -0.54818E-06  5760   0.426E-05 0.303E-06
 gam= 0.582 trial= 0.334  step= 0.458 mean= 0.334
 gam= 1.475 g(H,U,f)=  0.205E-05 0.422E-05 0.150E-07 ort(H,U,f) =-0.930E-06 0.149E-06 0.188E-08
CGA: 172    -0.224741392936E+03   -0.96119E-06   -0.10166E-05  5760   0.629E-05-0.779E-06
 gam= 1.475 trial= 0.340  step= 0.129 mean= 0.340
 final diagonalization
   1 F= -.23409081E+03 E0= -.23408763E+03  d E =-.636463E-02  mag=     6.0000
