 running on   64 total cores
 distrk:  each k-point on   64 cores,    1 groups
 distr:  one band on    4 cores,   16 groups
 using from now: INCAR     
 vasp.5.4.4.18Apr17-6-g9f103f2a35 (build Nov 22 2021 14:44:17) complex          
  
 POSCAR found type information on POSCAR  Li Co O 
 POSCAR found :  3 types and      42 ions
 scaLAPACK will be used
 LDA part: xc-table for Pade appr. of Perdew
 generate k-points for:    6    6    2
 POSCAR, INCAR and KPOINTS ok, starting setup
 FFT: planning ...
 WAVECAR not read
 entering main loop
       N       E                     dE             d eps       ncg     rms          ort
DAV:   1     0.348776324958E+04    0.34878E+04   -0.13937E+05  5760   0.219E+03
DAV:   2     0.413504413348E+03   -0.30743E+04   -0.28384E+04  5760   0.534E+02
DAV:   3    -0.218189851874E+03   -0.63169E+03   -0.57487E+03  5760   0.254E+02
DAV:   4    -0.269996203229E+03   -0.51806E+02   -0.50663E+02  5760   0.748E+01
DAV:   5    -0.271817252361E+03   -0.18210E+01   -0.18180E+01  5760   0.140E+01
 gam= 0.000 g(H,U,f)=  0.183E+04 0.127E+04 0.430E+04 ort(H,U,f) = 0.000E+00 0.000E+00 0.000E+00
SDA:   6     0.132997027557E+03    0.40481E+03   -0.18180E+01  5760   0.740E+04 0.000E+00
 gam= 0.000 trial= 0.400  step= 0.095 mean= 0.400
 gam= 0.000 g(H,U,f)=  0.116E+04 0.811E+04 0.128E+05 ort(H,U,f) = 0.575E+03-0.293E+04-0.559E+04
CGA:   7     0.127804170084E+03   -0.51929E+01   -0.35011E+03  5760   0.221E+05-0.795E+04
 gam= 0.000 trial= 0.385  step= 0.097 mean= 0.385
 gam= 0.000 g(H,U,f)=  0.326E+04 0.735E+05 0.121E+06 ort(H,U,f) =-0.129E+04-0.250E+05-0.407E+05
CGA:   8     0.122595780376E+04    0.10982E+04   -0.10730E+04  5760   0.197E+06-0.670E+05
 gam= 0.000 trial= 0.370  step= 0.163 mean= 0.370
 gam= 0.180 g(H,U,f)=  0.103E+05 0.161E+05 0.912E+04 ort(H,U,f) =-0.559E+04-0.514E+04-0.326E+04
CGA:   9     0.528846447455E+04    0.40625E+04   -0.16093E+05  5760   0.355E+05-0.140E+05
 gam= 0.180 trial= 0.360  step= 0.109 mean= 0.360
 gam= 0.000 g(H,U,f)=  0.826E+04 0.218E+05 0.134E+05 ort(H,U,f) =-0.611E+04 0.109E+05 0.166E+05
CGA:  10     0.298972812441E+04   -0.22987E+04   -0.18055E+04  5760   0.435E+05 0.214E+05
 gam= 0.000 trial= 0.347  step= 0.102 mean= 0.347
 gam= 0.000 g(H,U,f)=  0.114E+05 0.533E+05 0.553E+03 ort(H,U,f) =-0.723E+04-0.493E+05-0.522E+03
CGA:  11     0.374693133010E+04    0.75720E+03   -0.22085E+04  5760   0.653E+05-0.570E+05
 gam= 0.000 trial= 0.335  step= 0.115 mean= 0.335
 gam= 0.000 g(H,U,f)=  0.148E+05 0.642E+05 0.300E+02 ort(H,U,f) =-0.911E+04-0.428E+05 0.686E+00
CGA:  12     0.431630814832E+04    0.56938E+03   -0.37645E+04  5760   0.790E+05-0.519E+05
 gam= 0.000 trial= 0.324  step= 0.122 mean= 0.324
 gam= 0.289 g(H,U,f)=  0.120E+05 0.104E+05 0.395E+03 ort(H,U,f) =-0.743E+04-0.985E+04-0.108E+04
CGA:  13     0.271628193793E+04   -0.16000E+04   -0.48330E+04  5760   0.228E+05-0.184E+05
 gam= 0.289 trial= 0.314  step= 0.062 mean= 0.314
 gam= 4.357 g(H,U,f)=  0.120E+05 0.558E+05 0.317E+05 ort(H,U,f) = 0.511E+04-0.196E+04-0.589E+04
CGA:  14     0.308286765504E+04    0.36659E+03   -0.53917E+03  5760   0.995E+05-0.274E+04
 gam= 4.357 trial= 0.301  step= 0.109 mean= 0.301
 gam= 1.371 g(H,U,f)=  0.104E+06 0.310E+05 0.107E+04 ort(H,U,f) =-0.819E+04-0.668E+04-0.178E+03
CGA:  15     0.100343138866E+05    0.69514E+04   -0.47547E+04  5760   0.136E+06-0.151E+05
 gam= 1.371 trial= 0.292  step= 0.165 mean= 0.292
 gam= 0.916 g(H,U,f)=  0.106E+06 0.187E+05 0.360E+03 ort(H,U,f) = 0.284E+05 0.394E+04 0.589E+02
CGA:  16     0.906970837646E+04   -0.96461E+03   -0.95292E+04  5760   0.125E+06 0.324E+05
 gam= 0.916 trial= 0.285  step= 0.158 mean= 0.285
 gam= 0.554 g(H,U,f)=  0.652E+05 0.394E+04 0.974E+02 ort(H,U,f) = 0.352E+05 0.269E+04 0.602E+02
CGA:  17     0.545153479251E+04   -0.36182E+04   -0.12210E+05  5760   0.693E+05 0.380E+05
 gam= 0.554 trial= 0.279  step= 0.117 mean= 0.279
 gam= 0.581 g(H,U,f)=  0.379E+05 0.229E+04 0.741E+02 ort(H,U,f) = 0.301E+05 0.278E+04 0.119E+03
CGA:  18     0.439290857975E+04   -0.10586E+04   -0.52779E+04  5760   0.403E+05 0.330E+05
 gam= 0.581 trial= 0.271  step= 0.080 mean= 0.271
 gam= 0.000 g(H,U,f)=  0.264E+05 0.223E+04 0.493E+02 ort(H,U,f) = 0.299E+05 0.369E+04 0.148E+03
CGA:  19     0.414104421089E+04   -0.25186E+03   -0.23865E+04  5760   0.287E+05 0.337E+05
 gam= 0.000 trial= 0.261  step= 0.115 mean= 0.261
 gam= 0.124 g(H,U,f)=  0.332E+04 0.223E+03 0.180E+01 ort(H,U,f) = 0.396E+04 0.540E+03 0.735E+01
CGA:  20     0.255928569614E+04   -0.15818E+04   -0.16553E+04  5760   0.354E+04 0.451E+04
 gam= 0.124 trial= 0.254  step= 0.248 mean= 0.254
 gam= 1.747 g(H,U,f)=  0.587E+04 0.312E+03 0.756E+01 ort(H,U,f) = 0.272E+03-0.101E+03-0.115E+02
CGA:  21     0.205146939157E+04   -0.50782E+03   -0.50809E+03  5760   0.619E+04 0.160E+03
 gam= 1.747 trial= 0.254  step= 0.203 mean= 0.254
 gam= 0.293 g(H,U,f)=  0.154E+04 0.263E+03 0.102E+02 ort(H,U,f) = 0.912E+03-0.969E+02-0.223E+02
CGA:  22     0.144662368326E+04   -0.60485E+03   -0.65560E+03  5760   0.182E+04 0.793E+03
 gam= 0.293 trial= 0.251  step= 0.327 mean= 0.251
 gam= 1.405 g(H,U,f)=  0.203E+04 0.515E+03 0.647E+01 ort(H,U,f) = 0.175E+03 0.218E+03 0.541E+01
CGA:  23     0.108818792843E+04   -0.35844E+03   -0.33526E+03  5760   0.255E+04 0.399E+03
 gam= 1.405 trial= 0.255  step= 0.453 mean= 0.255
 gam= 0.000 g(H,U,f)=  0.371E+04 0.719E+04 0.846E+02 ort(H,U,f) =-0.157E+04-0.155E+04-0.815E+02
CGA:  24     0.839011194798E+03   -0.24918E+03   -0.70534E+03  5760   0.110E+05-0.321E+04
 gam= 0.000 trial= 0.265  step= 0.102 mean= 0.265
 gam= 0.222 g(H,U,f)=  0.941E+03 0.148E+04 0.175E+02 ort(H,U,f) =-0.450E+03-0.204E+04-0.356E+02
CGA:  25     0.423019689517E+03   -0.41599E+03   -0.55905E+03  5760   0.244E+04-0.253E+04
 gam= 0.222 trial= 0.257  step= 0.216 mean= 0.257
 gam= 0.394 g(H,U,f)=  0.382E+03 0.571E+03 0.920E+01 ort(H,U,f) = 0.193E+03-0.276E+03-0.506E+01
CGA:  26     0.215335187251E+03   -0.20768E+03   -0.20249E+03  5760   0.962E+03-0.882E+02
 gam= 0.394 trial= 0.255  step= 0.167 mean= 0.255
 gam= 0.639 g(H,U,f)=  0.287E+03 0.323E+03 0.545E+01 ort(H,U,f) = 0.183E+03-0.178E+03-0.470E+01
CGA:  27     0.137354892694E+03   -0.77980E+02   -0.77497E+02  5760   0.615E+03 0.814E+00
 gam= 0.639 trial= 0.250  step= 0.282 mean= 0.250
 gam= 1.135 g(H,U,f)=  0.254E+03 0.437E+03 0.657E+01 ort(H,U,f) = 0.108E+03-0.117E+03-0.193E+01
CGA:  28     0.508483779141E+02   -0.86507E+02   -0.86877E+02  5760   0.698E+03-0.106E+02
 gam= 1.135 trial= 0.252  step= 0.184 mean= 0.252
 gam= 0.740 g(H,U,f)=  0.199E+03 0.314E+03 0.359E+01 ort(H,U,f) = 0.163E+03-0.174E+03-0.198E+01
CGA:  29    -0.169025405317E+02   -0.67751E+02   -0.63122E+02  5760   0.516E+03-0.138E+02
 gam= 0.740 trial= 0.249  step= 0.259 mean= 0.249
 gam= 0.940 g(H,U,f)=  0.134E+03 0.346E+03 0.480E+01 ort(H,U,f) = 0.179E+02-0.769E+02-0.119E+01
CGA:  30    -0.818132976698E+02   -0.64911E+02   -0.65475E+02  5760   0.485E+03-0.602E+02
 gam= 0.940 trial= 0.249  step= 0.127 mean= 0.249
 gam= 0.360 g(H,U,f)=  0.749E+02 0.976E+02 0.219E+01 ort(H,U,f) = 0.546E+01-0.194E+02-0.912E+00
CGA:  31    -0.109394286977E+03   -0.27581E+02   -0.27260E+02  5760   0.175E+03-0.148E+02
 gam= 0.360 trial= 0.243  step= 0.200 mean= 0.243
 gam= 1.291 g(H,U,f)=  0.767E+02 0.143E+03 0.578E+01 ort(H,U,f) = 0.207E+02-0.234E+02-0.947E+00
CGA:  32    -0.126406522599E+03   -0.17012E+02   -0.16901E+02  5760   0.226E+03-0.361E+01
 gam= 1.291 trial= 0.241  step= 0.177 mean= 0.241
 gam= 0.889 g(H,U,f)=  0.742E+02 0.124E+03 0.272E+01 ort(H,U,f) = 0.225E+02-0.233E+02-0.592E+00
CGA:  33    -0.145850484670E+03   -0.19444E+02   -0.19569E+02  5760   0.200E+03-0.133E+01
 gam= 0.889 trial= 0.238  step= 0.212 mean= 0.238
 gam= 0.522 g(H,U,f)=  0.512E+02 0.522E+02 0.135E+01 ort(H,U,f) = 0.599E+00-0.548E+01 0.579E-02
CGA:  34    -0.167070930522E+03   -0.21220E+02   -0.21139E+02  5760   0.105E+03-0.488E+01
 gam= 0.522 trial= 0.236  step= 0.184 mean= 0.236
 gam= 0.713 g(H,U,f)=  0.275E+02 0.461E+02 0.106E+01 ort(H,U,f) = 0.111E+02-0.117E+02-0.110E+00
CGA:  35    -0.176368594558E+03   -0.92977E+01   -0.93741E+01  5760   0.746E+02-0.652E+00
 gam= 0.713 trial= 0.234  step= 0.191 mean= 0.234
 gam= 0.761 g(H,U,f)=  0.202E+02 0.360E+02 0.543E+00 ort(H,U,f) = 0.667E+01-0.856E+01-0.101E+00
CGA:  36    -0.183537597524E+03   -0.71690E+01   -0.70729E+01  5760   0.567E+02-0.199E+01
 gam= 0.761 trial= 0.232  step= 0.287 mean= 0.232
 gam= 0.968 g(H,U,f)=  0.219E+02 0.327E+02 0.342E+00 ort(H,U,f) =-0.450E+01 0.300E+01 0.111E+00
CGA:  37    -0.191431936910E+03   -0.78943E+01   -0.79315E+01  5760   0.550E+02-0.140E+01
 gam= 0.968 trial= 0.234  step= 0.229 mean= 0.234
 gam= 0.928 g(H,U,f)=  0.181E+02 0.318E+02 0.105E+01 ort(H,U,f) =-0.429E+01 0.111E+00-0.714E+00
CGA:  38    -0.197596178543E+03   -0.61642E+01   -0.61427E+01  5760   0.510E+02-0.490E+01
 gam= 0.928 trial= 0.234  step= 0.168 mean= 0.234
 gam= 0.617 g(H,U,f)=  0.171E+02 0.140E+02 0.339E+00 ort(H,U,f) =-0.275E+01 0.223E+01 0.402E+00
CGA:  39    -0.201549322762E+03   -0.39531E+01   -0.38957E+01  5760   0.314E+02-0.123E+00
 gam= 0.617 trial= 0.231  step= 0.227 mean= 0.231
 gam= 1.109 g(H,U,f)=  0.143E+02 0.198E+02 0.719E+00 ort(H,U,f) = 0.146E+01-0.140E+01 0.176E+00
CGA:  40    -0.205105353421E+03   -0.35560E+01   -0.35559E+01  5760   0.349E+02 0.231E+00
 gam= 1.109 trial= 0.231  step= 0.129 mean= 0.231
 gam= 0.835 g(H,U,f)=  0.116E+02 0.167E+02 0.782E+00 ort(H,U,f) = 0.284E+01-0.185E+01-0.761E-01
CGA:  41    -0.207398701861E+03   -0.22933E+01   -0.22695E+01  5760   0.291E+02 0.918E+00
 gam= 0.835 trial= 0.226  step= 0.178 mean= 0.226
 gam= 0.702 g(H,U,f)=  0.983E+01 0.103E+02 0.247E+00 ort(H,U,f) =-0.519E+00 0.150E+01 0.120E+00
CGA:  42    -0.210018429691E+03   -0.26197E+01   -0.26569E+01  5760   0.204E+02 0.110E+01
 gam= 0.702 trial= 0.223  step= 0.174 mean= 0.223
 gam= 1.229 g(H,U,f)=  0.799E+01 0.155E+02 0.163E+01 ort(H,U,f) = 0.145E+01-0.576E+00 0.346E+00
CGA:  43    -0.211842319490E+03   -0.18239E+01   -0.18437E+01  5760   0.251E+02 0.122E+01
 gam= 1.229 trial= 0.221  step= 0.128 mean= 0.221
 gam= 0.395 g(H,U,f)=  0.543E+01 0.438E+01 0.964E-01 ort(H,U,f) =-0.835E+00 0.189E+01 0.262E+00
CGA:  44    -0.213433380565E+03   -0.15911E+01   -0.17068E+01  5760   0.991E+01 0.132E+01
 gam= 0.395 trial= 0.216  step= 0.177 mean= 0.216
 gam= 1.277 g(H,U,f)=  0.421E+01 0.791E+01 0.535E+00 ort(H,U,f) = 0.137E+01-0.668E+00-0.184E+00
CGA:  45    -0.214346319755E+03   -0.91294E+00   -0.92324E+00  5760   0.127E+02 0.517E+00
 gam= 1.277 trial= 0.214  step= 0.155 mean= 0.214
 gam= 0.918 g(H,U,f)=  0.443E+01 0.708E+01 0.101E+00 ort(H,U,f) = 0.464E+00 0.249E+00-0.947E-02
CGA:  46    -0.215350590893E+03   -0.10043E+01   -0.10329E+01  5760   0.116E+02 0.704E+00
 gam= 0.918 trial= 0.211  step= 0.193 mean= 0.211
 gam= 0.815 g(H,U,f)=  0.299E+01 0.582E+01 0.654E+00 ort(H,U,f) =-0.128E+01 0.203E+01 0.172E+00
CGA:  47    -0.216529435187E+03   -0.11788E+01   -0.11852E+01  5760   0.947E+01 0.924E+00
 gam= 0.815 trial= 0.210  step= 0.115 mean= 0.210
 gam= 0.585 g(H,U,f)=  0.261E+01 0.287E+01 0.637E-01 ort(H,U,f) =-0.103E+01 0.132E+01-0.235E-01
CGA:  48    -0.217057864252E+03   -0.52843E+00   -0.58555E+00  5760   0.554E+01 0.265E+00
 gam= 0.585 trial= 0.205  step= 0.216 mean= 0.205
 gam= 1.007 g(H,U,f)=  0.230E+01 0.302E+01 0.261E+00 ort(H,U,f) =-0.362E+00 0.621E+00 0.642E-01
CGA:  49    -0.217675458172E+03   -0.61759E+00   -0.61596E+00  5760   0.558E+01 0.323E+00
 gam= 1.007 trial= 0.206  step= 0.175 mean= 0.206
 gam= 0.928 g(H,U,f)=  0.215E+01 0.282E+01 0.206E+00 ort(H,U,f) =-0.292E+00 0.602E+00 0.658E-01
CGA:  50    -0.218184465838E+03   -0.50901E+00   -0.51696E+00  5760   0.518E+01 0.376E+00
 gam= 0.928 trial= 0.204  step= 0.180 mean= 0.204
 gam= 0.770 g(H,U,f)=  0.182E+01 0.214E+01 0.261E-01 ort(H,U,f) =-0.413E+00 0.713E+00-0.328E-01
CGA:  51    -0.218675997781E+03   -0.49153E+00   -0.49648E+00  5760   0.399E+01 0.267E+00
 gam= 0.770 trial= 0.203  step= 0.194 mean= 0.203
 gam= 0.862 g(H,U,f)=  0.149E+01 0.180E+01 0.146E+00 ort(H,U,f) =-0.379E+00 0.642E+00-0.956E-01
CGA:  52    -0.219081287009E+03   -0.40529E+00   -0.40635E+00  5760   0.344E+01 0.167E+00
 gam= 0.862 trial= 0.203  step= 0.183 mean= 0.203
 gam= 0.791 g(H,U,f)=  0.128E+01 0.138E+01 0.560E-01 ort(H,U,f) =-0.381E+00 0.436E+00 0.393E-01
CGA:  53    -0.219407296178E+03   -0.32601E+00   -0.32722E+00  5760   0.272E+01 0.943E-01
 gam= 0.791 trial= 0.202  step= 0.229 mean= 0.202
 gam= 1.078 g(H,U,f)=  0.107E+01 0.167E+01 0.196E+00 ort(H,U,f) =-0.293E+00 0.323E+00 0.305E-01
CGA:  54    -0.219728156968E+03   -0.32086E+00   -0.31992E+00  5760   0.293E+01 0.608E-01
 gam= 1.078 trial= 0.203  step= 0.187 mean= 0.203
 gam= 0.000 g(H,U,f)=  0.954E+00 0.137E+01 0.118E-01 ort(H,U,f) =-0.468E+00 0.536E+00 0.244E-01
SDA:  55    -0.220007186908E+03   -0.27903E+00   -0.28024E+00  5760   0.233E+01 0.927E-01
 gam= 0.000 trial= 0.202  step= 0.472 mean= 0.202
 gam= 1.051 g(H,U,f)=  0.832E+00 0.154E+01 0.754E-01 ort(H,U,f) =-0.636E-01 0.122E+00 0.566E-02
CGA:  56    -0.220565595098E+03   -0.55841E+00   -0.54999E+00  5760   0.245E+01 0.638E-01
 gam= 1.051 trial= 0.216  step= 0.473 mean= 0.216
 gam= 1.155 g(H,U,f)=  0.715E+00 0.108E+01 0.103E+01 ort(H,U,f) =-0.376E+00 0.684E+00-0.311E+00
CGA:  57    -0.221161654189E+03   -0.59606E+00   -0.59556E+00  5760   0.283E+01-0.336E-02
 gam= 1.155 trial= 0.229  step= 0.197 mean= 0.229
 gam= 0.465 g(H,U,f)=  0.545E+00 0.622E+00 0.149E+00 ort(H,U,f) =-0.467E+00 0.679E+00-0.219E+00
CGA:  58    -0.221440763374E+03   -0.27911E+00   -0.27893E+00  5760   0.132E+01-0.774E-02
 gam= 0.465 trial= 0.227  step= 0.346 mean= 0.227
 gam= 0.521 g(H,U,f)=  0.363E+00 0.319E+00 0.306E-02 ort(H,U,f) =-0.150E+00 0.216E+00-0.532E-02
CGA:  59    -0.221672193972E+03   -0.23143E+00   -0.22685E+00  5760   0.686E+00 0.605E-01
 gam= 0.521 trial= 0.233  step= 0.458 mean= 0.233
 gam= 0.857 g(H,U,f)=  0.247E+00 0.338E+00 0.301E-02 ort(H,U,f) =-0.298E-01 0.246E-01-0.117E-02
CGA:  60    -0.221835691443E+03   -0.16350E+00   -0.16419E+00  5760   0.588E+00-0.640E-02
 gam= 0.857 trial= 0.244  step= 0.348 mean= 0.244
 gam= 0.783 g(H,U,f)=  0.143E+00 0.229E+00 0.872E-01 ort(H,U,f) =-0.614E-01 0.548E-01-0.347E-02
CGA:  61    -0.221936417044E+03   -0.10073E+00   -0.10141E+00  5760   0.460E+00-0.101E-01
 gam= 0.783 trial= 0.249  step= 0.285 mean= 0.249
 gam= 0.897 g(H,U,f)=  0.121E+00 0.181E+00 0.111E+00 ort(H,U,f) =-0.595E-01 0.133E+00-0.113E+00
CGA:  62    -0.221999829005E+03   -0.63412E-01   -0.64449E-01  5760   0.413E+00-0.393E-01
 gam= 0.897 trial= 0.251  step= 0.349 mean= 0.251
 gam= 0.964 g(H,U,f)=  0.189E+00 0.202E+00 0.672E-02 ort(H,U,f) =-0.822E-01 0.100E+00-0.363E-03
CGA:  63    -0.222066779824E+03   -0.66951E-01   -0.65895E-01  5760   0.398E+00 0.176E-01
 gam= 0.964 trial= 0.256  step= 0.600 mean= 0.256
 gam= 1.045 g(H,U,f)=  0.187E+00 0.228E+00 0.122E-02 ort(H,U,f) =-0.138E+00 0.913E-01 0.321E-02
CGA:  64    -0.222184260528E+03   -0.11748E+00   -0.12452E+00  5760   0.416E+00-0.438E-01
 gam= 1.045 trial= 0.273  step= 0.435 mean= 0.273
 gam= 1.282 g(H,U,f)=  0.194E+00 0.212E+00 0.127E+00 ort(H,U,f) =-0.677E-01 0.159E+00-0.567E-01
CGA:  65    -0.222267644507E+03   -0.83384E-01   -0.80527E-01  5760   0.533E+00 0.345E-01
 gam= 1.282 trial= 0.281  step= 0.140 mean= 0.281
 gam= 1.161 g(H,U,f)=  0.159E+00 0.177E+00 0.284E+00 ort(H,U,f) =-0.326E-01 0.144E+00-0.840E-01
CGA:  66    -0.222308825478E+03   -0.41181E-01   -0.40513E-01  5760   0.619E+00 0.273E-01
 gam= 1.161 trial= 0.274  step= 0.288 mean= 0.274
 gam= 0.669 g(H,U,f)=  0.168E+00 0.196E+00 0.511E-01 ort(H,U,f) =-0.860E-01 0.132E+00-0.159E+00
CGA:  67    -0.222402645114E+03   -0.93820E-01   -0.93665E-01  5760   0.415E+00-0.113E+00
 gam= 0.669 trial= 0.275  step= 0.146 mean= 0.275
 gam= 0.000 g(H,U,f)=  0.117E+00 0.171E+00 0.290E+00 ort(H,U,f) = 0.500E-01 0.188E+00-0.582E+00
CGA:  68    -0.222448940041E+03   -0.46295E-01   -0.24693E-01  5760   0.578E+00-0.344E+00
 gam= 0.000 trial= 0.269  step= 0.218 mean= 0.269
 gam= 0.436 g(H,U,f)=  0.542E-01 0.130E+00 0.678E-01 ort(H,U,f) = 0.578E-01 0.117E+00 0.395E-01
CGA:  69    -0.222500556677E+03   -0.51617E-01   -0.63039E-01  5760   0.252E+00 0.215E+00
 gam= 0.436 trial= 0.266  step= 0.197 mean= 0.266
 gam= 2.710 g(H,U,f)=  0.520E-01 0.129E+00 0.501E+00 ort(H,U,f) = 0.214E-01 0.991E-01-0.111E-01
CGA:  70    -0.222536587379E+03   -0.36031E-01   -0.34095E-01  5760   0.682E+00 0.109E+00
 gam= 2.710 trial= 0.263  step= 0.061 mean= 0.263
 gam= 0.000 g(H,U,f)=  0.894E-01 0.202E+00 0.870E+00 ort(H,U,f) = 0.247E-01 0.289E+00 0.289E+00
CGA:  71    -0.222565497353E+03   -0.28910E-01   -0.29875E-01  5760   0.116E+01 0.603E+00
 gam= 0.000 trial= 0.253  step= 0.101 mean= 0.253
 gam= 0.386 g(H,U,f)=  0.782E-01 0.214E+00 0.155E+00 ort(H,U,f) =-0.339E-01-0.255E-01-0.247E+00
CGA:  72    -0.222587427120E+03   -0.21930E-01   -0.58866E-01  5760   0.448E+00-0.306E+00
 gam= 0.386 trial= 0.245  step= 0.151 mean= 0.245
 gam= 0.632 g(H,U,f)=  0.234E-01 0.912E-01 0.168E+00 ort(H,U,f) = 0.113E-02 0.759E-01-0.442E-01
CGA:  73    -0.222629360664E+03   -0.41934E-01   -0.24811E-01  5760   0.283E+00 0.328E-01
 gam= 0.632 trial= 0.240  step= 0.369 mean= 0.240
 gam= 1.187 g(H,U,f)=  0.732E-01 0.186E+00 0.766E-01 ort(H,U,f) = 0.207E-02 0.515E-01 0.310E-01
CGA:  74    -0.222688765339E+03   -0.59405E-01   -0.56045E-01  5760   0.336E+00 0.845E-01
 gam= 1.187 trial= 0.247  step= 0.168 mean= 0.247
 gam= 0.536 g(H,U,f)=  0.609E-01 0.119E+00 0.151E-03 ort(H,U,f) =-0.130E-01 0.539E-01 0.573E-03
CGA:  75    -0.222722134654E+03   -0.33369E-01   -0.36677E-01  5760   0.180E+00 0.414E-01
 gam= 0.536 trial= 0.243  step= 0.346 mean= 0.243
 gam= 1.819 g(H,U,f)=  0.629E-01 0.265E+00 0.690E-05 ort(H,U,f) =-0.195E-01 0.284E-01 0.431E-04
CGA:  76    -0.222749558810E+03   -0.27424E-01   -0.35023E-01  5760   0.328E+00 0.900E-02
 gam= 1.819 trial= 0.248  step= 0.159 mean= 0.248
 gam= 0.465 g(H,U,f)=  0.931E-01 0.594E-01 0.208E-05 ort(H,U,f) =-0.109E+00 0.106E+00 0.729E-05
CGA:  77    -0.222780692055E+03   -0.31133E-01   -0.27269E-01  5760   0.153E+00-0.272E-02
 gam= 0.465 trial= 0.243  step= 0.456 mean= 0.243
 gam= 0.654 g(H,U,f)=  0.420E-01 0.576E-01 0.105E-03 ort(H,U,f) =-0.293E-01 0.776E-02 0.517E-04
CGA:  78    -0.222812768663E+03   -0.32077E-01   -0.34480E-01  5760   0.997E-01-0.215E-01
 gam= 0.654 trial= 0.254  step= 0.263 mean= 0.254
 gam= 1.249 g(H,U,f)=  0.265E-01 0.956E-01 0.249E-02 ort(H,U,f) =-0.385E-02 0.246E-01-0.949E-03
CGA:  79    -0.222823962441E+03   -0.11194E-01   -0.11269E-01  5760   0.125E+00 0.198E-01
 gam= 1.249 trial= 0.255  step= 0.160 mean= 0.255
 gam= 0.344 g(H,U,f)=  0.186E-01 0.240E-01 0.242E-03 ort(H,U,f) =-0.913E-02 0.205E-01-0.355E-03
CGA:  80    -0.222838763168E+03   -0.14801E-01   -0.11964E-01  5760   0.428E-01 0.111E-01
 gam= 0.344 trial= 0.250  step= 0.521 mean= 0.250
 gam= 2.490 g(H,U,f)=  0.317E-01 0.714E-01 0.342E-02 ort(H,U,f) =-0.947E-02 0.663E-02-0.579E-03
CGA:  81    -0.222848410833E+03   -0.96477E-02   -0.12146E-01  5760   0.107E+00-0.342E-02
 gam= 2.490 trial= 0.263  step= 0.154 mean= 0.263
 gam= 0.344 g(H,U,f)=  0.170E-01 0.194E-01 0.291E-03 ort(H,U,f) =-0.120E-01 0.249E-01-0.589E-03
CGA:  82    -0.222858728223E+03   -0.10317E-01   -0.75408E-02  5760   0.367E-01 0.123E-01
 gam= 0.344 trial= 0.258  step= 0.405 mean= 0.258
 gam= 0.714 g(H,U,f)=  0.150E-01 0.111E-01 0.629E-04 ort(H,U,f) =-0.118E-01 0.804E-02 0.497E-04
CGA:  83    -0.222866615646E+03   -0.78874E-02   -0.82781E-02  5760   0.262E-01-0.375E-02
 gam= 0.714 trial= 0.265  step= 0.741 mean= 0.265
 gam= 1.477 g(H,U,f)=  0.131E-01 0.185E-01 0.710E-02 ort(H,U,f) =-0.256E-02 0.406E-02-0.136E-02
CGA:  84    -0.222875038396E+03   -0.84227E-02   -0.87147E-02  5760   0.387E-01 0.134E-03
 gam= 1.477 trial= 0.289  step= 0.129 mean= 0.289
 gam= 0.414 g(H,U,f)=  0.798E-02 0.801E-02 0.166E-04 ort(H,U,f) =-0.213E-02 0.725E-02-0.212E-04
CGA:  85    -0.222877761526E+03   -0.27231E-02   -0.25033E-02  5760   0.160E-01 0.510E-02
 gam= 0.414 trial= 0.281  step= 0.387 mean= 0.281
 gam= 0.700 g(H,U,f)=  0.648E-02 0.470E-02 0.179E-04 ort(H,U,f) =-0.275E-02 0.317E-03-0.291E-04
CGA:  86    -0.222881029571E+03   -0.32680E-02   -0.35067E-02  5760   0.112E-01-0.246E-02
 gam= 0.700 trial= 0.286  step= 0.535 mean= 0.286
 gam= 0.856 g(H,U,f)=  0.486E-02 0.439E-02 0.344E-03 ort(H,U,f) =-0.132E-02 0.134E-02 0.865E-05
CGA:  87    -0.222883567217E+03   -0.25376E-02   -0.25333E-02  5760   0.959E-02 0.281E-04
 gam= 0.856 trial= 0.299  step= 0.224 mean= 0.299
 gam= 0.644 g(H,U,f)=  0.212E-02 0.405E-02 0.417E-05 ort(H,U,f) =-0.283E-03 0.171E-02-0.233E-05
CGA:  88    -0.222884673852E+03   -0.11066E-02   -0.10764E-02  5760   0.618E-02 0.142E-02
 gam= 0.644 trial= 0.295  step= 0.239 mean= 0.295
 gam= 0.904 g(H,U,f)=  0.206E-02 0.352E-02 0.668E-05 ort(H,U,f) =-0.851E-03 0.121E-02-0.533E-05
CGA:  89    -0.222885615472E+03   -0.94162E-03   -0.84674E-03  5760   0.559E-02 0.350E-03
 gam= 0.904 trial= 0.292  step= 0.403 mean= 0.292
 gam= 1.544 g(H,U,f)=  0.407E-02 0.451E-02 0.396E-04 ort(H,U,f) =-0.261E-02 0.209E-02-0.107E-04
CGA:  90    -0.222886726150E+03   -0.11107E-02   -0.11898E-02  5760   0.862E-02-0.526E-03
 gam= 1.544 trial= 0.298  step= 0.417 mean= 0.298
 gam= 1.134 g(H,U,f)=  0.521E-02 0.362E-02 0.947E-03 ort(H,U,f) =-0.329E-02 0.311E-02-0.375E-03
CGA:  91    -0.222888241837E+03   -0.15157E-02   -0.16279E-02  5760   0.978E-02-0.551E-03
 gam= 1.134 trial= 0.304  step= 0.265 mean= 0.304
 gam= 0.847 g(H,U,f)=  0.485E-02 0.342E-02 0.901E-05 ort(H,U,f) =-0.205E-02 0.265E-02-0.498E-05
CGA:  92    -0.222889492373E+03   -0.12505E-02   -0.12131E-02  5760   0.828E-02 0.590E-03
 gam= 0.847 trial= 0.302  step= 0.285 mean= 0.302
 gam= 0.894 g(H,U,f)=  0.306E-02 0.424E-02 0.102E-03 ort(H,U,f) =-0.114E-02 0.116E-02-0.657E-04
CGA:  93    -0.222890760731E+03   -0.12684E-02   -0.12535E-02  5760   0.740E-02-0.402E-04
 gam= 0.894 trial= 0.301  step= 0.352 mean= 0.301
 gam= 1.306 g(H,U,f)=  0.404E-02 0.447E-02 0.116E-02 ort(H,U,f) =-0.160E-02 0.164E-02-0.416E-03
CGA:  94    -0.222892016378E+03   -0.12556E-02   -0.12968E-02  5760   0.967E-02-0.374E-03
 gam= 1.306 trial= 0.304  step= 0.314 mean= 0.304
 gam= 0.896 g(H,U,f)=  0.485E-02 0.381E-02 0.517E-05 ort(H,U,f) =-0.288E-02 0.337E-02-0.432E-05
CGA:  95    -0.222893448716E+03   -0.14323E-02   -0.14405E-02  5760   0.866E-02 0.485E-03
 gam= 0.896 trial= 0.304  step= 0.356 mean= 0.304
 gam= 1.206 g(H,U,f)=  0.428E-02 0.610E-02 0.643E-04 ort(H,U,f) =-0.159E-02 0.143E-02-0.195E-04
CGA:  96    -0.222895009610E+03   -0.15609E-02   -0.16182E-02  5760   0.104E-01-0.173E-03
 gam= 1.206 trial= 0.307  step= 0.247 mean= 0.307
 gam= 0.820 g(H,U,f)=  0.431E-02 0.418E-02 0.822E-04 ort(H,U,f) =-0.270E-02 0.325E-02-0.621E-04
CGA:  97    -0.222896363382E+03   -0.13538E-02   -0.12670E-02  5760   0.857E-02 0.489E-03
 gam= 0.820 trial= 0.304  step= 0.423 mean= 0.304
 gam= 1.194 g(H,U,f)=  0.469E-02 0.491E-02 0.632E-03 ort(H,U,f) =-0.304E-02 0.241E-02-0.221E-03
CGA:  98    -0.222898102753E+03   -0.17394E-02   -0.18948E-02  5760   0.102E-01-0.845E-03
 gam= 1.194 trial= 0.310  step= 0.249 mean= 0.310
 gam= 1.057 g(H,U,f)=  0.582E-02 0.421E-02 0.796E-03 ort(H,U,f) =-0.240E-02 0.307E-02-0.546E-03
CGA:  99    -0.222899322601E+03   -0.12198E-02   -0.11504E-02  5760   0.108E-01 0.133E-03
 gam= 1.057 trial= 0.307  step= 0.346 mean= 0.307
 gam= 0.657 g(H,U,f)=  0.452E-02 0.226E-02 0.331E-03 ort(H,U,f) =-0.235E-02 0.214E-02-0.181E-03
CGA: 100    -0.222901202272E+03   -0.18797E-02   -0.18952E-02  5760   0.711E-02-0.389E-03
 gam= 0.657 trial= 0.309  step= 0.431 mean= 0.309
 gam= 0.850 g(H,U,f)=  0.331E-02 0.272E-02 0.112E-04 ort(H,U,f) =-0.560E-03 0.907E-03-0.440E-05
CGA: 101    -0.222902659262E+03   -0.14570E-02   -0.14763E-02  5760   0.604E-02 0.342E-03
 gam= 0.850 trial= 0.315  step= 0.247 mean= 0.315
 gam= 0.000 g(H,U,f)=  0.262E-02 0.377E-02 0.274E-04 ort(H,U,f) =-0.260E-04 0.616E-03-0.153E-04
SDA: 102    -0.222903488245E+03   -0.82898E-03   -0.78162E-03  5760   0.642E-02 0.575E-03
 gam= 0.000 trial= 0.311  step= 0.110 mean= 0.311
 gam= 0.425 g(H,U,f)=  0.137E-02 0.135E-02 0.635E-05 ort(H,U,f) = 0.144E-02 0.358E-03-0.116E-04
CGA: 103    -0.222903995828E+03   -0.50758E-03   -0.35306E-03  5760   0.273E-02 0.179E-02
 gam= 0.425 trial= 0.301  step= 0.542 mean= 0.301
 gam= 1.284 g(H,U,f)=  0.159E-02 0.191E-02 0.323E-05 ort(H,U,f) =-0.716E-03 0.398E-03 0.836E-06
CGA: 104    -0.222904900695E+03   -0.90487E-03   -0.94457E-03  5760   0.350E-02-0.317E-03
 gam= 1.284 trial= 0.313  step= 0.204 mean= 0.313
 gam= 1.062 g(H,U,f)=  0.165E-02 0.207E-02 0.598E-05 ort(H,U,f) =-0.516E-03 0.123E-02-0.457E-05
CGA: 105    -0.222905253088E+03   -0.35239E-03   -0.31572E-03  5760   0.372E-02 0.713E-03
 gam= 1.062 trial= 0.308  step= 0.289 mean= 0.308
 gam= 0.638 g(H,U,f)=  0.151E-02 0.856E-03 0.174E-06 ort(H,U,f) =-0.129E-02 0.111E-02-0.120E-06
CGA: 106    -0.222905904223E+03   -0.65114E-03   -0.64547E-03  5760   0.237E-02-0.186E-03
 gam= 0.638 trial= 0.307  step= 0.517 mean= 0.307
 gam= 0.854 g(H,U,f)=  0.133E-02 0.686E-03 0.544E-05 ort(H,U,f) =-0.770E-03 0.724E-03-0.443E-05
CGA: 107    -0.222906478229E+03   -0.57401E-03   -0.58278E-03  5760   0.203E-02-0.502E-04
 gam= 0.854 trial= 0.317  step= 0.350 mean= 0.317
 gam= 0.793 g(H,U,f)=  0.102E-02 0.491E-03 0.988E-04 ort(H,U,f) =-0.421E-03 0.431E-03-0.649E-05
CGA: 108    -0.222906825117E+03   -0.34689E-03   -0.34707E-03  5760   0.161E-02 0.369E-05
 gam= 0.793 trial= 0.319  step= 0.342 mean= 0.319
 gam= 1.375 g(H,U,f)=  0.782E-03 0.108E-02 0.352E-03 ort(H,U,f) = 0.145E-04 0.228E-03-0.172E-03
CGA: 109    -0.222907098073E+03   -0.27296E-03   -0.27506E-03  5760   0.221E-02 0.707E-04
 gam= 1.375 trial= 0.320  step= 0.207 mean= 0.320
 gam= 0.567 g(H,U,f)=  0.623E-03 0.611E-03 0.195E-04 ort(H,U,f) =-0.205E-03 0.225E-03-0.282E-04
CGA: 110    -0.222907347211E+03   -0.24914E-03   -0.23843E-03  5760   0.125E-02-0.855E-05
 gam= 0.567 trial= 0.314  step= 0.389 mean= 0.314
 gam= 0.768 g(H,U,f)=  0.526E-03 0.437E-03 0.735E-07 ort(H,U,f) =-0.283E-03 0.281E-03-0.637E-07
CGA: 111    -0.222907589927E+03   -0.24272E-03   -0.24302E-03  5760   0.963E-03-0.207E-05
 gam= 0.768 trial= 0.318  step= 0.465 mean= 0.318
 gam= 0.792 g(H,U,f)=  0.467E-03 0.296E-03 0.324E-07 ort(H,U,f) =-0.256E-03 0.219E-03-0.353E-07
CGA: 112    -0.222907808235E+03   -0.21831E-03   -0.22372E-03  5760   0.763E-03-0.372E-04
 gam= 0.792 trial= 0.326  step= 0.599 mean= 0.326
 gam= 1.216 g(H,U,f)=  0.483E-03 0.445E-03 0.128E-06 ort(H,U,f) =-0.187E-03 0.184E-03 0.245E-07
CGA: 113    -0.222908027425E+03   -0.21919E-03   -0.21979E-03  5760   0.928E-03-0.303E-05
 gam= 1.216 trial= 0.339  step= 0.433 mean= 0.339
 gam= 0.602 g(H,U,f)=  0.352E-03 0.206E-03 0.270E-06 ort(H,U,f) =-0.323E-03 0.320E-03-0.252E-06
CGA: 114    -0.222908226528E+03   -0.19910E-03   -0.20019E-03  5760   0.558E-03-0.380E-05
 gam= 0.602 trial= 0.344  step= 0.518 mean= 0.344
 gam= 1.520 g(H,U,f)=  0.445E-03 0.401E-03 0.304E-05 ort(H,U,f) =-0.123E-03 0.130E-03-0.539E-06
CGA: 115    -0.222908369729E+03   -0.14320E-03   -0.14400E-03  5760   0.849E-03 0.665E-05
 gam= 1.520 trial= 0.353  step= 0.337 mean= 0.353
 gam= 1.464 g(H,U,f)=  0.389E-03 0.825E-03 0.288E-04 ort(H,U,f) =-0.318E-04 0.137E-03-0.783E-05
CGA: 116    -0.222908515669E+03   -0.14594E-03   -0.14493E-03  5760   0.124E-02 0.973E-04
 gam= 1.464 trial= 0.352  step= 0.272 mean= 0.352
 gam= 0.688 g(H,U,f)=  0.410E-03 0.424E-03 0.212E-04 ort(H,U,f) =-0.352E-03 0.394E-03-0.196E-04
CGA: 117    -0.222908719039E+03   -0.20337E-03   -0.18830E-03  5760   0.855E-03 0.222E-04
 gam= 0.688 trial= 0.348  step= 0.316 mean= 0.348
 gam= 0.943 g(H,U,f)=  0.331E-03 0.438E-03 0.370E-04 ort(H,U,f) =-0.209E-03 0.235E-03-0.137E-04
CGA: 118    -0.222908859207E+03   -0.14017E-03   -0.13749E-03  5760   0.807E-03 0.126E-04
 gam= 0.943 trial= 0.346  step= 0.352 mean= 0.346
 gam= 1.472 g(H,U,f)=  0.441E-03 0.673E-03 0.731E-04 ort(H,U,f) =-0.131E-03 0.183E-03-0.385E-04
CGA: 119    -0.222909002665E+03   -0.14346E-03   -0.14411E-03  5760   0.119E-02 0.134E-04
 gam= 1.472 trial= 0.347  step= 0.342 mean= 0.347
 gam= 1.007 g(H,U,f)=  0.526E-03 0.592E-03 0.784E-04 ort(H,U,f) =-0.397E-03 0.403E-03-0.224E-04
CGA: 120    -0.222909209534E+03   -0.20687E-03   -0.20655E-03  5760   0.120E-02-0.167E-04
 gam= 1.007 trial= 0.346  step= 0.341 mean= 0.346
 gam= 0.855 g(H,U,f)=  0.433E-03 0.478E-03 0.112E-03 ort(H,U,f) =-0.309E-03 0.372E-03-0.754E-04
CGA: 121    -0.222909411333E+03   -0.20180E-03   -0.20123E-03  5760   0.102E-02-0.122E-04
 gam= 0.855 trial= 0.346  step= 0.266 mean= 0.346
 gam= 1.145 g(H,U,f)=  0.535E-03 0.513E-03 0.123E-03 ort(H,U,f) =-0.215E-03 0.283E-03-0.533E-04
CGA: 122    -0.222909550051E+03   -0.13872E-03   -0.13449E-03  5760   0.117E-02 0.147E-04
 gam= 1.145 trial= 0.342  step= 0.446 mean= 0.342
 gam= 1.071 g(H,U,f)=  0.601E-03 0.653E-03 0.354E-06 ort(H,U,f) =-0.310E-03 0.322E-03-0.296E-06
CGA: 123    -0.222909805600E+03   -0.25555E-03   -0.26475E-03  5760   0.125E-02 0.119E-04
 gam= 1.071 trial= 0.347  step= 0.317 mean= 0.347
 gam= 1.006 g(H,U,f)=  0.645E-03 0.616E-03 0.152E-05 ort(H,U,f) =-0.183E-03 0.237E-03-0.322E-06
CGA: 124    -0.222910009443E+03   -0.20384E-03   -0.20057E-03  5760   0.126E-02 0.540E-04
 gam= 1.006 trial= 0.346  step= 0.248 mean= 0.346
 gam= 0.826 g(H,U,f)=  0.508E-03 0.532E-03 0.251E-05 ort(H,U,f) =-0.103E-03 0.246E-03-0.217E-05
CGA: 125    -0.222910193183E+03   -0.18374E-03   -0.16305E-03  5760   0.104E-02 0.141E-03
 gam= 0.826 trial= 0.341  step= 0.414 mean= 0.341
 gam= 1.230 g(H,U,f)=  0.447E-03 0.829E-03 0.609E-05 ort(H,U,f) =-0.162E-03 0.106E-03-0.174E-05
CGA: 126    -0.222910419843E+03   -0.22666E-03   -0.23973E-03  5760   0.128E-02-0.579E-04
 gam= 1.230 trial= 0.344  step= 0.215 mean= 0.344
 gam= 0.681 g(H,U,f)=  0.444E-03 0.424E-03 0.507E-05 ort(H,U,f) =-0.349E-03 0.433E-03-0.497E-05
CGA: 127    -0.222910569037E+03   -0.14919E-03   -0.13021E-03  5760   0.874E-03 0.789E-04
 gam= 0.681 trial= 0.338  step= 0.437 mean= 0.338
 gam= 0.970 g(H,U,f)=  0.444E-03 0.394E-03 0.938E-05 ort(H,U,f) =-0.239E-03 0.191E-03-0.392E-05
CGA: 128    -0.222910763153E+03   -0.19412E-03   -0.20283E-03  5760   0.848E-03-0.515E-04
 gam= 0.970 trial= 0.343  step= 0.391 mean= 0.343
 gam= 1.335 g(H,U,f)=  0.456E-03 0.621E-03 0.535E-04 ort(H,U,f) =-0.128E-03 0.168E-03-0.183E-04
CGA: 129    -0.222910914924E+03   -0.15177E-03   -0.15608E-03  5760   0.113E-02 0.216E-04
 gam= 1.335 trial= 0.345  step= 0.191 mean= 0.345
 gam= 0.557 g(H,U,f)=  0.307E-03 0.304E-03 0.184E-04 ort(H,U,f) =-0.136E-03 0.215E-03-0.209E-04
CGA: 130    -0.222911039370E+03   -0.12445E-03   -0.11068E-03  5760   0.630E-03 0.582E-04
 gam= 0.557 trial= 0.338  step= 0.421 mean= 0.338
 gam= 0.868 g(H,U,f)=  0.285E-03 0.250E-03 0.121E-04 ort(H,U,f) =-0.979E-04 0.864E-04-0.709E-05
CGA: 131    -0.222911176269E+03   -0.13690E-03   -0.13948E-03  5760   0.547E-03-0.185E-04
 gam= 0.868 trial= 0.342  step= 0.485 mean= 0.342
 gam= 0.963 g(H,U,f)=  0.250E-03 0.250E-03 0.269E-04 ort(H,U,f) =-0.115E-03 0.115E-03-0.103E-04
CGA: 132    -0.222911302263E+03   -0.12599E-03   -0.12873E-03  5760   0.526E-03-0.108E-04
 gam= 0.963 trial= 0.349  step= 0.235 mean= 0.349
 gam= 0.000 g(H,U,f)=  0.190E-03 0.220E-03 0.679E-07 ort(H,U,f) =-0.215E-04 0.641E-04-0.460E-07
SDA: 133    -0.222911364402E+03   -0.62139E-04   -0.60737E-04  5760   0.410E-03 0.425E-04
 gam= 0.000 trial= 0.343  step= 0.152 mean= 0.343
 gam= 0.690 g(H,U,f)=  0.133E-03 0.150E-03 0.557E-07 ort(H,U,f) = 0.122E-03-0.436E-05-0.575E-07
CGA: 134    -0.222911405584E+03   -0.41182E-04   -0.31186E-04  5760   0.283E-03 0.117E-03
 gam= 0.690 trial= 0.334  step= 0.445 mean= 0.334
 gam= 0.890 g(H,U,f)=  0.101E-03 0.138E-03 0.132E-04 ort(H,U,f) =-0.379E-04 0.982E-05-0.599E-05
CGA: 135    -0.222911483090E+03   -0.77506E-04   -0.80985E-04  5760   0.252E-03-0.341E-04
 gam= 0.890 trial= 0.339  step= 0.459 mean= 0.339
 gam= 1.061 g(H,U,f)=  0.125E-03 0.116E-03 0.259E-04 ort(H,U,f) =-0.800E-04 0.860E-04-0.107E-04
CGA: 136    -0.222911532377E+03   -0.49287E-04   -0.50850E-04  5760   0.267E-03-0.470E-05
 gam= 1.061 trial= 0.345  step= 0.215 mean= 0.345
 gam= 0.872 g(H,U,f)=  0.119E-03 0.890E-04 0.251E-04 ort(H,U,f) =-0.558E-04 0.805E-04-0.141E-04
CGA: 137    -0.222911561866E+03   -0.29489E-04   -0.28267E-04  5760   0.233E-03 0.106E-04
 gam= 0.872 trial= 0.339  step= 0.426 mean= 0.339
 gam= 0.918 g(H,U,f)=  0.951E-04 0.962E-04 0.229E-04 ort(H,U,f) =-0.624E-04 0.643E-04-0.121E-04
CGA: 138    -0.222911611658E+03   -0.49792E-04   -0.51644E-04  5760   0.214E-03-0.102E-04
 gam= 0.918 trial= 0.343  step= 0.264 mean= 0.343
 gam= 0.937 g(H,U,f)=  0.920E-04 0.901E-04 0.187E-04 ort(H,U,f) =-0.420E-04 0.572E-04-0.107E-04
CGA: 139    -0.222911639477E+03   -0.27818E-04   -0.27045E-04  5760   0.201E-03 0.451E-05
 gam= 0.937 trial= 0.339  step= 0.313 mean= 0.339
 gam= 1.036 g(H,U,f)=  0.841E-04 0.106E-03 0.181E-04 ort(H,U,f) =-0.430E-04 0.536E-04-0.868E-05
CGA: 140    -0.222911671823E+03   -0.32346E-04   -0.32095E-04  5760   0.208E-03 0.190E-05
 gam= 1.036 trial= 0.338  step= 0.458 mean= 0.338
 gam= 1.311 g(H,U,f)=  0.107E-03 0.126E-03 0.398E-04 ort(H,U,f) =-0.575E-04 0.691E-04-0.140E-04
CGA: 141    -0.222911718392E+03   -0.46569E-04   -0.48088E-04  5760   0.273E-03-0.249E-05
 gam= 1.311 trial= 0.344  step= 0.217 mean= 0.344
 gam= 0.664 g(H,U,f)=  0.104E-03 0.767E-04 0.258E-07 ort(H,U,f) =-0.679E-04 0.896E-04-0.221E-07
CGA: 142    -0.222911749375E+03   -0.30983E-04   -0.29289E-04  5760   0.181E-03 0.216E-04
 gam= 0.664 trial= 0.338  step= 0.444 mean= 0.338
 gam= 1.349 g(H,U,f)=  0.967E-04 0.147E-03 0.735E-07 ort(H,U,f) =-0.194E-04 0.178E-04-0.188E-07
CGA: 143    -0.222911790918E+03   -0.41543E-04   -0.43355E-04  5760   0.244E-03-0.164E-05
 gam= 1.349 trial= 0.343  step= 0.331 mean= 0.343
 gam= 1.222 g(H,U,f)=  0.118E-03 0.180E-03 0.261E-06 ort(H,U,f) =-0.478E-04 0.637E-04-0.117E-06
CGA: 144    -0.222911831466E+03   -0.40548E-04   -0.40054E-04  5760   0.298E-03 0.158E-04
 gam= 1.222 trial= 0.342  step= 0.225 mean= 0.342
 gam= 0.511 g(H,U,f)=  0.914E-04 0.610E-04 0.842E-07 ort(H,U,f) =-0.810E-04 0.880E-04-0.839E-07
CGA: 145    -0.222911870994E+03   -0.39528E-04   -0.35724E-04  5760   0.152E-03 0.692E-05
 gam= 0.511 trial= 0.336  step= 0.474 mean= 0.336
 gam= 1.310 g(H,U,f)=  0.997E-04 0.997E-04 0.309E-06 ort(H,U,f) =-0.217E-04 0.169E-04-0.108E-06
CGA: 146    -0.222911905647E+03   -0.34653E-04   -0.36953E-04  5760   0.200E-03-0.484E-05
 gam= 1.310 trial= 0.343  step= 0.281 mean= 0.343
 gam= 1.008 g(H,U,f)=  0.839E-04 0.117E-03 0.686E-06 ort(H,U,f) =-0.319E-04 0.440E-04-0.308E-06
CGA: 147    -0.222911934004E+03   -0.28357E-04   -0.27122E-04  5760   0.201E-03 0.119E-04
 gam= 1.008 trial= 0.340  step= 0.280 mean= 0.340
 gam= 0.666 g(H,U,f)=  0.684E-04 0.651E-04 0.497E-06 ort(H,U,f) =-0.488E-04 0.489E-04-0.399E-06
CGA: 148    -0.222911965651E+03   -0.31647E-04   -0.29855E-04  5760   0.134E-03-0.258E-06
 gam= 0.666 trial= 0.337  step= 0.325 mean= 0.337
 gam= 1.133 g(H,U,f)=  0.757E-04 0.752E-04 0.906E-06 ort(H,U,f) =-0.218E-04 0.244E-04-0.356E-06
CGA: 149    -0.222911987608E+03   -0.21957E-04   -0.21784E-04  5760   0.152E-03 0.220E-05
 gam= 1.133 trial= 0.337  step= 0.335 mean= 0.337
 gam= 1.107 g(H,U,f)=  0.594E-04 0.108E-03 0.106E-05 ort(H,U,f) =-0.232E-04 0.255E-04-0.480E-06
CGA: 150    -0.222912013512E+03   -0.25905E-04   -0.25871E-04  5760   0.168E-03 0.182E-05
 gam= 1.107 trial= 0.337  step= 0.298 mean= 0.337
 gam= 0.913 g(H,U,f)=  0.687E-04 0.840E-04 0.696E-06 ort(H,U,f) =-0.370E-04 0.367E-04-0.460E-06
CGA: 151    -0.222912039830E+03   -0.26318E-04   -0.25378E-04  5760   0.153E-03-0.720E-06
 gam= 0.913 trial= 0.335  step= 0.281 mean= 0.335
 gam= 0.697 g(H,U,f)=  0.611E-04 0.453E-04 0.569E-06 ort(H,U,f) =-0.378E-04 0.389E-04-0.261E-06
CGA: 152    -0.222912062121E+03   -0.22291E-04   -0.21431E-04  5760   0.107E-03 0.927E-06
 gam= 0.697 trial= 0.332  step= 0.398 mean= 0.332
 gam= 1.443 g(H,U,f)=  0.605E-04 0.922E-04 0.156E-05 ort(H,U,f) =-0.873E-05 0.111E-04-0.664E-06
CGA: 153    -0.222912082378E+03   -0.20257E-04   -0.21377E-04  5760   0.154E-03 0.175E-05
 gam= 1.443 trial= 0.335  step= 0.269 mean= 0.335
 gam= 0.955 g(H,U,f)=  0.670E-04 0.795E-04 0.815E-06 ort(H,U,f) =-0.269E-04 0.301E-04-0.472E-06
CGA: 154    -0.222912104943E+03   -0.22565E-04   -0.21105E-04  5760   0.147E-03 0.273E-05
 gam= 0.955 trial= 0.332  step= 0.294 mean= 0.332
 gam= 0.485 g(H,U,f)=  0.455E-04 0.257E-04 0.257E-06 ort(H,U,f) =-0.387E-04 0.369E-04-0.216E-06
CGA: 155    -0.222912127373E+03   -0.22431E-04   -0.22068E-04  5760   0.714E-04-0.201E-05
 gam= 0.485 trial= 0.330  step= 0.473 mean= 0.330
 gam= 1.383 g(H,U,f)=  0.448E-04 0.527E-04 0.124E-05 ort(H,U,f) =-0.841E-05 0.995E-05-0.359E-06
CGA: 156    -0.222912142973E+03   -0.15599E-04   -0.16668E-04  5760   0.988E-04 0.119E-05
 gam= 1.383 trial= 0.337  step= 0.232 mean= 0.337
 gam= 0.993 g(H,U,f)=  0.419E-04 0.554E-04 0.761E-06 ort(H,U,f) =-0.111E-04 0.189E-04-0.598E-06
CGA: 157    -0.222912155726E+03   -0.12753E-04   -0.11636E-04  5760   0.981E-04 0.720E-05
 gam= 0.993 trial= 0.332  step= 0.324 mean= 0.332
 gam= 0.564 g(H,U,f)=  0.329E-04 0.223E-04 0.144E-06 ort(H,U,f) =-0.307E-04 0.263E-04-0.813E-07
CGA: 158    -0.222912172852E+03   -0.17126E-04   -0.17072E-04  5760   0.554E-04-0.454E-05
 gam= 0.564 trial= 0.332  step= 0.573 mean= 0.332
 gam= 1.151 g(H,U,f)=  0.367E-04 0.268E-04 0.218E-06 ort(H,U,f) =-0.159E-04 0.129E-04-0.137E-06
CGA: 159    -0.222912187294E+03   -0.14442E-04   -0.15134E-04  5760   0.637E-04-0.316E-05
 gam= 1.151 trial= 0.344  step= 0.470 mean= 0.344
 gam= 1.345 g(H,U,f)=  0.392E-04 0.448E-04 0.167E-05 ort(H,U,f) =-0.144E-04 0.150E-04-0.212E-06
CGA: 160    -0.222912201122E+03   -0.13828E-04   -0.14119E-04  5760   0.857E-04 0.355E-06
 gam= 1.345 trial= 0.350  step= 0.207 mean= 0.350
 gam= 0.740 g(H,U,f)=  0.308E-04 0.307E-04 0.192E-05 ort(H,U,f) =-0.653E-05 0.182E-04-0.160E-05
CGA: 161    -0.222912211167E+03   -0.10045E-04   -0.89171E-05  5760   0.634E-04 0.100E-04
 gam= 0.740 trial= 0.343  step= 0.354 mean= 0.343
 gam= 0.799 g(H,U,f)=  0.252E-04 0.241E-04 0.130E-05 ort(H,U,f) =-0.138E-04 0.116E-04-0.692E-06
CGA: 162    -0.222912223607E+03   -0.12441E-04   -0.12528E-04  5760   0.506E-04-0.296E-05
 gam= 0.799 trial= 0.343  step= 0.373 mean= 0.343
 gam= 1.504 g(H,U,f)=  0.284E-04 0.442E-04 0.357E-05 ort(H,U,f) =-0.853E-05 0.104E-04-0.133E-05
CGA: 163    -0.222912232445E+03   -0.88371E-05   -0.89976E-05  5760   0.761E-04 0.549E-06
 gam= 1.504 trial= 0.345  step= 0.259 mean= 0.345
 gam= 0.000 g(H,U,f)=  0.248E-04 0.250E-04 0.196E-05 ort(H,U,f) =-0.178E-04 0.192E-04-0.129E-05
SDA: 164    -0.222912243088E+03   -0.10643E-04   -0.99570E-05  5760   0.518E-04 0.197E-06
 gam= 0.000 trial= 0.341  step= 0.179 mean= 0.341
 gam= 0.722 g(H,U,f)=  0.130E-04 0.216E-04 0.286E-05 ort(H,U,f) = 0.129E-04-0.247E-06-0.235E-05
CGA: 165    -0.222912248460E+03   -0.53723E-05   -0.46491E-05  5760   0.374E-04 0.103E-04
 gam= 0.722 trial= 0.332  step= 0.267 mean= 0.332
 gam= 0.514 g(H,U,f)=  0.598E-05 0.127E-04 0.588E-06 ort(H,U,f) = 0.709E-06-0.873E-06-0.525E-06
CGA: 166    -0.222912254740E+03   -0.62801E-05   -0.59934E-05  5760   0.192E-04-0.689E-06
 gam= 0.514 trial= 0.329  step= 0.477 mean= 0.329
 gam= 1.587 g(H,U,f)=  0.779E-05 0.196E-04 0.316E-05 ort(H,U,f) =-0.324E-05 0.465E-05-0.725E-06
CGA: 167    -0.222912258941E+03   -0.42008E-05   -0.45038E-05  5760   0.305E-04 0.692E-06
 gam= 1.587 trial= 0.337  step= 0.196 mean= 0.337
 gam= 0.576 g(H,U,f)=  0.773E-05 0.923E-05 0.620E-06 ort(H,U,f) =-0.597E-05 0.965E-05-0.882E-06
CGA: 168    -0.222912262793E+03   -0.38521E-05   -0.30915E-05  5760   0.176E-04 0.280E-05
 gam= 0.576 trial= 0.330  step= 0.533 mean= 0.330
 gam= 1.035 g(H,U,f)=  0.719E-05 0.102E-04 0.850E-06 ort(H,U,f) =-0.437E-05 0.386E-05-0.125E-06
CGA: 169    -0.222912267694E+03   -0.49012E-05   -0.51126E-05  5760   0.182E-04-0.635E-06
 gam= 1.035 trial= 0.340  step= 0.238 mean= 0.340
 gam= 0.921 g(H,U,f)=  0.607E-05 0.941E-05 0.129E-05 ort(H,U,f) =-0.137E-05 0.521E-05-0.888E-06
CGA: 170    -0.222912270017E+03   -0.23224E-05   -0.20838E-05  5760   0.168E-04 0.296E-05
 gam= 0.921 trial= 0.335  step= 0.377 mean= 0.335
 gam= 1.028 g(H,U,f)=  0.624E-05 0.101E-04 0.913E-06 ort(H,U,f) =-0.293E-05 0.280E-05-0.399E-06
CGA: 171    -0.222912273583E+03   -0.35665E-05   -0.36694E-05  5760   0.172E-04-0.536E-06
 gam= 1.028 trial= 0.337  step= 0.266 mean= 0.337
 gam= 0.862 g(H,U,f)=  0.555E-05 0.846E-05 0.845E-06 ort(H,U,f) =-0.244E-05 0.384E-05-0.492E-06
CGA: 172    -0.222912275941E+03   -0.23574E-05   -0.22152E-05  5760   0.149E-04 0.910E-06
 gam= 0.862 trial= 0.333  step= 0.372 mean= 0.333
 gam= 0.954 g(H,U,f)=  0.519E-05 0.783E-05 0.115E-05 ort(H,U,f) =-0.285E-05 0.276E-05-0.502E-06
CGA: 173    -0.222912278758E+03   -0.28174E-05   -0.29086E-05  5760   0.142E-04-0.598E-06
 gam= 0.954 trial= 0.335  step= 0.266 mean= 0.335
 gam= 1.196 g(H,U,f)=  0.605E-05 0.993E-05 0.960E-06 ort(H,U,f) =-0.141E-05 0.255E-05-0.627E-06
CGA: 174    -0.222912280751E+03   -0.19926E-05   -0.18059E-05  5760   0.169E-04 0.513E-06
 gam= 1.196 trial= 0.332  step= 0.450 mean= 0.332
 gam= 0.798 g(H,U,f)=  0.569E-05 0.733E-05 0.494E-06 ort(H,U,f) =-0.467E-05 0.313E-05-0.155E-06
CGA: 175    -0.222912284515E+03   -0.37641E-05   -0.39523E-05  5760   0.135E-04-0.170E-05
 gam= 0.798 trial= 0.338  step= 0.321 mean= 0.338
 gam= 1.146 g(H,U,f)=  0.517E-05 0.864E-05 0.168E-05 ort(H,U,f) =-0.147E-05 0.343E-05-0.691E-06
CGA: 176    -0.222912286490E+03   -0.19753E-05   -0.19508E-05  5760   0.155E-04 0.127E-05
 gam= 1.146 trial= 0.337  step= 0.258 mean= 0.337
 gam= 0.759 g(H,U,f)=  0.443E-05 0.665E-05 0.670E-06 ort(H,U,f) =-0.160E-05 0.266E-05-0.565E-06
CGA: 177    -0.222912288870E+03   -0.23803E-05   -0.21893E-05  5760   0.117E-04 0.497E-06
 gam= 0.759 trial= 0.333  step= 0.338 mean= 0.333
 gam= 0.915 g(H,U,f)=  0.375E-05 0.626E-05 0.750E-06 ort(H,U,f) =-0.142E-05 0.177E-05-0.258E-06
CGA: 178    -0.222912290915E+03   -0.20452E-05   -0.20508E-05  5760   0.108E-04 0.912E-07
 gam= 0.915 trial= 0.333  step= 0.337 mean= 0.333
 gam= 1.158 g(H,U,f)=  0.366E-05 0.733E-05 0.146E-05 ort(H,U,f) =-0.134E-05 0.268E-05-0.721E-06
CGA: 179    -0.222912292735E+03   -0.18191E-05   -0.18261E-05  5760   0.125E-04 0.620E-06
 gam= 1.158 trial= 0.333  step= 0.272 mean= 0.333
 gam= 0.849 g(H,U,f)=  0.405E-05 0.588E-05 0.639E-06 ort(H,U,f) =-0.219E-05 0.251E-05-0.415E-06
CGA: 180    -0.222912294656E+03   -0.19212E-05   -0.17901E-05  5760   0.106E-04-0.962E-07
 gam= 0.849 trial= 0.330  step= 0.352 mean= 0.330
 gam= 0.911 g(H,U,f)=  0.393E-05 0.507E-05 0.619E-06 ort(H,U,f) =-0.188E-05 0.201E-05-0.281E-06
CGA: 181    -0.222912296484E+03   -0.18286E-05   -0.18473E-05  5760   0.962E-05-0.148E-06
 gam= 0.911 trial= 0.331  step= 0.350 mean= 0.331
 gam= 1.222 g(H,U,f)=  0.335E-05 0.683E-05 0.158E-05 ort(H,U,f) =-0.109E-05 0.232E-05-0.579E-06
CGA: 182    -0.222912298117E+03   -0.16323E-05   -0.16604E-05  5760   0.118E-04 0.656E-06
 gam= 1.222 trial= 0.332  step= 0.260 mean= 0.332
 gam= 0.844 g(H,U,f)=  0.386E-05 0.557E-05 0.488E-06 ort(H,U,f) =-0.188E-05 0.231E-05-0.481E-06
CGA: 183    -0.222912299893E+03   -0.17768E-05   -0.16308E-05  5760   0.992E-05-0.557E-07
 gam= 0.844 trial= 0.329  step= 0.396 mean= 0.329
 gam= 0.953 g(H,U,f)=  0.375E-05 0.505E-05 0.660E-06 ort(H,U,f) =-0.216E-05 0.184E-05-0.922E-07
CGA: 184    -0.222912301801E+03   -0.19072E-05   -0.19567E-05  5760   0.945E-05-0.415E-06
 gam= 0.953 trial= 0.332  step= 0.345 mean= 0.332
 gam= 1.309 g(H,U,f)=  0.361E-05 0.714E-05 0.162E-05 ort(H,U,f) =-0.751E-06 0.225E-05-0.888E-06
CGA: 185    -0.222912303338E+03   -0.15376E-05   -0.15628E-05  5760   0.124E-04 0.608E-06
 gam= 1.309 trial= 0.333  step= 0.241 mean= 0.333
 gam= 0.667 g(H,U,f)=  0.357E-05 0.442E-05 0.262E-06 ort(H,U,f) =-0.204E-05 0.188E-05-0.181E-06
CGA: 186    -0.222912305077E+03   -0.17388E-05   -0.15844E-05  5760   0.825E-05-0.350E-06
 gam= 0.667 trial= 0.328  step= 0.495 mean= 0.328
 gam= 1.069 g(H,U,f)=  0.303E-05 0.508E-05 0.704E-06 ort(H,U,f) =-0.148E-05 0.134E-05-0.228E-06
CGA: 187    -0.222912306953E+03   -0.18763E-05   -0.19829E-05  5760   0.882E-05-0.369E-06
 gam= 1.069 trial= 0.336  step= 0.232 mean= 0.336
 gam= 0.850 g(H,U,f)=  0.285E-05 0.400E-05 0.645E-06 ort(H,U,f) =-0.862E-06 0.225E-05-0.440E-06
CGA: 188    -0.222912308072E+03   -0.11190E-05   -0.97534E-06  5760   0.749E-05 0.947E-06
 gam= 0.850 trial= 0.331  step= 0.346 mean= 0.331
 gam= 0.916 g(H,U,f)=  0.259E-05 0.396E-05 0.318E-06 ort(H,U,f) =-0.116E-05 0.760E-06-0.190E-06
CGA: 189    -0.222912309493E+03   -0.14202E-05   -0.14339E-05  5760   0.687E-05-0.588E-06
 gam= 0.916 trial= 0.332  step= 0.385 mean= 0.332
 gam= 1.446 g(H,U,f)=  0.267E-05 0.625E-05 0.100E-05 ort(H,U,f) =-0.734E-06 0.958E-06-0.256E-06
CGA: 190    -0.222912310662E+03   -0.11696E-05   -0.12168E-05  5760   0.993E-05-0.320E-07
 gam= 1.446 trial= 0.335  step= 0.295 mean= 0.335
 gam= 0.730 g(H,U,f)=  0.237E-05 0.418E-05 0.687E-06 ort(H,U,f) =-0.243E-05 0.278E-05-0.522E-06
CGA: 191    -0.222912312191E+03   -0.15287E-05   -0.14585E-05  5760   0.724E-05-0.167E-06
 gam= 0.730 trial= 0.333  step= 0.244 mean= 0.333
 gam= 0.768 g(H,U,f)=  0.222E-05 0.303E-05 0.306E-06 ort(H,U,f) =-0.120E-05 0.154E-05-0.203E-06
CGA: 192    -0.222912313147E+03   -0.95629E-06   -0.86892E-06  5760   0.556E-05 0.133E-06
 gam= 0.768 trial= 0.328  step= 0.495 mean= 0.328
 gam= 1.768 g(H,U,f)=  0.291E-05 0.604E-05 0.869E-06 ort(H,U,f) =-0.771E-06 0.814E-06-0.252E-06
CGA: 193    -0.222912314439E+03   -0.12914E-05   -0.14005E-05  5760   0.983E-05-0.209E-06
 gam= 1.768 trial= 0.336  step= 0.344 mean= 0.336
 gam= 1.388 g(H,U,f)=  0.344E-05 0.889E-05 0.132E-05 ort(H,U,f) =-0.207E-05 0.289E-05-0.529E-06
CGA: 194    -0.222912316053E+03   -0.16149E-05   -0.16287E-05  5760   0.136E-04 0.287E-06
 gam= 1.388 trial= 0.337  step= 0.311 mean= 0.337
 gam= 0.000 g(H,U,f)=  0.369E-05 0.444E-05 0.475E-06 ort(H,U,f) =-0.491E-05 0.500E-05-0.359E-06
SDA: 195    -0.222912318270E+03   -0.22165E-05   -0.21830E-05  5760   0.861E-05-0.273E-06
 gam= 0.000 trial= 0.336  step= 0.165 mean= 0.336
 gam= 0.772 g(H,U,f)=  0.240E-05 0.361E-05 0.636E-06 ort(H,U,f) = 0.238E-05-0.547E-07-0.549E-06
CGA: 196    -0.222912319109E+03   -0.83891E-06   -0.70961E-06  5760   0.664E-05 0.178E-05
 gam= 0.772 trial= 0.327  step= 0.488 mean= 0.327
 gam= 0.811 g(H,U,f)=  0.147E-05 0.361E-05 0.306E-06 ort(H,U,f) =-0.437E-06-0.125E-06-0.146E-06
CGA: 197    -0.222912320927E+03   -0.18181E-05   -0.19573E-05  5760   0.539E-05-0.708E-06
 gam= 0.811 trial= 0.335  step= 0.341 mean= 0.335
 gam= 1.401 g(H,U,f)=  0.186E-05 0.493E-05 0.759E-06 ort(H,U,f) =-0.764E-06 0.132E-05-0.294E-06
CGA: 198    -0.222912321744E+03   -0.81665E-06   -0.82081E-06  5760   0.755E-05 0.260E-06
 gam= 1.401 trial= 0.335  step= 0.243 mean= 0.335
 final diagonalization
   1 F= -.23255656E+03 E0= -.23255103E+03  d E =-.110527E-01  mag=     6.0000
