 running on   64 total cores
 distrk:  each k-point on   64 cores,    1 groups
 distr:  one band on    4 cores,   16 groups
 using from now: INCAR     
 vasp.5.4.4.18Apr17-6-g9f103f2a35 (build Nov 22 2021 14:44:17) complex          
  
 POSCAR found type information on POSCAR  Li Co O 
 POSCAR found :  3 types and      42 ions
 scaLAPACK will be used
 LDA part: xc-table for Pade appr. of Perdew
 generate k-points for:    6    6    2
 POSCAR, INCAR and KPOINTS ok, starting setup
 FFT: planning ...
 WAVECAR not read
 entering main loop
       N       E                     dE             d eps       ncg     rms          ort
DAV:   1     0.349705705771E+04    0.34971E+04   -0.13945E+05  5760   0.219E+03
DAV:   2     0.403144455339E+03   -0.30939E+04   -0.28447E+04  5760   0.535E+02
DAV:   3    -0.222614520347E+03   -0.62576E+03   -0.57329E+03  5760   0.255E+02
DAV:   4    -0.271182885856E+03   -0.48568E+02   -0.47589E+02  5760   0.730E+01
DAV:   5    -0.272831925254E+03   -0.16490E+01   -0.16463E+01  5760   0.134E+01
 gam= 0.000 g(H,U,f)=  0.175E+04 0.142E+04 0.175E+04 ort(H,U,f) = 0.000E+00 0.000E+00 0.000E+00
SDA:   6     0.944318204032E+02    0.36726E+03   -0.16463E+01  5760   0.492E+04 0.000E+00
 gam= 0.000 trial= 0.400  step= 0.079 mean= 0.400
 gam= 1.427 g(H,U,f)=  0.105E+04 0.231E+04 0.366E+04 ort(H,U,f) = 0.908E+03-0.307E+03-0.112E+04
CGA:   7     0.712895283705E+02   -0.23142E+02   -0.19404E+03  5760   0.702E+04-0.516E+03
 gam= 1.427 trial= 0.384  step= 0.075 mean= 0.384
 gam= 0.235 g(H,U,f)=  0.234E+03 0.799E+03 0.617E+03 ort(H,U,f) = 0.732E+03 0.157E+03-0.574E+03
CGA:   8    -0.139192190288E+03   -0.21048E+03   -0.23426E+03  5760   0.165E+04 0.316E+03
 gam= 0.235 trial= 0.368  step= 0.075 mean= 0.368
 gam= 0.517 g(H,U,f)=  0.916E+02 0.409E+03 0.352E+03 ort(H,U,f) =-0.647E+01-0.312E+03-0.394E+03
CGA:   9    -0.187319036905E+03   -0.48127E+02   -0.64268E+02  5760   0.853E+03-0.713E+03
 gam= 0.517 trial= 0.354  step= 0.083 mean= 0.354
 gam= 0.156 g(H,U,f)=  0.931E+02 0.319E+02 0.766E+01 ort(H,U,f) =-0.514E+02-0.920E+02-0.620E+01
CGA:  10    -0.197502059450E+03   -0.10183E+02   -0.20131E+02  5760   0.133E+03-0.150E+03
 gam= 0.156 trial= 0.340  step= 0.208 mean= 0.340
 gam= 2.482 g(H,U,f)=  0.411E+02 0.145E+03 0.143E+03 ort(H,U,f) = 0.410E+02-0.277E+02-0.235E+02
CGA:  11    -0.207089300166E+03   -0.95872E+01   -0.11401E+02  5760   0.329E+03-0.102E+02
 gam= 2.482 trial= 0.334  step= 0.086 mean= 0.334
 gam= 0.103 g(H,U,f)=  0.903E+01 0.221E+02 0.273E+01 ort(H,U,f) =-0.217E+02-0.247E+02-0.527E+01
CGA:  12    -0.216320891407E+03   -0.92316E+01   -0.13048E+02  5760   0.339E+02-0.516E+02
 gam= 0.103 trial= 0.321  step= 0.107 mean= 0.321
 gam= 0.984 g(H,U,f)=  0.512E+01 0.223E+02 0.590E+01 ort(H,U,f) = 0.274E+01-0.256E+01-0.270E+01
CGA:  13    -0.217708508615E+03   -0.13876E+01   -0.15238E+01  5760   0.334E+02-0.252E+01
 gam= 0.984 trial= 0.311  step= 0.105 mean= 0.311
 gam= 0.426 g(H,U,f)=  0.356E+01 0.960E+01 0.104E+01 ort(H,U,f) = 0.184E+00-0.357E+01-0.914E+00
CGA:  14    -0.218983840114E+03   -0.12753E+01   -0.16206E+01  5760   0.142E+02-0.430E+01
 gam= 0.426 trial= 0.300  step= 0.129 mean= 0.300
 gam= 0.539 g(H,U,f)=  0.222E+01 0.465E+01 0.800E+00 ort(H,U,f) = 0.118E+01-0.119E+01-0.387E+00
CGA:  15    -0.219740654190E+03   -0.75681E+00   -0.80097E+00  5760   0.766E+01-0.399E+00
 gam= 0.539 trial= 0.292  step= 0.108 mean= 0.292
 gam= 0.695 g(H,U,f)=  0.157E+01 0.301E+01 0.743E+00 ort(H,U,f) = 0.123E+01-0.148E+01-0.493E+00
CGA:  16    -0.220082974744E+03   -0.34232E+00   -0.40189E+00  5760   0.533E+01-0.743E+00
 gam= 0.695 trial= 0.283  step= 0.172 mean= 0.283
 gam= 0.778 g(H,U,f)=  0.790E+00 0.286E+01 0.497E+00 ort(H,U,f) = 0.296E+00-0.664E-01-0.244E+00
CGA:  17    -0.220489090261E+03   -0.40612E+00   -0.41401E+00  5760   0.414E+01-0.149E-01
 gam= 0.778 trial= 0.277  step= 0.099 mean= 0.277
 gam= 0.539 g(H,U,f)=  0.377E+00 0.146E+01 0.393E+00 ort(H,U,f) =-0.182E+00 0.219E+00-0.166E+00
CGA:  18    -0.220685780859E+03   -0.19669E+00   -0.20546E+00  5760   0.223E+01-0.128E+00
 gam= 0.539 trial= 0.268  step= 0.119 mean= 0.268
 gam= 0.593 g(H,U,f)=  0.312E+00 0.843E+00 0.170E+00 ort(H,U,f) =-0.255E+00 0.240E+00-0.727E-01
CGA:  19    -0.220806378464E+03   -0.12060E+00   -0.12867E+00  5760   0.133E+01-0.877E-01
 gam= 0.593 trial= 0.261  step= 0.195 mean= 0.261
 gam= 1.199 g(H,U,f)=  0.350E+00 0.104E+01 0.195E+00 ort(H,U,f) =-0.113E+00 0.159E+00-0.289E-01
CGA:  20    -0.220927166829E+03   -0.12079E+00   -0.12409E+00  5760   0.159E+01 0.172E-01
 gam= 1.199 trial= 0.257  step= 0.156 mean= 0.257
 gam= 0.849 g(H,U,f)=  0.280E+00 0.895E+00 0.174E+00 ort(H,U,f) =-0.108E+00 0.925E-01 0.934E-02
CGA:  21    -0.221051065470E+03   -0.12390E+00   -0.12574E+00  5760   0.135E+01-0.633E-02
 gam= 0.849 trial= 0.252  step= 0.191 mean= 0.252
 gam= 1.070 g(H,U,f)=  0.249E+00 0.982E+00 0.212E+00 ort(H,U,f) =-0.155E+00 0.178E+00 0.286E-02
CGA:  22    -0.221175856713E+03   -0.12479E+00   -0.12798E+00  5760   0.144E+01 0.258E-01
 gam= 1.070 trial= 0.249  step= 0.160 mean= 0.249
 gam= 1.020 g(H,U,f)=  0.383E+00 0.843E+00 0.246E+00 ort(H,U,f) =-0.230E+00 0.322E+00-0.109E+00
CGA:  23    -0.221288523926E+03   -0.11267E+00   -0.11763E+00  5760   0.147E+01-0.182E-01
 gam= 1.020 trial= 0.245  step= 0.221 mean= 0.245
 gam= 0.988 g(H,U,f)=  0.515E+00 0.797E+00 0.143E+00 ort(H,U,f) =-0.157E+00 0.148E+00 0.263E-01
CGA:  24    -0.221448772847E+03   -0.16025E+00   -0.16070E+00  5760   0.145E+01 0.168E-01
 gam= 0.988 trial= 0.244  step= 0.388 mean= 0.244
 gam= 1.095 g(H,U,f)=  0.657E+00 0.731E+00 0.207E+00 ort(H,U,f) =-0.277E+00 0.419E+00-0.487E-01
CGA:  25    -0.221744913045E+03   -0.29614E+00   -0.28546E+00  5760   0.159E+01 0.932E-01
 gam= 1.095 trial= 0.251  step= 0.226 mean= 0.251
 gam= 1.028 g(H,U,f)=  0.604E+00 0.799E+00 0.236E+00 ort(H,U,f) =-0.331E+00 0.433E+00-0.822E-01
CGA:  26    -0.221935955534E+03   -0.19104E+00   -0.19142E+00  5760   0.164E+01 0.201E-01
 gam= 1.028 trial= 0.250  step= 0.262 mean= 0.250
 gam= 1.076 g(H,U,f)=  0.801E+00 0.951E+00 0.113E-01 ort(H,U,f) =-0.381E+00 0.450E+00 0.272E-03
CGA:  27    -0.222153754826E+03   -0.21780E+00   -0.21702E+00  5760   0.176E+01 0.696E-01
 gam= 1.076 trial= 0.250  step= 0.317 mean= 0.250
 gam= 0.816 g(H,U,f)=  0.771E+00 0.665E+00 0.321E-02 ort(H,U,f) =-0.303E+00 0.509E+00 0.155E-01
CGA:  28    -0.222456412272E+03   -0.30266E+00   -0.29138E+00  5760   0.144E+01 0.221E+00
 gam= 0.816 trial= 0.254  step= 0.344 mean= 0.254
 gam= 1.078 g(H,U,f)=  0.570E+00 0.884E+00 0.978E-01 ort(H,U,f) =-0.444E+00 0.294E+00 0.569E-01
CGA:  29    -0.222729571324E+03   -0.27316E+00   -0.27824E+00  5760   0.155E+01-0.930E-01
 gam= 1.078 trial= 0.258  step= 0.258 mean= 0.258
 gam= 1.036 g(H,U,f)=  0.746E+00 0.860E+00 0.104E-02 ort(H,U,f) =-0.316E+00 0.396E+00 0.856E-03
CGA:  30    -0.222916566060E+03   -0.18699E+00   -0.18702E+00  5760   0.161E+01 0.808E-01
 gam= 1.036 trial= 0.258  step= 0.250 mean= 0.258
 gam= 0.641 g(H,U,f)=  0.437E+00 0.590E+00 0.289E-02 ort(H,U,f) =-0.108E+00 0.194E+00-0.280E-03
CGA:  31    -0.223127629132E+03   -0.21106E+00   -0.21174E+00  5760   0.103E+01 0.858E-01
 gam= 0.641 trial= 0.258  step= 0.270 mean= 0.258
 gam= 0.635 g(H,U,f)=  0.344E+00 0.310E+00 0.174E-03 ort(H,U,f) =-0.963E-01 0.159E+00 0.145E-03
CGA:  32    -0.223274673357E+03   -0.14704E+00   -0.14634E+00  5760   0.654E+00 0.634E-01
 gam= 0.635 trial= 0.258  step= 0.363 mean= 0.258
 gam= 0.744 g(H,U,f)=  0.257E+00 0.230E+00 0.297E-11 ort(H,U,f) =-0.274E-01 0.545E-01 0.504E-11
CGA:  33    -0.223402689719E+03   -0.12802E+00   -0.12605E+00  5760   0.487E+00 0.271E-01
 gam= 0.744 trial= 0.263  step= 0.333 mean= 0.263
 gam= 0.668 g(H,U,f)=  0.152E+00 0.173E+00 0.763E-13 ort(H,U,f) =-0.644E-01 0.628E-01 0.294E-12
CGA:  34    -0.223487095758E+03   -0.84406E-01   -0.84473E-01  5760   0.325E+00-0.169E-02
 gam= 0.668 trial= 0.267  step= 0.402 mean= 0.267
 gam= 0.888 g(H,U,f)=  0.137E+00 0.151E+00 0.547E-06 ort(H,U,f) =-0.789E-01 0.812E-01-0.110E-05
CGA:  35    -0.223552461910E+03   -0.65366E-01   -0.65147E-01  5760   0.289E+00 0.232E-02
 gam= 0.888 trial= 0.274  step= 0.368 mean= 0.274
 gam= 0.741 g(H,U,f)=  0.120E+00 0.944E-01 0.137E-06 ort(H,U,f) =-0.570E-01 0.582E-01 0.462E-06
CGA:  36    -0.223606054403E+03   -0.53592E-01   -0.53501E-01  5760   0.214E+00 0.127E-02
 gam= 0.741 trial= 0.278  step= 0.411 mean= 0.278
 gam= 0.000 g(H,U,f)=  0.870E-01 0.924E-01 0.125E-05 ort(H,U,f) =-0.367E-01 0.364E-01-0.147E-05
SDA:  37    -0.223650194694E+03   -0.44140E-01   -0.44158E-01  5760   0.179E+00-0.303E-03
 gam= 0.000 trial= 0.285  step= 0.358 mean= 0.285
 gam= 0.562 g(H,U,f)=  0.490E-01 0.518E-01 0.277E-06 ort(H,U,f) =-0.348E-03 0.429E-03 0.253E-06
CGA:  38    -0.223682303970E+03   -0.32109E-01   -0.32106E-01  5760   0.101E+00 0.814E-04
 gam= 0.562 trial= 0.289  step= 0.752 mean= 0.289
 gam= 0.543 g(H,U,f)=  0.290E-01 0.258E-01 0.501E-08 ort(H,U,f) =-0.232E-01 0.237E-01 0.105E-07
CGA:  39    -0.223720329374E+03   -0.38025E-01   -0.37909E-01  5760   0.548E-01 0.528E-03
 gam= 0.543 trial= 0.312  step= 0.486 mean= 0.312
 gam= 0.686 g(H,U,f)=  0.175E-01 0.201E-01 0.341E-06 ort(H,U,f) =-0.102E-01 0.101E-01 0.164E-05
CGA:  40    -0.223733694022E+03   -0.13365E-01   -0.13373E-01  5760   0.376E-01-0.100E-03
 gam= 0.686 trial= 0.321  step= 0.583 mean= 0.321
 gam= 0.673 g(H,U,f)=  0.142E-01 0.111E-01 0.990E-07 ort(H,U,f) =-0.776E-02 0.778E-02 0.129E-06
CGA:  41    -0.223744628775E+03   -0.10935E-01   -0.10931E-01  5760   0.253E-01 0.256E-04
 gam= 0.673 trial= 0.334  step= 0.690 mean= 0.334
 gam= 0.728 g(H,U,f)=  0.987E-02 0.858E-02 0.171E-12 ort(H,U,f) =-0.344E-02 0.345E-02 0.519E-13
CGA:  42    -0.223753371243E+03   -0.87425E-02   -0.87408E-02  5760   0.184E-01 0.900E-05
 gam= 0.728 trial= 0.351  step= 0.590 mean= 0.351
 gam= 0.651 g(H,U,f)=  0.521E-02 0.680E-02 0.212E-12 ort(H,U,f) =-0.320E-02 0.318E-02-0.225E-12
CGA:  43    -0.223758809974E+03   -0.54387E-02   -0.54409E-02  5760   0.120E-01-0.199E-04
 gam= 0.651 trial= 0.363  step= 0.844 mean= 0.363
 gam= 1.139 g(H,U,f)=  0.519E-02 0.849E-02 0.129E-12 ort(H,U,f) =-0.255E-02 0.253E-02-0.455E-13
CGA:  44    -0.223763871756E+03   -0.50618E-02   -0.50648E-02  5760   0.137E-01-0.135E-04
 gam= 1.139 trial= 0.387  step= 0.610 mean= 0.387
 gam= 0.850 g(H,U,f)=  0.537E-02 0.627E-02 0.251E-12 ort(H,U,f) =-0.359E-02 0.361E-02 0.201E-12
CGA:  45    -0.223768044935E+03   -0.41732E-02   -0.41711E-02  5760   0.116E-01 0.174E-04
 gam= 0.850 trial= 0.399  step= 1.039 mean= 0.399
 gam= 1.174 g(H,U,f)=  0.738E-02 0.627E-02 0.625E-12 ort(H,U,f) =-0.275E-02 0.271E-02 0.254E-11
CGA:  46    -0.223774088468E+03   -0.60435E-02   -0.60536E-02  5760   0.137E-01-0.403E-04
 gam= 1.174 trial= 0.431  step= 0.608 mean= 0.431
 gam= 0.597 g(H,U,f)=  0.432E-02 0.383E-02 0.234E-10 ort(H,U,f) =-0.171E-02 0.175E-02-0.413E-10
CGA:  47    -0.223778230872E+03   -0.41424E-02   -0.41388E-02  5760   0.815E-02 0.439E-04
 gam= 0.597 trial= 0.439  step= 0.747 mean= 0.439
 gam= 0.788 g(H,U,f)=  0.252E-02 0.390E-02 0.721E-10 ort(H,U,f) =-0.966E-03 0.942E-03-0.113E-09
CGA:  48    -0.223781282224E+03   -0.30514E-02   -0.30552E-02  5760   0.642E-02-0.239E-04
 gam= 0.788 trial= 0.455  step= 0.558 mean= 0.455
 gam= 0.813 g(H,U,f)=  0.181E-02 0.342E-02 0.283E-10 ort(H,U,f) =-0.717E-03 0.709E-03-0.463E-10
CGA:  49    -0.223783069284E+03   -0.17871E-02   -0.17874E-02  5760   0.522E-02-0.807E-05
 gam= 0.813 trial= 0.460  step= 0.818 mean= 0.460
 gam= 0.998 g(H,U,f)=  0.238E-02 0.283E-02 0.446E-06 ort(H,U,f) =-0.136E-02 0.133E-02-0.592E-07
CGA:  50    -0.223785197859E+03   -0.21286E-02   -0.21345E-02  5760   0.521E-02-0.331E-04
 gam= 0.998 trial= 0.478  step= 0.736 mean= 0.478
 gam= 0.914 g(H,U,f)=  0.231E-02 0.245E-02 0.274E-06 ort(H,U,f) =-0.126E-02 0.124E-02 0.115E-06
CGA:  51    -0.223787100466E+03   -0.19026E-02   -0.19055E-02  5760   0.476E-02-0.233E-04
 gam= 0.914 trial= 0.491  step= 0.838 mean= 0.491
 gam= 0.825 g(H,U,f)=  0.220E-02 0.173E-02 0.937E-12 ort(H,U,f) =-0.117E-02 0.116E-02-0.569E-11
CGA:  52    -0.223789085319E+03   -0.19849E-02   -0.19867E-02  5760   0.393E-02-0.127E-04
 gam= 0.825 trial= 0.508  step= 0.910 mean= 0.508
 gam= 1.322 g(H,U,f)=  0.213E-02 0.306E-02 0.668E-11 ort(H,U,f) =-0.494E-03 0.518E-03-0.605E-11
CGA:  53    -0.223790873508E+03   -0.17882E-02   -0.17836E-02  5760   0.519E-02 0.236E-04
 gam= 1.322 trial= 0.528  step= 0.686 mean= 0.528
 gam= 0.655 g(H,U,f)=  0.156E-02 0.184E-02 0.166E-11 ort(H,U,f) =-0.107E-02 0.109E-02-0.215E-11
CGA:  54    -0.223792667895E+03   -0.17944E-02   -0.17927E-02  5760   0.340E-02 0.185E-04
 gam= 0.655 trial= 0.536  step= 0.634 mean= 0.536
 gam= 1.010 g(H,U,f)=  0.146E-02 0.197E-02 0.219E-11 ort(H,U,f) =-0.377E-03 0.394E-03-0.783E-12
CGA:  55    -0.223793750818E+03   -0.10829E-02   -0.10820E-02  5760   0.343E-02 0.170E-04
 gam= 1.010 trial= 0.541  step= 0.724 mean= 0.541
 gam= 0.461 g(H,U,f)=  0.857E-03 0.725E-03 0.104E-11 ort(H,U,f) =-0.627E-03 0.642E-03 0.127E-11
CGA:  56    -0.223795000450E+03   -0.12496E-02   -0.12484E-02  5760   0.158E-02 0.141E-04
 gam= 0.461 trial= 0.550  step= 0.699 mean= 0.550
 gam= 0.923 g(H,U,f)=  0.653E-03 0.807E-03 0.176E-11 ort(H,U,f) =-0.471E-04 0.439E-04 0.121E-11
CGA:  57    -0.223795555778E+03   -0.55533E-03   -0.55559E-03  5760   0.146E-02-0.320E-05
 gam= 0.923 trial= 0.558  step= 0.613 mean= 0.558
 gam= 0.598 g(H,U,f)=  0.391E-03 0.482E-03 0.346E-12 ort(H,U,f) =-0.132E-03 0.119E-03 0.106E-11
CGA:  58    -0.223796002015E+03   -0.44624E-03   -0.44661E-03  5760   0.873E-03-0.132E-04
 gam= 0.598 trial= 0.560  step= 0.620 mean= 0.560
 gam= 0.729 g(H,U,f)=  0.268E-03 0.369E-03 0.519E-12 ort(H,U,f) =-0.939E-04 0.864E-04-0.336E-13
CGA:  59    -0.223796269980E+03   -0.26796E-03   -0.26819E-03  5760   0.637E-03-0.750E-05
 gam= 0.729 trial= 0.563  step= 0.893 mean= 0.563
 gam= 0.939 g(H,U,f)=  0.264E-03 0.333E-03 0.217E-11 ort(H,U,f) =-0.164E-03 0.153E-03-0.320E-11
CGA:  60    -0.223796549966E+03   -0.27999E-03   -0.28171E-03  5760   0.598E-03-0.105E-04
 gam= 0.939 trial= 0.580  step= 0.805 mean= 0.580
 gam= 1.118 g(H,U,f)=  0.311E-03 0.358E-03 0.169E-11 ort(H,U,f) =-0.140E-03 0.133E-03 0.552E-12
CGA:  61    -0.223796785806E+03   -0.23584E-03   -0.23654E-03  5760   0.668E-03-0.632E-05
 gam= 1.118 trial= 0.591  step= 0.733 mean= 0.591
 gam= 0.728 g(H,U,f)=  0.243E-03 0.244E-03 0.227E-12 ort(H,U,f) =-0.140E-03 0.138E-03 0.209E-12
CGA:  62    -0.223797028048E+03   -0.24224E-03   -0.24240E-03  5760   0.487E-03-0.226E-05
 gam= 0.728 trial= 0.598  step= 0.689 mean= 0.598
 gam= 1.013 g(H,U,f)=  0.218E-03 0.275E-03 0.697E-12 ort(H,U,f) =-0.586E-04 0.627E-04 0.679E-12
CGA:  63    -0.223797195195E+03   -0.16715E-03   -0.16697E-03  5760   0.493E-03 0.408E-05
 gam= 1.013 trial= 0.603  step= 0.649 mean= 0.603
 gam= 0.690 g(H,U,f)=  0.175E-03 0.166E-03 0.104E-12 ort(H,U,f) =-0.859E-04 0.880E-04 0.165E-12
CGA:  64    -0.223797356706E+03   -0.16151E-03   -0.16145E-03  5760   0.340E-03 0.218E-05
 gam= 0.690 trial= 0.605  step= 0.898 mean= 0.605
 gam= 1.003 g(H,U,f)=  0.156E-03 0.185E-03 0.257E-12 ort(H,U,f) =-0.663E-04 0.701E-04-0.322E-12
CGA:  65    -0.223797510726E+03   -0.15402E-03   -0.15348E-03  5760   0.341E-03 0.378E-05
 gam= 1.003 trial= 0.620  step= 0.789 mean= 0.620
 gam= 0.883 g(H,U,f)=  0.153E-03 0.148E-03 0.593E-12 ort(H,U,f) =-0.851E-04 0.882E-04-0.870E-12
CGA:  66    -0.223797647112E+03   -0.13639E-03   -0.13611E-03  5760   0.301E-03 0.315E-05
 gam= 0.883 trial= 0.628  step= 0.873 mean= 0.628
 gam= 1.263 g(H,U,f)=  0.149E-03 0.232E-03 0.122E-11 ort(H,U,f) =-0.581E-04 0.573E-04 0.144E-12
CGA:  67    -0.223797779802E+03   -0.13269E-03   -0.13281E-03  5760   0.381E-03-0.810E-06
 gam= 1.263 trial= 0.640  step= 0.601 mean= 0.640
 gam= 0.000 g(H,U,f)=  0.127E-03 0.100E-03 0.116E-11 ort(H,U,f) =-0.791E-04 0.766E-04 0.165E-11
SDA:  68    -0.223797894062E+03   -0.11426E-03   -0.11421E-03  5760   0.227E-03-0.243E-05
 gam= 0.000 trial= 0.638  step= 0.523 mean= 0.638
 gam= 0.890 g(H,U,f)=  0.644E-04 0.138E-03 0.358E-12 ort(H,U,f) = 0.305E-04-0.286E-04 0.541E-12
CGA:  69    -0.223797953448E+03   -0.59386E-04   -0.59501E-04  5760   0.202E-03 0.197E-05
 gam= 0.890 trial= 0.633  step= 0.655 mean= 0.633
 gam= 0.615 g(H,U,f)=  0.566E-04 0.678E-04 0.420E-12 ort(H,U,f) =-0.404E-04 0.391E-04 0.267E-12
CGA:  70    -0.223798020313E+03   -0.66866E-04   -0.66881E-04  5760   0.124E-03-0.138E-05
 gam= 0.615 trial= 0.634  step= 0.797 mean= 0.634
 gam= 1.047 g(H,U,f)=  0.565E-04 0.737E-04 0.586E-12 ort(H,U,f) =-0.297E-04 0.279E-04 0.123E-12
CGA:  71    -0.223798069399E+03   -0.49085E-04   -0.49228E-04  5760   0.130E-03-0.173E-05
 gam= 1.047 trial= 0.642  step= 0.835 mean= 0.642
 gam= 0.900 g(H,U,f)=  0.571E-04 0.601E-04 0.253E-12 ort(H,U,f) =-0.424E-04 0.430E-04-0.850E-12
CGA:  72    -0.223798123054E+03   -0.53655E-04   -0.53600E-04  5760   0.117E-03 0.563E-06
 gam= 0.900 trial= 0.652  step= 0.849 mean= 0.652
 gam= 1.453 g(H,U,f)=  0.691E-04 0.101E-03 0.796E-12 ort(H,U,f) =-0.281E-04 0.274E-04-0.750E-12
CGA:  73    -0.223798172967E+03   -0.49913E-04   -0.49980E-04  5760   0.170E-03-0.664E-06
 gam= 1.453 trial= 0.661  step= 0.837 mean= 0.661
 gam= 0.995 g(H,U,f)=  0.858E-04 0.835E-04 0.686E-12 ort(H,U,f) =-0.475E-04 0.452E-04-0.888E-12
CGA:  74    -0.223798243627E+03   -0.70660E-04   -0.70865E-04  5760   0.169E-03-0.229E-05
 gam= 0.995 trial= 0.670  step= 0.969 mean= 0.670
 gam= 1.168 g(H,U,f)=  0.964E-04 0.101E-03 0.115E-11 ort(H,U,f) =-0.379E-04 0.390E-04-0.118E-12
CGA:  75    -0.223798324729E+03   -0.81102E-04   -0.80924E-04  5760   0.198E-03 0.113E-05
 gam= 1.168 trial= 0.685  step= 0.803 mean= 0.685
 gam= 0.846 g(H,U,f)=  0.823E-04 0.849E-04 0.109E-11 ort(H,U,f) =-0.377E-04 0.374E-04 0.421E-12
CGA:  76    -0.223798404582E+03   -0.79854E-04   -0.79889E-04  5760   0.167E-03-0.324E-06
 gam= 0.846 trial= 0.691  step= 0.963 mean= 0.691
 gam= 1.003 g(H,U,f)=  0.760E-04 0.918E-04 0.133E-11 ort(H,U,f) =-0.391E-04 0.400E-04-0.484E-12
CGA:  77    -0.223798485137E+03   -0.80555E-04   -0.80421E-04  5760   0.168E-03 0.944E-06
 gam= 1.003 trial= 0.705  step= 0.716 mean= 0.705
 gam= 1.043 g(H,U,f)=  0.780E-04 0.970E-04 0.256E-12 ort(H,U,f) =-0.376E-04 0.389E-04-0.684E-12
CGA:  78    -0.223798545517E+03   -0.60380E-04   -0.60373E-04  5760   0.175E-03 0.129E-05
 gam= 1.043 trial= 0.705  step= 0.853 mean= 0.705
 gam= 1.389 g(H,U,f)=  0.969E-04 0.146E-03 0.463E-12 ort(H,U,f) =-0.376E-04 0.386E-04-0.865E-12
CGA:  79    -0.223798620792E+03   -0.75275E-04   -0.75231E-04  5760   0.243E-03 0.962E-06
 gam= 1.389 trial= 0.713  step= 0.661 mean= 0.713
 gam= 0.622 g(H,U,f)=  0.890E-04 0.622E-04 0.162E-11 ort(H,U,f) =-0.659E-04 0.644E-04-0.102E-11
CGA:  80    -0.223798701539E+03   -0.80747E-04   -0.80720E-04  5760   0.151E-03-0.144E-05
 gam= 0.622 trial= 0.710  step= 1.198 mean= 0.710
 gam= 1.106 g(H,U,f)=  0.809E-04 0.863E-04 0.265E-12 ort(H,U,f) =-0.261E-04 0.238E-04-0.936E-13
CGA:  81    -0.223798790961E+03   -0.89422E-04   -0.89991E-04  5760   0.167E-03-0.228E-05
 gam= 1.106 trial= 0.734  step= 0.631 mean= 0.734
 gam= 0.560 g(H,U,f)=  0.537E-04 0.398E-04 0.107E-11 ort(H,U,f) =-0.241E-04 0.221E-04 0.120E-11
CGA:  82    -0.223798843037E+03   -0.52076E-04   -0.51948E-04  5760   0.936E-04-0.210E-05
 gam= 0.560 trial= 0.729  step= 0.884 mean= 0.729
 gam= 0.923 g(H,U,f)=  0.354E-04 0.510E-04 0.659E-13 ort(H,U,f) =-0.979E-05 0.882E-05 0.278E-12
CGA:  83    -0.223798883783E+03   -0.40746E-04   -0.40821E-04  5760   0.864E-04-0.969E-06
 gam= 0.923 trial= 0.737  step= 0.581 mean= 0.737
 gam= 0.582 g(H,U,f)=  0.233E-04 0.269E-04 0.539E-12 ort(H,U,f) =-0.110E-04 0.109E-04-0.129E-11
CGA:  84    -0.223798908629E+03   -0.24846E-04   -0.24837E-04  5760   0.502E-04-0.863E-07
 gam= 0.582 trial= 0.729  step= 0.737 mean= 0.729
 gam= 0.966 g(H,U,f)=  0.201E-04 0.285E-04 0.372E-12 ort(H,U,f) =-0.554E-05 0.600E-05-0.345E-12
CGA:  85    -0.223798927115E+03   -0.18486E-04   -0.18485E-04  5760   0.485E-04 0.460E-06
 gam= 0.966 trial= 0.730  step= 0.671 mean= 0.730
 gam= 0.794 g(H,U,f)=  0.191E-04 0.194E-04 0.443E-12 ort(H,U,f) =-0.923E-05 0.890E-05 0.675E-13
CGA:  86    -0.223798943558E+03   -0.16442E-04   -0.16433E-04  5760   0.386E-04-0.328E-06
 gam= 0.794 trial= 0.727  step= 0.844 mean= 0.727
 gam= 0.850 g(H,U,f)=  0.139E-04 0.188E-04 0.136E-12 ort(H,U,f) =-0.742E-05 0.818E-05 0.266E-12
CGA:  87    -0.223798959757E+03   -0.16200E-04   -0.16156E-04  5760   0.328E-04 0.763E-06
 gam= 0.850 trial= 0.732  step= 0.658 mean= 0.732
 gam= 0.977 g(H,U,f)=  0.134E-04 0.186E-04 0.360E-12 ort(H,U,f) =-0.586E-05 0.564E-05-0.189E-12
CGA:  88    -0.223798970757E+03   -0.10999E-04   -0.10991E-04  5760   0.320E-04-0.217E-06
 gam= 0.977 trial= 0.729  step= 0.857 mean= 0.729
 gam= 1.029 g(H,U,f)=  0.139E-04 0.190E-04 0.399E-13 ort(H,U,f) =-0.806E-05 0.734E-05-0.564E-13
CGA:  89    -0.223798984327E+03   -0.13570E-04   -0.13615E-04  5760   0.329E-04-0.714E-06
 gam= 1.029 trial= 0.735  step= 0.708 mean= 0.735
 gam= 0.769 g(H,U,f)=  0.142E-04 0.112E-04 0.313E-13 ort(H,U,f) =-0.795E-05 0.757E-05-0.148E-12
CGA:  90    -0.223798995733E+03   -0.11407E-04   -0.11401E-04  5760   0.253E-04-0.373E-06
 gam= 0.769 trial= 0.734  step= 1.144 mean= 0.734
 gam= 1.052 g(H,U,f)=  0.126E-04 0.141E-04 0.399E-12 ort(H,U,f) =-0.485E-05 0.389E-05-0.281E-12
CGA:  91    -0.223799009854E+03   -0.14121E-04   -0.14319E-04  5760   0.266E-04-0.960E-06
 gam= 1.052 trial= 0.754  step= 0.646 mean= 0.754
 gam= 0.722 g(H,U,f)=  0.103E-04 0.888E-05 0.609E-12 ort(H,U,f) =-0.323E-05 0.234E-05 0.109E-12
CGA:  92    -0.223799018174E+03   -0.83198E-05   -0.82715E-05  5760   0.192E-04-0.895E-06
 gam= 0.722 trial= 0.749  step= 0.782 mean= 0.749
 gam= 0.715 g(H,U,f)=  0.575E-05 0.800E-05 0.109E-12 ort(H,U,f) =-0.197E-05 0.238E-05 0.287E-12
CGA:  93    -0.223799025451E+03   -0.72770E-05   -0.72703E-05  5760   0.138E-04 0.406E-06
 gam= 0.715 trial= 0.751  step= 0.575 mean= 0.751
 gam= 0.868 g(H,U,f)=  0.513E-05 0.680E-05 0.626E-13 ort(H,U,f) =-0.131E-05 0.149E-05 0.602E-13
CGA:  94    -0.223799029475E+03   -0.40233E-05   -0.40384E-05  5760   0.119E-04 0.172E-06
 gam= 0.868 trial= 0.742  step= 0.805 mean= 0.742
 gam= 0.801 g(H,U,f)=  0.416E-05 0.539E-05 0.275E-13 ort(H,U,f) =-0.216E-05 0.273E-05 0.866E-13
CGA:  95    -0.223799034358E+03   -0.48838E-05   -0.48654E-05  5760   0.956E-05 0.577E-06
 gam= 0.801 trial= 0.745  step= 0.639 mean= 0.745
 gam= 0.705 g(H,U,f)=  0.345E-05 0.328E-05 0.295E-13 ort(H,U,f) =-0.172E-05 0.229E-05-0.159E-12
CGA:  96    -0.223799037530E+03   -0.31713E-05   -0.32012E-05  5760   0.674E-05 0.565E-06
 gam= 0.705 trial= 0.740  step= 1.315 mean= 0.740
 gam= 0.827 g(H,U,f)=  0.288E-05 0.269E-05 0.903E-13 ort(H,U,f) =-0.160E-05 0.199E-05-0.150E-12
CGA:  97    -0.223799042334E+03   -0.48045E-05   -0.46903E-05  5760   0.557E-05 0.397E-06
 gam= 0.827 trial= 0.768  step= 0.961 mean= 0.768
 gam= 1.776 g(H,U,f)=  0.434E-05 0.555E-05 0.182E-12 ort(H,U,f) =-0.140E-05 0.612E-06-0.512E-13
CGA:  98    -0.223799045091E+03   -0.27565E-05   -0.28324E-05  5760   0.989E-05-0.791E-06
 gam= 1.776 trial= 0.778  step= 0.629 mean= 0.778
 gam= 0.000 g(H,U,f)=  0.355E-05 0.284E-05 0.220E-12 ort(H,U,f) =-0.182E-05 0.175E-05 0.938E-13
SDA:  99    -0.223799047762E+03   -0.26715E-05   -0.26665E-05  5760   0.640E-05-0.655E-07
 gam= 0.000 trial= 0.771  step= 0.498 mean= 0.771
 gam= 0.544 g(H,U,f)=  0.116E-05 0.232E-05 0.441E-13 ort(H,U,f) = 0.569E-06-0.386E-06 0.962E-13
CGA: 100    -0.223799049330E+03   -0.15680E-05   -0.15930E-05  5760   0.348E-05 0.183E-06
 gam= 0.544 trial= 0.757  step= 0.617 mean= 0.757
 gam= 0.909 g(H,U,f)=  0.108E-05 0.208E-05 0.903E-14 ort(H,U,f) =-0.247E-06 0.254E-06 0.319E-13
CGA: 101    -0.223799050433E+03   -0.11033E-05   -0.11038E-05  5760   0.316E-05 0.690E-08
 gam= 0.909 trial= 0.750  step= 0.884 mean= 0.750
 gam= 1.018 g(H,U,f)=  0.146E-05 0.176E-05 0.136E-13 ort(H,U,f) =-0.944E-06 0.618E-06 0.244E-13
CGA: 102    -0.223799051811E+03   -0.13778E-05   -0.13996E-05  5760   0.322E-05-0.327E-06
 gam= 1.018 trial= 0.757  step= 0.612 mean= 0.757
 gam= 0.623 g(H,U,f)=  0.121E-05 0.793E-06 0.104E-13 ort(H,U,f) =-0.774E-06 0.989E-06-0.541E-13
CGA: 103    -0.223799052679E+03   -0.86749E-06   -0.88305E-06  5760   0.200E-05 0.215E-06
 gam= 0.623 trial= 0.749  step= 1.032 mean= 0.749
 gam= 1.308 g(H,U,f)=  0.104E-05 0.158E-05 0.151E-13 ort(H,U,f) =-0.430E-06 0.432E-06-0.152E-13
CGA: 104    -0.223799053782E+03   -0.11031E-05   -0.11029E-05  5760   0.262E-05 0.134E-08
 gam= 1.308 trial= 0.764  step= 0.724 mean= 0.764
 gam= 0.902 g(H,U,f)=  0.118E-05 0.118E-05 0.186E-13 ort(H,U,f) =-0.830E-06 0.677E-06-0.224E-13
CGA: 105    -0.223799054734E+03   -0.95266E-06   -0.94960E-06  5760   0.236E-05-0.154E-06
 gam= 0.902 trial= 0.762  step= 0.665 mean= 0.762
 final diagonalization
   1 F= -.23330608E+03 E0= -.23330608E+03  d E =-.485478E-12  mag=     6.0000
