       N       E                     dE             d eps       ncg     rms          ort
DAV:   1     0.357111203235E+04    0.35711E+04   -0.14019E+05  5760   0.227E+03
DAV:   2     0.402518157792E+03   -0.31686E+04   -0.29133E+04  5760   0.559E+02
DAV:   3    -0.222633508632E+03   -0.62515E+03   -0.56408E+03  5760   0.260E+02
DAV:   4    -0.271279297488E+03   -0.48646E+02   -0.47777E+02  5760   0.748E+01
DAV:   5    -0.272766280867E+03   -0.14870E+01   -0.14847E+01  5760   0.129E+01
SDA:   6     0.102130084455E+03    0.37490E+03   -0.14847E+01  5760   0.575E+04 0.000E+00
CGA:   7     0.322498865297E+02   -0.69880E+02   -0.22901E+03  5760   0.805E+04-0.265E+03
CGA:   8    -0.540817911860E+02   -0.86332E+02   -0.35466E+03  5760   0.458E+04-0.585E+03
CGA:   9    -0.173372854110E+03   -0.11929E+03   -0.11053E+03  5760   0.574E+03-0.136E+04
CGA:  10    -0.192371655263E+03   -0.18999E+02   -0.33387E+02  5760   0.244E+03-0.476E+02
CGA:  11    -0.207122132397E+03   -0.14750E+02   -0.17338E+02  5760   0.199E+03-0.980E+01
CGA:  12    -0.214108918446E+03   -0.69868E+01   -0.78296E+01  5760   0.324E+02-0.823E+01
CGA:  13    -0.215460870047E+03   -0.13520E+01   -0.15246E+01  5760   0.348E+02-0.408E+01
CGA:  14    -0.217060975363E+03   -0.16001E+01   -0.17955E+01  5760   0.126E+02-0.175E+01
CGA:  15    -0.218083783168E+03   -0.10228E+01   -0.10262E+01  5760   0.778E+01-0.268E+00
CGA:  16    -0.218388986513E+03   -0.30520E+00   -0.34569E+00  5760   0.426E+01-0.411E+00
CGA:  17    -0.218858345226E+03   -0.46936E+00   -0.47125E+00  5760   0.132E+01-0.156E-01
CGA:  18    -0.219042048489E+03   -0.18370E+00   -0.18379E+00  5760   0.153E+01 0.436E-02
CGA:  19    -0.219170621666E+03   -0.12857E+00   -0.13600E+00  5760   0.101E+01-0.248E-02
CGA:  20    -0.219296225502E+03   -0.12560E+00   -0.12645E+00  5760   0.779E+00 0.869E-02
CGA:  21    -0.219445505431E+03   -0.14928E+00   -0.14689E+00  5760   0.122E+01 0.350E-01
CGA:  22    -0.219590063616E+03   -0.14456E+00   -0.15115E+00  5760   0.142E+01 0.550E-01
CGA:  23    -0.219841044525E+03   -0.25098E+00   -0.25453E+00  5760   0.139E+01-0.866E-02
CGA:  24    -0.219979043056E+03   -0.13800E+00   -0.14830E+00  5760   0.103E+01 0.134E+00
CGA:  25    -0.220183782082E+03   -0.20474E+00   -0.20161E+00  5760   0.964E+00 0.447E-01
CGA:  26    -0.220382359351E+03   -0.19858E+00   -0.19317E+00  5760   0.938E+00 0.753E-01
CGA:  27    -0.220518199278E+03   -0.13584E+00   -0.13618E+00  5760   0.633E+00 0.172E-01
CGA:  28    -0.220629159029E+03   -0.11096E+00   -0.11103E+00  5760   0.677E+00-0.190E-01
CGA:  29    -0.220713270706E+03   -0.84112E-01   -0.83673E-01  5760   0.561E+00 0.628E-02
CGA:  30    -0.220797025423E+03   -0.83755E-01   -0.83645E-01  5760   0.305E+00 0.198E-01
CGA:  31    -0.220856618879E+03   -0.59593E-01   -0.58911E-01  5760   0.212E+00-0.204E-01
CGA:  32    -0.220904934836E+03   -0.48316E-01   -0.52202E-01  5760   0.182E+00-0.307E-01
CGA:  33    -0.220928256709E+03   -0.23322E-01   -0.23289E-01  5760   0.258E+00-0.803E-02
CGA:  34    -0.220949409203E+03   -0.21152E-01   -0.23995E-01  5760   0.194E+00 0.223E-01
CGA:  35    -0.221003529634E+03   -0.54120E-01   -0.49935E-01  5760   0.228E+00 0.577E-01
CGA:  36    -0.221037897468E+03   -0.34368E-01   -0.35603E-01  5760   0.409E+00 0.100E+00
SDA:  37    -0.221065370369E+03   -0.27473E-01   -0.41161E-01  5760   0.255E+00 0.109E-01
CGA:  38    -0.221091427021E+03   -0.26057E-01   -0.26339E-01  5760   0.273E+00-0.344E-03
CGA:  39    -0.221114560544E+03   -0.23134E-01   -0.23298E-01  5760   0.182E+00-0.323E-02
CGA:  40    -0.221161721511E+03   -0.47161E-01   -0.46018E-01  5760   0.762E-01 0.727E-02
CGA:  41    -0.221179829157E+03   -0.18108E-01   -0.17692E-01  5760   0.953E-01 0.413E-02
CGA:  42    -0.221187960452E+03   -0.81313E-02   -0.81430E-02  5760   0.959E-01-0.272E-03
CGA:  43    -0.221204381452E+03   -0.16421E-01   -0.16412E-01  5760   0.348E-01 0.106E-03
CGA:  44    -0.221213373519E+03   -0.89921E-02   -0.89603E-02  5760   0.487E-01 0.258E-03
CGA:  45    -0.221216642910E+03   -0.32694E-02   -0.33174E-02  5760   0.339E-01-0.518E-03
CGA:  46    -0.221223446873E+03   -0.68040E-02   -0.67668E-02  5760   0.165E-01 0.543E-03
CGA:  47    -0.221228410308E+03   -0.49634E-02   -0.49496E-02  5760   0.211E-01 0.906E-04
CGA:  48    -0.221231254161E+03   -0.28439E-02   -0.28608E-02  5760   0.401E-01 0.223E-03
CGA:  49    -0.221235682391E+03   -0.44282E-02   -0.44131E-02  5760   0.171E-01 0.749E-04
CGA:  50    -0.221241468956E+03   -0.57866E-02   -0.57944E-02  5760   0.191E-01-0.565E-04
CGA:  51    -0.221245664098E+03   -0.41951E-02   -0.41373E-02  5760   0.230E-01 0.808E-03
CGA:  52    -0.221247543355E+03   -0.18793E-02   -0.18314E-02  5760   0.147E-01 0.349E-03
CGA:  53    -0.221251721483E+03   -0.41781E-02   -0.41674E-02  5760   0.124E-01 0.607E-04
CGA:  54    -0.221254052998E+03   -0.23315E-02   -0.22970E-02  5760   0.183E-01 0.131E-02
CGA:  55    -0.221256635188E+03   -0.25822E-02   -0.25385E-02  5760   0.126E-01-0.181E-03
CGA:  56    -0.221259813462E+03   -0.31783E-02   -0.31421E-02  5760   0.853E-02 0.284E-03
CGA:  57    -0.221261956715E+03   -0.21433E-02   -0.21181E-02  5760   0.117E-01 0.115E-03
CGA:  58    -0.221263999255E+03   -0.20425E-02   -0.20445E-02  5760   0.657E-02 0.369E-03
CGA:  59    -0.221265641498E+03   -0.16422E-02   -0.17864E-02  5760   0.108E-01-0.144E-02
CGA:  60    -0.221266858783E+03   -0.12173E-02   -0.12325E-02  5760   0.801E-02 0.153E-03
CGA:  61    -0.221268592313E+03   -0.17335E-02   -0.17385E-02  5760   0.546E-02-0.840E-04
CGA:  62    -0.221270215489E+03   -0.16232E-02   -0.16074E-02  5760   0.628E-02 0.121E-03
CGA:  63    -0.221271063717E+03   -0.84823E-03   -0.81428E-03  5760   0.110E-01-0.297E-04
CGA:  64    -0.221272329789E+03   -0.12661E-02   -0.12753E-02  5760   0.450E-02-0.505E-04
CGA:  65    -0.221273398690E+03   -0.10689E-02   -0.10669E-02  5760   0.573E-02 0.150E-04
CGA:  66    -0.221273809965E+03   -0.41127E-03   -0.38231E-03  5760   0.549E-02 0.288E-03
CGA:  67    -0.221274893432E+03   -0.10835E-02   -0.10833E-02  5760   0.344E-02 0.238E-06
SDA:  68    -0.221275305233E+03   -0.41180E-03   -0.40843E-03  5760   0.879E-02-0.167E-04
CGA:  69    -0.221275638347E+03   -0.33311E-03   -0.32122E-03  5760   0.238E-02 0.284E-03
CGA:  70    -0.221276313282E+03   -0.67493E-03   -0.67518E-03  5760   0.219E-02-0.216E-05
CGA:  71    -0.221276732812E+03   -0.41953E-03   -0.41969E-03  5760   0.773E-02 0.835E-06
CGA:  72    -0.221277335934E+03   -0.60312E-03   -0.60838E-03  5760   0.259E-02 0.372E-05
CGA:  73    -0.221278278051E+03   -0.94212E-03   -0.93143E-03  5760   0.410E-02 0.565E-04
CGA:  74    -0.221278584578E+03   -0.30653E-03   -0.30067E-03  5760   0.548E-02 0.558E-04
CGA:  75    -0.221279529815E+03   -0.94524E-03   -0.94533E-03  5760   0.280E-02 0.121E-04
CGA:  76    -0.221280179656E+03   -0.64984E-03   -0.65101E-03  5760   0.144E-01-0.147E-04
CGA:  77    -0.221281343799E+03   -0.11641E-02   -0.10985E-02  5760   0.663E-02 0.604E-03
CGA:  78    -0.221283744557E+03   -0.24008E-02   -0.32845E-02  5760   0.998E-01-0.507E-02
CGA:  79    -0.221286637852E+03   -0.28933E-02   -0.37810E-02  5760   0.241E-01-0.210E-01
CGA:  80    -0.221289283923E+03   -0.26461E-02   -0.26756E-02  5760   0.203E-01 0.928E-03
CGA:  81    -0.221290890839E+03   -0.16069E-02   -0.18307E-02  5760   0.243E-01 0.170E-02
CGA:  82    -0.221295557489E+03   -0.46667E-02   -0.46488E-02  5760   0.408E-01 0.783E-02
CGA:  83    -0.221305038219E+03   -0.94807E-02   -0.12728E-01  5760   0.374E+00-0.443E-01
CGA:  84    -0.221315482670E+03   -0.10444E-01   -0.25409E-01  5760   0.186E+00-0.106E+00
CGA:  85    -0.221333316577E+03   -0.17834E-01   -0.16864E-01  5760   0.552E-01 0.101E-01
CGA:  86    -0.221343124868E+03   -0.98083E-02   -0.98022E-02  5760   0.127E-01 0.153E-01
CGA:  87    -0.221345686606E+03   -0.25617E-02   -0.50817E-02  5760   0.106E+00-0.258E-02
CGA:  88    -0.221345017325E+03    0.66928E-03   -0.18785E-02  5760   0.182E+00 0.412E-01
CGA:  89    -0.221350357028E+03   -0.53397E-02   -0.13966E-01  5760   0.123E+00 0.677E-01
CGA:  90    -0.221355357697E+03   -0.50007E-02   -0.52873E-02  5760   0.465E-01-0.125E-01
CGA:  91    -0.221356944290E+03   -0.15866E-02   -0.13248E-02  5760   0.530E-01 0.281E-02
CGA:  92    -0.221359633994E+03   -0.26897E-02   -0.27810E-02  5760   0.878E-01-0.946E-03
CGA:  93    -0.221363366165E+03   -0.37322E-02   -0.31474E-02  5760   0.613E-01-0.392E-02
CGA:  94    -0.221365446259E+03   -0.20801E-02   -0.15306E-02  5760   0.330E-01 0.430E-02
CGA:  95    -0.221366689584E+03   -0.12433E-02   -0.12416E-02  5760   0.390E-01 0.118E-02
CGA:  96    -0.221368528168E+03   -0.18386E-02   -0.19645E-02  5760   0.685E-01 0.104E-02
CGA:  97    -0.221370740241E+03   -0.22121E-02   -0.23502E-02  5760   0.515E-01-0.327E-03
CGA:  98    -0.221371861240E+03   -0.11210E-02   -0.11850E-02  5760   0.226E-01-0.959E-03
CGA:  99    -0.221372419871E+03   -0.55863E-03   -0.56819E-03  5760   0.167E-01-0.118E-03
CGA: 100    -0.221373056789E+03   -0.63692E-03   -0.63506E-03  5760   0.233E-01-0.138E-03
CGA: 101    -0.221373904466E+03   -0.84768E-03   -0.83937E-03  5760   0.239E-01-0.390E-04
CGA: 102    -0.221374530513E+03   -0.62605E-03   -0.63274E-03  5760   0.148E-01-0.103E-03
CGA: 103    -0.221374949102E+03   -0.41859E-03   -0.42744E-03  5760   0.137E-01-0.221E-03
CGA: 104    -0.221375498405E+03   -0.54930E-03   -0.55088E-03  5760   0.213E-01-0.118E-03
CGA: 105    -0.221376282225E+03   -0.78382E-03   -0.78072E-03  5760   0.221E-01 0.722E-05
CGA: 106    -0.221376856374E+03   -0.57415E-03   -0.57455E-03  5760   0.121E-01-0.597E-04
CGA: 107    -0.221377182433E+03   -0.32606E-03   -0.32393E-03  5760   0.909E-02 0.220E-04
CGA: 108    -0.221377559288E+03   -0.37685E-03   -0.37700E-03  5760   0.103E-01 0.210E-02
CGA: 109    -0.221378494538E+03   -0.93525E-03   -0.91625E-03  5760   0.741E-02-0.176E-02
CGA: 110    -0.221378823225E+03   -0.32869E-03   -0.21246E-03  5760   0.412E-02 0.427E-03
CGA: 111    -0.221379001768E+03   -0.17854E-03   -0.17840E-03  5760   0.387E-02 0.127E-02
CGA: 112    -0.221379484602E+03   -0.48283E-03   -0.48530E-03  5760   0.436E-02-0.117E-03
CGA: 113    -0.221379803767E+03   -0.31916E-03   -0.25758E-03  5760   0.291E-02-0.833E-03
SDA: 114    -0.221379914511E+03   -0.11074E-03   -0.11929E-03  5760   0.320E-02 0.827E-03
CGA: 115    -0.221380186106E+03   -0.27160E-03   -0.34443E-03  5760   0.311E-02-0.342E-03
CGA: 116    -0.221380474325E+03   -0.28822E-03   -0.49248E-03  5760   0.333E-02-0.142E-02
CGA: 117    -0.221380801219E+03   -0.32689E-03   -0.34696E-03  5760   0.204E-02-0.149E-03
CGA: 118    -0.221381111887E+03   -0.31067E-03   -0.31608E-03  5760   0.218E-02 0.613E-04
CGA: 119    -0.221381389308E+03   -0.27742E-03   -0.37848E-03  5760   0.321E-02-0.447E-03
CGA: 120    -0.221381674716E+03   -0.28541E-03   -0.29714E-03  5760   0.186E-02-0.332E-03
CGA: 121    -0.221381921830E+03   -0.24711E-03   -0.24702E-03  5760   0.252E-02 0.149E-03
CGA: 122    -0.221382224812E+03   -0.30298E-03   -0.31275E-03  5760   0.169E-02-0.196E-03
CGA: 123    -0.221382526433E+03   -0.30162E-03   -0.31252E-03  5760   0.146E-02-0.837E-04
CGA: 124    -0.221382870965E+03   -0.34453E-03   -0.34633E-03  5760   0.171E-02-0.136E-04
CGA: 125    -0.221383175473E+03   -0.30451E-03   -0.31481E-03  5760   0.256E-02 0.295E-05
CGA: 126    -0.221383512349E+03   -0.33688E-03   -0.33968E-03  5760   0.182E-02-0.729E-04
CGA: 127    -0.221383943558E+03   -0.43121E-03   -0.45471E-03  5760   0.225E-02-0.131E-03
CGA: 128    -0.221384622574E+03   -0.67902E-03   -0.67953E-03  5760   0.308E-02 0.584E-04
CGA: 129    -0.221385199393E+03   -0.57682E-03   -0.58530E-03  5760   0.318E-02 0.140E-03
CGA: 130    -0.221385620025E+03   -0.42063E-03   -0.41555E-03  5760   0.209E-02-0.384E-05
CGA: 131    -0.221386072425E+03   -0.45240E-03   -0.68016E-03  5760   0.495E-02-0.724E-03
CGA: 132    -0.221386403363E+03   -0.33094E-03   -0.34442E-03  5760   0.462E-02 0.133E-03
CGA: 133    -0.221386927699E+03   -0.52434E-03   -0.52769E-03  5760   0.281E-02-0.291E-03
CGA: 134    -0.221387261460E+03   -0.33376E-03   -0.29151E-03  5760   0.244E-02 0.364E-04
CGA: 135    -0.221387666108E+03   -0.40465E-03   -0.39574E-03  5760   0.238E-02 0.442E-03
CGA: 136    -0.221387949330E+03   -0.28322E-03   -0.28270E-03  5760   0.150E-02-0.396E-05
CGA: 137    -0.221388125392E+03   -0.17606E-03   -0.16604E-03  5760   0.758E-03-0.112E-03
CGA: 138    -0.221388239788E+03   -0.11440E-03   -0.11390E-03  5760   0.796E-03 0.691E-05
CGA: 139    -0.221388324214E+03   -0.84425E-04   -0.84275E-04  5760   0.575E-03 0.234E-05
CGA: 140    -0.221388413537E+03   -0.89323E-04   -0.89138E-04  5760   0.416E-03 0.740E-05
CGA: 141    -0.221388477145E+03   -0.63608E-04   -0.63546E-04  5760   0.461E-03-0.198E-05
CGA: 142    -0.221388531865E+03   -0.54720E-04   -0.54660E-04  5760   0.359E-03 0.204E-05
CGA: 143    -0.221388597508E+03   -0.65643E-04   -0.65169E-04  5760   0.334E-03 0.117E-04
CGA: 144    -0.221388646069E+03   -0.48561E-04   -0.48556E-04  5760   0.410E-03 0.159E-06
SDA: 145    -0.221388707398E+03   -0.61329E-04   -0.61392E-04  5760   0.351E-03-0.368E-05
CGA: 146    -0.221388774921E+03   -0.67523E-04   -0.67672E-04  5760   0.140E-03-0.286E-05
CGA: 147    -0.221388795668E+03   -0.20747E-04   -0.20742E-04  5760   0.178E-03-0.543E-06
CGA: 148    -0.221388823357E+03   -0.27689E-04   -0.27654E-04  5760   0.108E-03 0.816E-05
CGA: 149    -0.221388876942E+03   -0.53585E-04   -0.60274E-04  5760   0.200E-03-0.149E-04
CGA: 150    -0.221388970690E+03   -0.93748E-04   -0.95495E-04  5760   0.274E-03-0.238E-05
CGA: 151    -0.221389055672E+03   -0.84982E-04   -0.88059E-04  5760   0.493E-03 0.101E-04
CGA: 152    -0.221389124126E+03   -0.68454E-04   -0.54887E-04  5760   0.351E-03 0.613E-04
CGA: 153    -0.221389282032E+03   -0.15791E-03   -0.15505E-03  5760   0.250E-03 0.114E-04
CGA: 154    -0.221389423330E+03   -0.14130E-03   -0.14451E-03  5760   0.372E-03 0.477E-05
CGA: 155    -0.221389491839E+03   -0.68509E-04   -0.65319E-04  5760   0.465E-03 0.450E-04
CGA: 156    -0.221389560793E+03   -0.68954E-04   -0.64014E-04  5760   0.216E-03 0.187E-04
CGA: 157    -0.221389631663E+03   -0.70870E-04   -0.80183E-04  5760   0.223E-03-0.354E-04
CGA: 158    -0.221389675477E+03   -0.43814E-04   -0.43847E-04  5760   0.147E-03-0.705E-05
CGA: 159    -0.221389697360E+03   -0.21883E-04   -0.19381E-04  5760   0.150E-03 0.279E-04
CGA: 160    -0.221389735949E+03   -0.38589E-04   -0.38691E-04  5760   0.135E-03-0.115E-05
CGA: 161    -0.221389762566E+03   -0.26618E-04   -0.25648E-04  5760   0.150E-03 0.103E-04
CGA: 162    -0.221389788280E+03   -0.25714E-04   -0.24552E-04  5760   0.122E-03 0.122E-05
CGA: 163    -0.221389817782E+03   -0.29501E-04   -0.30724E-04  5760   0.133E-03-0.462E-05
CGA: 164    -0.221389845141E+03   -0.27359E-04   -0.27464E-04  5760   0.189E-03 0.477E-05
CGA: 165    -0.221389877621E+03   -0.32481E-04   -0.29853E-04  5760   0.138E-03 0.772E-05
CGA: 166    -0.221389911462E+03   -0.33841E-04   -0.34341E-04  5760   0.132E-03 0.157E-05
CGA: 167    -0.221389933925E+03   -0.22464E-04   -0.19644E-04  5760   0.123E-03 0.137E-04
CGA: 168    -0.221389958873E+03   -0.24948E-04   -0.24695E-04  5760   0.117E-03-0.211E-05
CGA: 169    -0.221389992482E+03   -0.33609E-04   -0.37110E-04  5760   0.121E-03-0.359E-05
CGA: 170    -0.221390010144E+03   -0.17662E-04   -0.15797E-04  5760   0.119E-03 0.107E-04
CGA: 171    -0.221390035330E+03   -0.25186E-04   -0.24899E-04  5760   0.962E-04-0.500E-05
CGA: 172    -0.221390063311E+03   -0.27981E-04   -0.28489E-04  5760   0.832E-04-0.315E-05
CGA: 173    -0.221390081263E+03   -0.17952E-04   -0.18228E-04  5760   0.906E-04 0.307E-05
CGA: 174    -0.221390093170E+03   -0.11907E-04   -0.11035E-04  5760   0.744E-04 0.498E-05
CGA: 175    -0.221390113509E+03   -0.20339E-04   -0.21288E-04  5760   0.602E-04-0.727E-05
SDA: 176    -0.221390124368E+03   -0.10859E-04   -0.10862E-04  5760   0.336E-04 0.142E-05
CGA: 177    -0.221390131197E+03   -0.68293E-05   -0.67588E-05  5760   0.398E-04 0.489E-05
CGA: 178    -0.221390136855E+03   -0.56578E-05   -0.41363E-05  5760   0.116E-04 0.445E-05
CGA: 179    -0.221390141145E+03   -0.42907E-05   -0.42732E-05  5760   0.106E-04 0.331E-06
CGA: 180    -0.221390145213E+03   -0.40681E-05   -0.41206E-05  5760   0.110E-04-0.295E-06
CGA: 181    -0.221390149435E+03   -0.42214E-05   -0.44196E-05  5760   0.173E-04-0.247E-06
CGA: 182    -0.221390151868E+03   -0.24328E-05   -0.20466E-05  5760   0.171E-04 0.367E-05
CGA: 183    -0.221390157070E+03   -0.52020E-05   -0.52504E-05  5760   0.166E-04 0.284E-06
CGA: 184    -0.221390163270E+03   -0.62007E-05   -0.66269E-05  5760   0.214E-04-0.134E-05
CGA: 185    -0.221390166450E+03   -0.31793E-05   -0.26684E-05  5760   0.228E-04 0.358E-05
CGA: 186    -0.221390172231E+03   -0.57818E-05   -0.57352E-05  5760   0.179E-04-0.736E-06
CGA: 187    -0.221390176496E+03   -0.42650E-05   -0.43224E-05  5760   0.207E-04 0.195E-05
CGA: 188    -0.221390179329E+03   -0.28328E-05   -0.23961E-05  5760   0.926E-05 0.276E-05
CGA: 189    -0.221390182014E+03   -0.26848E-05   -0.28941E-05  5760   0.113E-04-0.110E-05
CGA: 190    -0.221390183412E+03   -0.13981E-05   -0.12303E-05  5760   0.902E-05 0.518E-06
CGA: 191    -0.221390185256E+03   -0.18437E-05   -0.18279E-05  5760   0.433E-05 0.268E-07
CGA: 192    -0.221390186451E+03   -0.11957E-05   -0.11799E-05  5760   0.444E-05 0.488E-06
CGA: 193    -0.221390187401E+03   -0.95005E-06   -0.92042E-06  5760   0.693E-05 0.381E-06
CGA: 194    -0.221390188916E+03   -0.15146E-05   -0.14057E-05  5760   0.654E-05-0.279E-06
CGA: 195    -0.221390190102E+03   -0.11862E-05   -0.11683E-05  5760   0.541E-05 0.125E-06
CGA: 196    -0.221390191268E+03   -0.11661E-05   -0.11613E-05  5760   0.605E-05 0.593E-06
CGA: 197    -0.221390192514E+03   -0.12452E-05   -0.12294E-05  5760   0.609E-05 0.117E-06
CGA: 198    -0.221390193829E+03   -0.13150E-05   -0.12866E-05  5760   0.669E-05-0.295E-06
CGA: 199    -0.221390194595E+03   -0.76678E-06   -0.67466E-06  5760   0.390E-05-0.206E-06
   1 F= -.23259611E+03 E0= -.23259261E+03  d E =-.698907E-02  mag=     6.0000
