 running on   64 total cores
 distrk:  each k-point on   64 cores,    1 groups
 distr:  one band on    4 cores,   16 groups
 using from now: INCAR     
 vasp.5.4.4.18Apr17-6-g9f103f2a35 (build Nov 22 2021 14:44:17) complex          
  
 POSCAR found type information on POSCAR  Li Co O 
 POSCAR found :  3 types and      42 ions
 scaLAPACK will be used
 LDA part: xc-table for Pade appr. of Perdew
 generate k-points for:    6    6    2
 POSCAR, INCAR and KPOINTS ok, starting setup
 FFT: planning ...
 WAVECAR not read
 entering main loop
       N       E                     dE             d eps       ncg     rms          ort
DAV:   1     0.355293069568E+04    0.35529E+04   -0.14047E+05  5760   0.227E+03
DAV:   2     0.401651663931E+03   -0.31513E+04   -0.29023E+04  5760   0.558E+02
DAV:   3    -0.221140573083E+03   -0.62279E+03   -0.55957E+03  5760   0.258E+02
DAV:   4    -0.270264226815E+03   -0.49124E+02   -0.48228E+02  5760   0.748E+01
DAV:   5    -0.271783173509E+03   -0.15189E+01   -0.15166E+01  5760   0.130E+01
 gam= 0.000 g(H,U,f)=  0.172E+04 0.126E+04 0.217E+04 ort(H,U,f) = 0.000E+00 0.000E+00 0.000E+00
SDA:   6     0.100159729466E+03    0.37194E+03   -0.15166E+01  5760   0.515E+04 0.000E+00
 gam= 0.000 trial= 0.400  step= 0.136 mean= 0.400
 gam= 1.848 g(H,U,f)=  0.549E+03 0.280E+04 0.617E+04 ort(H,U,f) = 0.429E+03-0.668E+03-0.217E+04
CGA:   7    -0.379477893473E+02   -0.13811E+03   -0.35100E+03  5760   0.952E+04-0.240E+04
 gam= 1.848 trial= 0.387  step= 0.066 mean= 0.387
 gam= 0.471 g(H,U,f)=  0.322E+03 0.297E+04 0.120E+04 ort(H,U,f) = 0.322E+03 0.538E+03-0.118E+03
CGA:   8    -0.111464688380E+03   -0.73517E+02   -0.16772E+03  5760   0.449E+04 0.742E+03
 gam= 0.471 trial= 0.371  step= 0.062 mean= 0.371
 gam= 0.256 g(H,U,f)=  0.260E+03 0.642E+03 0.248E+03 ort(H,U,f) =-0.353E+03-0.792E+03-0.286E+03
CGA:   9    -0.149457255184E+03   -0.37993E+02   -0.14985E+03  5760   0.115E+04-0.143E+04
 gam= 0.256 trial= 0.355  step= 0.126 mean= 0.355
 gam= 0.477 g(H,U,f)=  0.213E+03 0.314E+03 0.219E+02 ort(H,U,f) = 0.111E+02-0.280E+03-0.149E+02
CGA:  10    -0.169305351067E+03   -0.19848E+02   -0.49372E+02  5760   0.549E+03-0.284E+03
 gam= 0.477 trial= 0.344  step= 0.146 mean= 0.344
 gam= 0.838 g(H,U,f)=  0.933E+02 0.294E+03 0.722E+02 ort(H,U,f) = 0.855E+02-0.127E+03-0.378E+02
CGA:  11    -0.195084480646E+03   -0.25779E+02   -0.30273E+02  5760   0.460E+03-0.789E+02
 gam= 0.838 trial= 0.334  step= 0.110 mean= 0.334
 gam= 0.140 g(H,U,f)=  0.163E+02 0.378E+02 0.105E+02 ort(H,U,f) = 0.824E+01-0.579E+02-0.177E+02
CGA:  12    -0.212859037220E+03   -0.17775E+02   -0.21651E+02  5760   0.646E+02-0.673E+02
 gam= 0.140 trial= 0.323  step= 0.110 mean= 0.323
 gam= 0.525 g(H,U,f)=  0.728E+01 0.198E+02 0.687E+01 ort(H,U,f) = 0.556E+01-0.898E+01-0.467E+01
CGA:  13    -0.214817011508E+03   -0.19580E+01   -0.30382E+01  5760   0.339E+02-0.808E+01
 gam= 0.525 trial= 0.312  step= 0.116 mean= 0.312
 gam= 0.261 g(H,U,f)=  0.318E+01 0.510E+01 0.562E+00 ort(H,U,f) = 0.375E+01-0.184E+01-0.111E+01
CGA:  14    -0.216651335127E+03   -0.18343E+01   -0.17198E+01  5760   0.884E+01 0.798E+00
 gam= 0.261 trial= 0.302  step= 0.209 mean= 0.302
 gam= 0.604 g(H,U,f)=  0.162E+01 0.286E+01 0.855E+00 ort(H,U,f) = 0.919E+00-0.702E+00-0.238E+00
CGA:  15    -0.217556828112E+03   -0.90549E+00   -0.94385E+00  5760   0.534E+01-0.216E-01
 gam= 0.604 trial= 0.298  step= 0.133 mean= 0.298
 gam= 0.936 g(H,U,f)=  0.132E+01 0.307E+01 0.604E+00 ort(H,U,f) = 0.128E+01-0.848E+00-0.545E+00
CGA:  16    -0.217902925644E+03   -0.34610E+00   -0.35519E+00  5760   0.499E+01-0.117E+00
 gam= 0.936 trial= 0.289  step= 0.213 mean= 0.289
 gam= 0.266 g(H,U,f)=  0.498E+00 0.751E+00 0.805E-01 ort(H,U,f) =-0.436E+00 0.489E+00 0.152E-01
CGA:  17    -0.218410526114E+03   -0.50760E+00   -0.52055E+00  5760   0.133E+01 0.681E-01
 gam= 0.266 trial= 0.286  step= 0.218 mean= 0.286
 gam= 1.342 g(H,U,f)=  0.268E+00 0.122E+01 0.294E+00 ort(H,U,f) =-0.426E-01 0.128E+00-0.133E+00
CGA:  18    -0.218556438879E+03   -0.14591E+00   -0.14668E+00  5760   0.178E+01-0.480E-01
 gam= 1.342 trial= 0.282  step= 0.159 mean= 0.282
 gam= 0.603 g(H,U,f)=  0.344E+00 0.653E+00 0.780E-01 ort(H,U,f) =-0.311E+00 0.292E+00-0.338E-01
CGA:  19    -0.218681718439E+03   -0.12528E+00   -0.13719E+00  5760   0.108E+01-0.532E-01
 gam= 0.603 trial= 0.276  step= 0.289 mean= 0.276
 gam= 0.815 g(H,U,f)=  0.233E+00 0.607E+00 0.366E-01 ort(H,U,f) =-0.135E+00 0.193E+00-0.147E-02
CGA:  20    -0.218833029945E+03   -0.15131E+00   -0.15071E+00  5760   0.877E+00 0.566E-01
 gam= 0.815 trial= 0.277  step= 0.173 mean= 0.277
 gam= 1.021 g(H,U,f)=  0.172E+00 0.669E+00 0.546E-01 ort(H,U,f) =-0.557E-01 0.846E-01-0.199E-01
CGA:  21    -0.218910098485E+03   -0.77069E-01   -0.79782E-01  5760   0.895E+00 0.904E-02
 gam= 1.021 trial= 0.272  step= 0.183 mean= 0.272
 gam= 0.680 g(H,U,f)=  0.224E+00 0.370E+00 0.150E-01 ort(H,U,f) =-0.951E-01 0.104E+00 0.734E-02
CGA:  22    -0.218991100556E+03   -0.81002E-01   -0.82880E-01  5760   0.608E+00 0.163E-01
 gam= 0.680 trial= 0.267  step= 0.419 mean= 0.267
 gam= 1.057 g(H,U,f)=  0.195E+00 0.411E+00 0.365E-01 ort(H,U,f) =-0.605E-01 0.105E+00-0.197E-01
CGA:  23    -0.219124934635E+03   -0.13383E+00   -0.12970E+00  5760   0.643E+00 0.251E-01
 gam= 1.057 trial= 0.275  step= 0.192 mean= 0.275
 gam= 0.954 g(H,U,f)=  0.153E+00 0.408E+00 0.518E-01 ort(H,U,f) =-0.193E-01 0.338E-01-0.404E-02
CGA:  24    -0.219188299506E+03   -0.63365E-01   -0.64297E-01  5760   0.613E+00 0.104E-01
 gam= 0.954 trial= 0.271  step= 0.255 mean= 0.271
 gam= 1.102 g(H,U,f)=  0.161E+00 0.469E+00 0.463E-01 ort(H,U,f) =-0.822E-01 0.117E+00 0.292E-01
CGA:  25    -0.219267030943E+03   -0.78731E-01   -0.79397E-01  5760   0.676E+00 0.638E-01
 gam= 1.102 trial= 0.270  step= 0.245 mean= 0.270
 gam= 0.983 g(H,U,f)=  0.207E+00 0.420E+00 0.373E-01 ort(H,U,f) =-0.146E+00 0.196E+00-0.149E-01
CGA:  26    -0.219357128944E+03   -0.90098E-01   -0.91325E-01  5760   0.664E+00 0.349E-01
 gam= 0.983 trial= 0.269  step= 0.363 mean= 0.269
 gam= 0.783 g(H,U,f)=  0.214E+00 0.299E+00 0.642E-02 ort(H,U,f) =-0.159E+00 0.191E+00-0.697E-02
CGA:  27    -0.219486067615E+03   -0.12894E+00   -0.12688E+00  5760   0.520E+00 0.248E-01
 gam= 0.783 trial= 0.273  step= 0.492 mean= 0.273
 gam= 1.370 g(H,U,f)=  0.305E+00 0.393E+00 0.136E-01 ort(H,U,f) =-0.143E+00 0.101E+00-0.343E-01
CGA:  28    -0.219613285875E+03   -0.12722E+00   -0.13250E+00  5760   0.712E+00-0.755E-01
 gam= 1.370 trial= 0.284  step= 0.354 mean= 0.284
 gam= 0.895 g(H,U,f)=  0.297E+00 0.280E+00 0.601E-01 ort(H,U,f) =-0.965E-01 0.968E-01-0.102E+00
CGA:  29    -0.219720740826E+03   -0.10745E+00   -0.10753E+00  5760   0.637E+00-0.102E+00
 gam= 0.895 trial= 0.288  step= 0.262 mean= 0.288
 gam= 0.933 g(H,U,f)=  0.210E+00 0.287E+00 0.976E-01 ort(H,U,f) =-0.425E-01 0.622E-01-0.295E-01
CGA:  30    -0.219793241035E+03   -0.72500E-01   -0.71605E-01  5760   0.594E+00-0.973E-02
 gam= 0.933 trial= 0.286  step= 0.199 mean= 0.286
 gam= 0.747 g(H,U,f)=  0.183E+00 0.173E+00 0.881E-01 ort(H,U,f) =-0.343E-01 0.581E-01-0.573E-01
CGA:  31    -0.219847645936E+03   -0.54405E-01   -0.58386E-01  5760   0.444E+00-0.335E-01
 gam= 0.747 trial= 0.282  step= 0.353 mean= 0.282
 gam= 0.784 g(H,U,f)=  0.146E+00 0.180E+00 0.223E-01 ort(H,U,f) =-0.616E-01 0.920E-01-0.160E-01
CGA:  32    -0.219923343943E+03   -0.75698E-01   -0.73986E-01  5760   0.348E+00 0.144E-01
 gam= 0.784 trial= 0.286  step= 0.358 mean= 0.286
 gam= 1.280 g(H,U,f)=  0.112E+00 0.273E+00 0.603E-01 ort(H,U,f) =-0.707E-01 0.571E-01-0.257E-01
CGA:  33    -0.219987084811E+03   -0.63741E-01   -0.64240E-01  5760   0.445E+00-0.393E-01
 gam= 1.280 trial= 0.289  step= 0.295 mean= 0.289
 gam= 0.972 g(H,U,f)=  0.186E+00 0.237E+00 0.891E-02 ort(H,U,f) =-0.135E+00 0.151E+00 0.928E-02
CGA:  34    -0.220045474475E+03   -0.58390E-01   -0.58259E-01  5760   0.433E+00 0.247E-01
 gam= 0.972 trial= 0.290  step= 0.354 mean= 0.290
 gam= 1.153 g(H,U,f)=  0.176E+00 0.274E+00 0.495E-01 ort(H,U,f) =-0.900E-01 0.775E-01-0.191E-01
CGA:  35    -0.220125200972E+03   -0.79726E-01   -0.80825E-01  5760   0.499E+00-0.316E-01
 gam= 1.153 trial= 0.293  step= 0.247 mean= 0.293
 gam= 0.841 g(H,U,f)=  0.194E+00 0.210E+00 0.156E-01 ort(H,U,f) =-0.586E-01 0.734E-01 0.102E-01
CGA:  36    -0.220181896193E+03   -0.56695E-01   -0.57143E-01  5760   0.420E+00 0.250E-01
 gam= 0.841 trial= 0.290  step= 0.237 mean= 0.290
 gam= 0.000 g(H,U,f)=  0.162E+00 0.219E+00 0.534E-02 ort(H,U,f) = 0.937E-02-0.268E-02 0.738E-02
SDA:  37    -0.220233641824E+03   -0.51746E-01   -0.52314E-01  5760   0.386E+00 0.141E-01
 gam= 0.000 trial= 0.288  step= 0.310 mean= 0.288
 gam= 1.255 g(H,U,f)=  0.119E+00 0.305E+00 0.597E-01 ort(H,U,f) = 0.103E-01 0.289E-02 0.176E-03
CGA:  38    -0.220293709637E+03   -0.60068E-01   -0.59887E-01  5760   0.484E+00 0.134E-01
 gam= 1.255 trial= 0.289  step= 0.232 mean= 0.289
 gam= 1.052 g(H,U,f)=  0.169E+00 0.307E+00 0.336E-01 ort(H,U,f) = 0.586E-02 0.367E-01-0.341E-01
CGA:  39    -0.220349293195E+03   -0.55584E-01   -0.58224E-01  5760   0.509E+00 0.845E-02
 gam= 1.052 trial= 0.286  step= 0.280 mean= 0.286
 gam= 0.649 g(H,U,f)=  0.769E-01 0.183E+00 0.707E-01 ort(H,U,f) =-0.101E+00 0.920E-01-0.486E-02
CGA:  40    -0.220421881420E+03   -0.72588E-01   -0.72493E-01  5760   0.331E+00-0.134E-01
 gam= 0.649 trial= 0.286  step= 0.181 mean= 0.286
 gam= 0.467 g(H,U,f)=  0.836E-01 0.598E-01 0.111E-01 ort(H,U,f) =-0.695E-01 0.826E-01-0.213E-01
CGA:  41    -0.220448535743E+03   -0.26654E-01   -0.29077E-01  5760   0.155E+00-0.820E-02
 gam= 0.467 trial= 0.281  step= 0.527 mean= 0.281
 gam= 0.887 g(H,U,f)=  0.728E-01 0.618E-01 0.241E-02 ort(H,U,f) =-0.291E-01 0.306E-01 0.956E-03
CGA:  42    -0.220488617072E+03   -0.40081E-01   -0.39688E-01  5760   0.137E+00 0.245E-02
 gam= 0.887 trial= 0.293  step= 0.336 mean= 0.293
 gam= 1.292 g(H,U,f)=  0.413E-01 0.104E+00 0.312E-01 ort(H,U,f) =-0.124E-01 0.170E-01-0.635E-02
CGA:  43    -0.220512055963E+03   -0.23439E-01   -0.23388E-01  5760   0.177E+00-0.179E-02
 gam= 1.292 trial= 0.295  step= 0.161 mean= 0.295
 gam= 0.365 g(H,U,f)=  0.316E-01 0.292E-01 0.384E-02 ort(H,U,f) =-0.129E-01 0.111E-01-0.164E-02
CGA:  44    -0.220524831748E+03   -0.12776E-01   -0.14084E-01  5760   0.646E-01-0.345E-02
 gam= 0.365 trial= 0.288  step= 0.368 mean= 0.288
 gam= 0.893 g(H,U,f)=  0.195E-01 0.335E-01 0.459E-02 ort(H,U,f) =-0.249E-02 0.722E-02-0.162E-02
CGA:  45    -0.220536644044E+03   -0.11812E-01   -0.11650E-01  5760   0.577E-01 0.312E-02
 gam= 0.893 trial= 0.292  step= 0.252 mean= 0.292
 gam= 0.638 g(H,U,f)=  0.142E-01 0.209E-01 0.171E-02 ort(H,U,f) =-0.335E-02 0.611E-02-0.234E-03
CGA:  46    -0.220544159249E+03   -0.75152E-02   -0.76041E-02  5760   0.368E-01 0.253E-02
 gam= 0.638 trial= 0.290  step= 0.328 mean= 0.290
 gam= 1.266 g(H,U,f)=  0.110E-01 0.279E-01 0.772E-02 ort(H,U,f) =-0.681E-02 0.755E-02-0.269E-02
CGA:  47    -0.220550499406E+03   -0.63402E-02   -0.63035E-02  5760   0.466E-01-0.195E-02
 gam= 1.266 trial= 0.292  step= 0.204 mean= 0.292
 gam= 0.761 g(H,U,f)=  0.146E-01 0.168E-01 0.406E-02 ort(H,U,f) =-0.109E-01 0.131E-01-0.200E-02
CGA:  48    -0.220554923045E+03   -0.44236E-02   -0.45110E-02  5760   0.355E-01 0.179E-03
 gam= 0.761 trial= 0.288  step= 0.454 mean= 0.288
 gam= 0.657 g(H,U,f)=  0.107E-01 0.100E-01 0.260E-02 ort(H,U,f) =-0.673E-02 0.137E-01 0.213E-02
CGA:  49    -0.220563814999E+03   -0.88920E-02   -0.80835E-02  5760   0.233E-01 0.913E-02
 gam= 0.657 trial= 0.296  step= 0.235 mean= 0.296
 gam= 1.529 g(H,U,f)=  0.900E-02 0.199E-01 0.667E-02 ort(H,U,f) =-0.190E-04 0.276E-02-0.586E-02
CGA:  50    -0.220567076399E+03   -0.32614E-02   -0.34361E-02  5760   0.356E-01-0.313E-02
 gam= 1.529 trial= 0.293  step= 0.413 mean= 0.293
 gam= 0.932 g(H,U,f)=  0.171E-01 0.145E-01 0.160E-02 ort(H,U,f) =-0.131E-01 0.696E-02-0.163E-02
CGA:  51    -0.220572887372E+03   -0.58110E-02   -0.63614E-02  5760   0.332E-01-0.778E-02
 gam= 0.932 trial= 0.299  step= 0.241 mean= 0.299
 gam= 0.684 g(H,U,f)=  0.104E-01 0.102E-01 0.215E-02 ort(H,U,f) =-0.402E-02 0.422E-02 0.130E-03
CGA:  52    -0.220576063631E+03   -0.31763E-02   -0.31317E-02  5760   0.227E-01 0.321E-03
 gam= 0.684 trial= 0.296  step= 0.193 mean= 0.296
 gam= 0.760 g(H,U,f)=  0.729E-02 0.870E-02 0.126E-02 ort(H,U,f) = 0.114E-02-0.121E-05-0.191E-02
CGA:  53    -0.220578142760E+03   -0.20791E-02   -0.22158E-02  5760   0.172E-01-0.776E-03
 gam= 0.760 trial= 0.291  step= 0.256 mean= 0.291
 gam= 0.772 g(H,U,f)=  0.567E-02 0.728E-02 0.368E-03 ort(H,U,f) =-0.986E-03 0.764E-03-0.418E-03
CGA:  54    -0.220580282407E+03   -0.21396E-02   -0.21282E-02  5760   0.133E-01-0.640E-03
 gam= 0.772 trial= 0.289  step= 0.348 mean= 0.289
 gam= 0.725 g(H,U,f)=  0.483E-02 0.459E-02 0.236E-03 ort(H,U,f) =-0.286E-02 0.292E-02-0.140E-04
CGA:  55    -0.220582513989E+03   -0.22316E-02   -0.22296E-02  5760   0.965E-02 0.375E-04
 gam= 0.725 trial= 0.292  step= 0.265 mean= 0.292
 gam= 1.441 g(H,U,f)=  0.418E-02 0.810E-02 0.164E-02 ort(H,U,f) =-0.851E-03 0.118E-02-0.367E-03
CGA:  56    -0.220583793071E+03   -0.12791E-02   -0.12819E-02  5760   0.139E-01-0.398E-04
 gam= 1.441 trial= 0.291  step= 0.241 mean= 0.291
 gam= 0.596 g(H,U,f)=  0.435E-02 0.382E-02 0.126E-03 ort(H,U,f) =-0.424E-02 0.466E-02 0.221E-04
CGA:  57    -0.220585430405E+03   -0.16373E-02   -0.16666E-02  5760   0.830E-02 0.442E-03
 gam= 0.596 trial= 0.288  step= 0.370 mean= 0.288
 gam= 1.620 g(H,U,f)=  0.499E-02 0.778E-02 0.668E-03 ort(H,U,f) =-0.187E-02 0.220E-02-0.255E-03
CGA:  58    -0.220587015457E+03   -0.15851E-02   -0.15820E-02  5760   0.134E-01 0.685E-04
 gam= 1.620 trial= 0.292  step= 0.279 mean= 0.292
 gam= 1.280 g(H,U,f)=  0.518E-02 0.892E-02 0.310E-02 ort(H,U,f) =-0.373E-02 0.426E-02 0.311E-03
CGA:  59    -0.220588905415E+03   -0.18900E-02   -0.18917E-02  5760   0.172E-01 0.839E-03
 gam= 1.280 trial= 0.292  step= 0.177 mean= 0.292
 gam= 0.516 g(H,U,f)=  0.501E-02 0.370E-02 0.181E-03 ort(H,U,f) =-0.454E-02 0.522E-02-0.633E-03
CGA:  60    -0.220590294856E+03   -0.13894E-02   -0.16172E-02  5760   0.888E-02 0.495E-04
 gam= 0.516 trial= 0.286  step= 0.370 mean= 0.286
 gam= 2.442 g(H,U,f)=  0.432E-02 0.126E-01 0.480E-02 ort(H,U,f) =-0.102E-02 0.986E-03-0.213E-02
CGA:  61    -0.220591917915E+03   -0.16231E-02   -0.16481E-02  5760   0.217E-01-0.216E-02
 gam= 2.442 trial= 0.290  step= 0.150 mean= 0.290
 gam= 0.606 g(H,U,f)=  0.647E-02 0.631E-02 0.375E-03 ort(H,U,f) =-0.615E-02 0.614E-02-0.196E-03
CGA:  62    -0.220593207313E+03   -0.12894E-02   -0.12286E-02  5760   0.132E-01-0.207E-03
 gam= 0.606 trial= 0.283  step= 0.220 mean= 0.283
 gam= 1.831 g(H,U,f)=  0.634E-02 0.137E-01 0.408E-02 ort(H,U,f) =-0.850E-03 0.157E-02-0.983E-03
CGA:  63    -0.220594635603E+03   -0.14283E-02   -0.14360E-02  5760   0.241E-01-0.259E-03
 gam= 1.831 trial= 0.280  step= 0.170 mean= 0.280
 gam= 0.656 g(H,U,f)=  0.590E-02 0.838E-02 0.151E-02 ort(H,U,f) =-0.572E-02 0.603E-02 0.126E-02
CGA:  64    -0.220596509131E+03   -0.18735E-02   -0.20084E-02  5760   0.158E-01 0.157E-02
 gam= 0.656 trial= 0.274  step= 0.132 mean= 0.274
 gam= 1.026 g(H,U,f)=  0.637E-02 0.783E-02 0.201E-02 ort(H,U,f) =-0.152E-02 0.213E-02-0.261E-02
CGA:  65    -0.220597502626E+03   -0.99350E-03   -0.11138E-02  5760   0.162E-01-0.200E-02
 gam= 1.026 trial= 0.267  step= 0.267 mean= 0.267
 gam= 1.774 g(H,U,f)=  0.645E-02 0.156E-01 0.669E-02 ort(H,U,f) =-0.322E-02 0.281E-02-0.164E-02
CGA:  66    -0.220599395083E+03   -0.18925E-02   -0.18925E-02  5760   0.288E-01-0.204E-02
 gam= 1.774 trial= 0.267  step= 0.099 mean= 0.267
 gam= 0.486 g(H,U,f)=  0.699E-02 0.657E-02 0.419E-03 ort(H,U,f) =-0.756E-02 0.693E-02 0.729E-03
CGA:  67    -0.220600481543E+03   -0.10865E-02   -0.12464E-02  5760   0.140E-01 0.102E-03
 gam= 0.486 trial= 0.259  step= 0.182 mean= 0.259
 gam= 0.000 g(H,U,f)=  0.628E-02 0.124E-01 0.444E-02 ort(H,U,f) =-0.167E-03 0.108E-02-0.224E-02
SDA:  68    -0.220601719183E+03   -0.12376E-02   -0.12736E-02  5760   0.231E-01-0.133E-02
 gam= 0.000 trial= 0.255  step= 0.124 mean= 0.255
 gam= 0.386 g(H,U,f)=  0.304E-02 0.455E-02 0.135E-02 ort(H,U,f) = 0.304E-02-0.221E-02-0.237E-02
CGA:  69    -0.220603006602E+03   -0.12874E-02   -0.14349E-02  5760   0.894E-02-0.154E-02
 gam= 0.386 trial= 0.249  step= 0.322 mean= 0.249
 gam= 0.457 g(H,U,f)=  0.159E-02 0.237E-02 0.133E-03 ort(H,U,f) = 0.168E-03 0.428E-03 0.116E-03
CGA:  70    -0.220604386274E+03   -0.13797E-02   -0.13443E-02  5760   0.409E-02 0.711E-03
 gam= 0.457 trial= 0.252  step= 0.515 mean= 0.252
 gam= 1.024 g(H,U,f)=  0.125E-02 0.260E-02 0.338E-03 ort(H,U,f) =-0.320E-03 0.807E-03-0.215E-03
CGA:  71    -0.220605608961E+03   -0.12227E-02   -0.11378E-02  5760   0.419E-02 0.272E-03
 gam= 1.024 trial= 0.265  step= 0.379 mean= 0.265
 gam= 1.336 g(H,U,f)=  0.117E-02 0.320E-02 0.123E-02 ort(H,U,f) =-0.531E-03 0.633E-03-0.837E-04
CGA:  72    -0.220606453124E+03   -0.84416E-03   -0.84595E-03  5760   0.560E-02 0.181E-04
 gam= 1.336 trial= 0.271  step= 0.213 mean= 0.271
 gam= 0.694 g(H,U,f)=  0.116E-02 0.248E-02 0.243E-03 ort(H,U,f) =-0.789E-03 0.153E-02-0.211E-03
CGA:  73    -0.220607006534E+03   -0.55341E-03   -0.59946E-03  5760   0.389E-02 0.533E-03
 gam= 0.694 trial= 0.268  step= 0.263 mean= 0.268
 gam= 0.605 g(H,U,f)=  0.111E-02 0.114E-02 0.947E-04 ort(H,U,f) =-0.655E-03 0.677E-03-0.190E-03
CGA:  74    -0.220607565593E+03   -0.55906E-03   -0.55902E-03  5760   0.235E-02-0.168E-03
 gam= 0.605 trial= 0.268  step= 0.711 mean= 0.268
 gam= 0.975 g(H,U,f)=  0.102E-02 0.114E-02 0.126E-03 ort(H,U,f) =-0.532E-03 0.369E-03 0.297E-04
CGA:  75    -0.220608316008E+03   -0.75041E-03   -0.79900E-03  5760   0.229E-02-0.133E-03
 gam= 0.975 trial= 0.290  step= 0.346 mean= 0.290
 gam= 1.572 g(H,U,f)=  0.775E-03 0.199E-02 0.841E-03 ort(H,U,f) =-0.101E-03 0.352E-03-0.430E-03
CGA:  76    -0.220608696542E+03   -0.38053E-03   -0.37345E-03  5760   0.360E-02-0.179E-03
 gam= 1.572 trial= 0.293  step= 0.202 mean= 0.293
 gam= 0.453 g(H,U,f)=  0.740E-03 0.857E-03 0.367E-04 ort(H,U,f) =-0.489E-03 0.536E-03-0.829E-05
CGA:  77    -0.220609026531E+03   -0.32999E-03   -0.33483E-03  5760   0.163E-02 0.395E-04
 gam= 0.453 trial= 0.288  step= 0.548 mean= 0.288
 gam= 1.120 g(H,U,f)=  0.676E-03 0.109E-02 0.676E-04 ort(H,U,f) =-0.171E-03 0.256E-03-0.178E-04
CGA:  78    -0.220609491094E+03   -0.46456E-03   -0.45229E-03  5760   0.183E-02 0.671E-04
 gam= 1.120 trial= 0.301  step= 0.473 mean= 0.301
 gam= 0.860 g(H,U,f)=  0.529E-03 0.966E-03 0.799E-04 ort(H,U,f) =-0.380E-03 0.428E-03-0.588E-05
CGA:  79    -0.220609943992E+03   -0.45290E-03   -0.45099E-03  5760   0.157E-02 0.428E-04
 gam= 0.860 trial= 0.310  step= 0.342 mean= 0.310
 gam= 1.133 g(H,U,f)=  0.685E-03 0.886E-03 0.213E-03 ort(H,U,f) =-0.354E-03 0.455E-03 0.606E-04
CGA:  80    -0.220610221883E+03   -0.27789E-03   -0.27587E-03  5760   0.178E-02 0.162E-03
 gam= 1.133 trial= 0.311  step= 0.281 mean= 0.311
 gam= 1.464 g(H,U,f)=  0.680E-03 0.148E-02 0.452E-03 ort(H,U,f) =-0.862E-04 0.314E-03-0.399E-03
CGA:  81    -0.220610491610E+03   -0.26973E-03   -0.27631E-03  5760   0.261E-02-0.171E-03
 gam= 1.464 trial= 0.310  step= 0.475 mean= 0.310
 gam= 0.748 g(H,U,f)=  0.846E-03 0.917E-03 0.189E-03 ort(H,U,f) =-0.753E-03 0.351E-03 0.282E-04
CGA:  82    -0.220610993726E+03   -0.50212E-03   -0.56026E-03  5760   0.195E-02-0.374E-03
 gam= 0.748 trial= 0.318  step= 0.341 mean= 0.318
 gam= 0.609 g(H,U,f)=  0.630E-03 0.460E-03 0.992E-04 ort(H,U,f) =-0.183E-03 0.435E-03-0.201E-03
CGA:  83    -0.220611284178E+03   -0.29045E-03   -0.28520E-03  5760   0.119E-02 0.510E-04
 gam= 0.609 trial= 0.319  step= 0.479 mean= 0.319
 gam= 1.892 g(H,U,f)=  0.590E-03 0.139E-02 0.266E-03 ort(H,U,f) =-0.158E-03 0.109E-03 0.197E-04
CGA:  84    -0.220611568143E+03   -0.28397E-03   -0.29206E-03  5760   0.225E-02-0.292E-04
 gam= 1.892 trial= 0.327  step= 0.195 mean= 0.327
 gam= 0.724 g(H,U,f)=  0.685E-03 0.780E-03 0.165E-03 ort(H,U,f) =-0.450E-03 0.538E-03-0.238E-03
CGA:  85    -0.220611768099E+03   -0.19996E-03   -0.21430E-03  5760   0.163E-02-0.150E-03
 gam= 0.724 trial= 0.321  step= 0.526 mean= 0.321
 gam= 1.158 g(H,U,f)=  0.868E-03 0.852E-03 0.167E-03 ort(H,U,f) =-0.543E-03 0.506E-03-0.148E-04
CGA:  86    -0.220612163191E+03   -0.39509E-03   -0.40033E-03  5760   0.189E-02-0.517E-04
 gam= 1.158 trial= 0.331  step= 0.246 mean= 0.331
 gam= 1.346 g(H,U,f)=  0.791E-03 0.139E-02 0.363E-03 ort(H,U,f) =-0.179E-03 0.308E-03-0.178E-03
CGA:  87    -0.220612381659E+03   -0.21847E-03   -0.22492E-03  5760   0.254E-02-0.486E-04
 gam= 1.346 trial= 0.327  step= 0.267 mean= 0.327
 gam= 0.541 g(H,U,f)=  0.766E-03 0.591E-03 0.190E-04 ort(H,U,f) =-0.559E-03 0.581E-03 0.732E-05
CGA:  88    -0.220612710486E+03   -0.32883E-03   -0.33116E-03  5760   0.138E-02 0.297E-04
 gam= 0.541 trial= 0.324  step= 0.472 mean= 0.324
 gam= 1.097 g(H,U,f)=  0.599E-03 0.760E-03 0.150E-03 ort(H,U,f) =-0.220E-03 0.281E-03-0.151E-04
CGA:  89    -0.220613042605E+03   -0.33212E-03   -0.32853E-03  5760   0.151E-02 0.458E-04
 gam= 1.097 trial= 0.331  step= 0.190 mean= 0.331
 gam= 0.923 g(H,U,f)=  0.558E-03 0.681E-03 0.153E-03 ort(H,U,f) =-0.917E-04 0.142E-03-0.150E-03
CGA:  90    -0.220613183278E+03   -0.14067E-03   -0.14805E-03  5760   0.139E-02-0.990E-04
 gam= 0.923 trial= 0.324  step= 0.368 mean= 0.324
 gam= 1.037 g(H,U,f)=  0.618E-03 0.733E-03 0.920E-04 ort(H,U,f) =-0.238E-03 0.242E-03-0.244E-04
CGA:  91    -0.220613421487E+03   -0.23821E-03   -0.23907E-03  5760   0.144E-02-0.196E-04
 gam= 1.037 trial= 0.326  step= 0.288 mean= 0.326
 gam= 0.748 g(H,U,f)=  0.468E-03 0.513E-03 0.986E-04 ort(H,U,f) =-0.205E-03 0.284E-03 0.218E-04
CGA:  92    -0.220613624032E+03   -0.20254E-03   -0.20477E-03  5760   0.108E-02 0.100E-03
 gam= 0.748 trial= 0.324  step= 0.207 mean= 0.324
 gam= 1.078 g(H,U,f)=  0.363E-03 0.568E-03 0.234E-03 ort(H,U,f) =-0.331E-04 0.971E-04-0.200E-03
CGA:  93    -0.220613737460E+03   -0.11343E-03   -0.11972E-03  5760   0.116E-02-0.136E-03
 gam= 1.078 trial= 0.319  step= 0.269 mean= 0.319
 gam= 0.701 g(H,U,f)=  0.390E-03 0.392E-03 0.350E-04 ort(H,U,f) =-0.212E-03 0.214E-03 0.334E-05
CGA:  94    -0.220613874120E+03   -0.13666E-03   -0.13681E-03  5760   0.817E-03 0.514E-05
 gam= 0.701 trial= 0.316  step= 0.314 mean= 0.316
 gam= 1.704 g(H,U,f)=  0.287E-03 0.857E-03 0.247E-03 ort(H,U,f) =-0.688E-04 0.127E-03-0.792E-04
CGA:  95    -0.220614003057E+03   -0.12894E-03   -0.12897E-03  5760   0.139E-02-0.205E-04
 gam= 1.704 trial= 0.316  step= 0.162 mean= 0.316
 gam= 0.317 g(H,U,f)=  0.260E-03 0.175E-03 0.536E-05 ort(H,U,f) =-0.347E-03 0.341E-03-0.227E-05
CGA:  96    -0.220614107531E+03   -0.10447E-03   -0.10960E-03  5760   0.440E-03-0.889E-05
 gam= 0.317 trial= 0.308  step= 0.431 mean= 0.308
 gam= 2.854 g(H,U,f)=  0.253E-03 0.708E-03 0.297E-03 ort(H,U,f) =-0.184E-04 0.353E-04-0.143E-04
CGA:  97    -0.220614201892E+03   -0.94361E-04   -0.94248E-04  5760   0.126E-02 0.255E-05
 gam= 2.854 trial= 0.314  step= 0.151 mean= 0.314
 gam= 0.408 g(H,U,f)=  0.284E-03 0.218E-03 0.107E-04 ort(H,U,f) =-0.305E-03 0.294E-03 0.420E-04
CGA:  98    -0.220614280212E+03   -0.78320E-04   -0.95253E-04  5760   0.513E-03 0.304E-04
 gam= 0.408 trial= 0.306  step= 0.235 mean= 0.306
 gam= 0.000 g(H,U,f)=  0.229E-03 0.493E-03 0.190E-03 ort(H,U,f) = 0.101E-05 0.350E-04-0.119E-03
SDA:  99    -0.220614340412E+03   -0.60200E-04   -0.61657E-04  5760   0.913E-03-0.835E-04
 gam= 0.000 trial= 0.303  step= 0.121 mean= 0.303
 gam= 0.362 g(H,U,f)=  0.114E-03 0.173E-03 0.434E-04 ort(H,U,f) = 0.114E-03-0.107E-03-0.888E-04
CGA: 100    -0.220614386739E+03   -0.46327E-04   -0.55145E-04  5760   0.331E-03-0.826E-04
 gam= 0.362 trial= 0.294  step= 0.396 mean= 0.294
 gam= 0.503 g(H,U,f)=  0.533E-04 0.108E-03 0.503E-05 ort(H,U,f) = 0.438E-05 0.926E-05-0.145E-05
CGA: 101    -0.220614447193E+03   -0.60454E-04   -0.59496E-04  5760   0.166E-03 0.122E-04
 gam= 0.503 trial= 0.299  step= 0.411 mean= 0.299
 gam= 1.643 g(H,U,f)=  0.586E-04 0.182E-03 0.322E-04 ort(H,U,f) =-0.610E-05 0.144E-04-0.243E-05
CGA: 102    -0.220614482774E+03   -0.35581E-04   -0.35373E-04  5760   0.273E-03 0.586E-05
 gam= 1.643 trial= 0.304  step= 0.283 mean= 0.304
 gam= 0.997 g(H,U,f)=  0.591E-04 0.162E-03 0.510E-04 ort(H,U,f) =-0.425E-04 0.643E-04-0.382E-04
CGA: 103    -0.220614522421E+03   -0.39647E-04   -0.39994E-04  5760   0.272E-03-0.163E-04
 gam= 0.997 trial= 0.303  step= 0.259 mean= 0.303
 gam= 0.660 g(H,U,f)=  0.686E-04 0.962E-04 0.149E-04 ort(H,U,f) =-0.644E-04 0.715E-04-0.839E-05
CGA: 104    -0.220614555446E+03   -0.33025E-04   -0.33207E-04  5760   0.180E-03-0.123E-05
 gam= 0.660 trial= 0.301  step= 0.472 mean= 0.301
 gam= 0.700 g(H,U,f)=  0.673E-04 0.548E-04 0.366E-05 ort(H,U,f) =-0.419E-04 0.572E-04-0.506E-05
CGA: 105    -0.220614599569E+03   -0.44123E-04   -0.42199E-04  5760   0.126E-03 0.102E-04
 gam= 0.700 trial= 0.310  step= 0.875 mean= 0.310
 gam= 1.137 g(H,U,f)=  0.719E-04 0.684E-04 0.279E-05 ort(H,U,f) =-0.381E-04 0.365E-04-0.803E-06
CGA: 106    -0.220614657168E+03   -0.57599E-04   -0.58162E-04  5760   0.143E-03-0.243E-05
 gam= 1.137 trial= 0.338  step= 0.600 mean= 0.338
 gam= 2.054 g(H,U,f)=  0.644E-04 0.184E-03 0.460E-04 ort(H,U,f) =-0.200E-04 0.260E-04-0.711E-05
CGA: 107    -0.220614699809E+03   -0.42640E-04   -0.42118E-04  5760   0.294E-03-0.110E-05
 gam= 2.054 trial= 0.351  step= 0.180 mean= 0.351
 gam= 0.669 g(H,U,f)=  0.774E-04 0.919E-04 0.272E-04 ort(H,U,f) =-0.393E-04 0.501E-04-0.222E-04
CGA: 108    -0.220614724805E+03   -0.24996E-04   -0.26179E-04  5760   0.196E-03-0.114E-04
 gam= 0.669 trial= 0.342  step= 0.472 mean= 0.342
 gam= 0.734 g(H,U,f)=  0.607E-04 0.796E-04 0.388E-05 ort(H,U,f) =-0.253E-04 0.506E-04-0.930E-06
CGA: 109    -0.220614771817E+03   -0.47011E-04   -0.44573E-04  5760   0.144E-03 0.243E-04
 gam= 0.734 trial= 0.349  step= 0.338 mean= 0.349
 gam= 1.274 g(H,U,f)=  0.551E-04 0.116E-03 0.129E-04 ort(H,U,f) =-0.952E-05 0.147E-04-0.598E-05
CGA: 110    -0.220614799236E+03   -0.27419E-04   -0.27425E-04  5760   0.184E-03-0.812E-06
 gam= 1.274 trial= 0.348  step= 0.301 mean= 0.348
 gam= 1.730 g(H,U,f)=  0.560E-04 0.185E-03 0.764E-04 ort(H,U,f) =-0.178E-04 0.275E-04 0.375E-06
CGA: 111    -0.220614826782E+03   -0.27546E-04   -0.27531E-04  5760   0.318E-03 0.101E-04
 gam= 1.730 trial= 0.346  step= 0.205 mean= 0.346
 gam= 0.408 g(H,U,f)=  0.615E-04 0.625E-04 0.568E-05 ort(H,U,f) =-0.878E-04 0.102E-03 0.788E-05
CGA: 112    -0.220614854762E+03   -0.27980E-04   -0.34277E-04  5760   0.130E-03 0.220E-04
 gam= 0.408 trial= 0.339  step= 0.204 mean= 0.339
 gam= 1.620 g(H,U,f)=  0.514E-04 0.110E-03 0.486E-04 ort(H,U,f) =-0.525E-05 0.133E-04-0.348E-04
CGA: 113    -0.220614868449E+03   -0.13688E-04   -0.14132E-04  5760   0.210E-03-0.268E-04
 gam= 1.620 trial= 0.332  step= 0.249 mean= 0.332
 gam= 0.986 g(H,U,f)=  0.748E-04 0.112E-03 0.202E-04 ort(H,U,f) =-0.473E-04 0.428E-04-0.607E-05
CGA: 114    -0.220614889946E+03   -0.21497E-04   -0.20781E-04  5760   0.207E-03-0.105E-04
 gam= 0.986 trial= 0.328  step= 0.141 mean= 0.328
 gam= 1.001 g(H,U,f)=  0.678E-04 0.110E-03 0.299E-04 ort(H,U,f) =-0.112E-04 0.225E-04-0.138E-04
CGA: 115    -0.220614903650E+03   -0.13704E-04   -0.13890E-04  5760   0.207E-03-0.254E-05
 gam= 1.001 trial= 0.319  step= 0.272 mean= 0.319
 gam= 1.325 g(H,U,f)=  0.590E-04 0.167E-03 0.488E-04 ort(H,U,f) =-0.271E-04 0.424E-04 0.127E-04
CGA: 116    -0.220614930856E+03   -0.27206E-04   -0.27877E-04  5760   0.275E-03 0.280E-04
 gam= 1.325 trial= 0.316  step= 0.118 mean= 0.316
 gam= 0.458 g(H,U,f)=  0.542E-04 0.606E-04 0.109E-04 ort(H,U,f) =-0.420E-04 0.288E-04-0.309E-04
CGA: 117    -0.220614945848E+03   -0.14992E-04   -0.18379E-04  5760   0.126E-03-0.440E-04
 gam= 0.458 trial= 0.306  step= 0.305 mean= 0.306
 gam= 1.626 g(H,U,f)=  0.474E-04 0.123E-03 0.338E-04 ort(H,U,f) =-0.119E-04 0.107E-04-0.102E-04
CGA: 118    -0.220614961960E+03   -0.16112E-04   -0.16105E-04  5760   0.205E-03-0.114E-04
 gam= 1.626 trial= 0.306  step= 0.143 mean= 0.306
 gam= 0.619 g(H,U,f)=  0.511E-04 0.699E-04 0.562E-05 ort(H,U,f) =-0.294E-04 0.321E-04-0.458E-05
CGA: 119    -0.220614974579E+03   -0.12619E-04   -0.13263E-04  5760   0.127E-03-0.194E-05
 gam= 0.619 trial= 0.298  step= 0.281 mean= 0.298
 gam= 1.359 g(H,U,f)=  0.424E-04 0.116E-03 0.132E-04 ort(H,U,f) =-0.164E-04 0.201E-04-0.284E-05
CGA: 120    -0.220614992209E+03   -0.17630E-04   -0.17653E-04  5760   0.172E-03 0.802E-06
 gam= 1.359 trial= 0.297  step= 0.171 mean= 0.297
 gam= 1.002 g(H,U,f)=  0.434E-04 0.931E-04 0.360E-04 ort(H,U,f) =-0.290E-04 0.316E-04-0.156E-04
CGA: 121    -0.220615006865E+03   -0.14656E-04   -0.14777E-04  5760   0.172E-03-0.131E-04
 gam= 1.002 trial= 0.291  step= 0.214 mean= 0.291
 gam= 1.094 g(H,U,f)=  0.486E-04 0.111E-03 0.293E-04 ort(H,U,f) =-0.380E-04 0.457E-04 0.137E-04
CGA: 122    -0.220615023009E+03   -0.16144E-04   -0.17089E-04  5760   0.189E-03 0.214E-04
 gam= 1.094 trial= 0.287  step= 0.144 mean= 0.287
 gam= 0.820 g(H,U,f)=  0.518E-04 0.825E-04 0.204E-04 ort(H,U,f) =-0.330E-04 0.398E-04-0.356E-04
CGA: 123    -0.220615035843E+03   -0.12834E-04   -0.15252E-04  5760   0.155E-03-0.287E-04
 gam= 0.820 trial= 0.280  step= 0.392 mean= 0.280
 gam= 2.222 g(H,U,f)=  0.726E-04 0.202E-03 0.692E-04 ort(H,U,f) =-0.367E-04 0.267E-04-0.238E-04
CGA: 124    -0.220615060264E+03   -0.24420E-04   -0.25715E-04  5760   0.344E-03-0.338E-04
 gam= 2.222 trial= 0.286  step= 0.116 mean= 0.286
 gam= 0.510 g(H,U,f)=  0.840E-04 0.885E-04 0.278E-05 ort(H,U,f) =-0.829E-04 0.856E-04-0.806E-05
CGA: 125    -0.220615075737E+03   -0.15473E-04   -0.15538E-04  5760   0.175E-03-0.538E-05
 gam= 0.510 trial= 0.277  step= 0.225 mean= 0.277
 gam= 1.797 g(H,U,f)=  0.667E-04 0.179E-03 0.692E-04 ort(H,U,f) =-0.786E-05 0.179E-04-0.601E-05
CGA: 126    -0.220615095141E+03   -0.19404E-04   -0.19399E-04  5760   0.315E-03 0.405E-05
 gam= 1.797 trial= 0.274  step= 0.132 mean= 0.274
 gam= 0.538 g(H,U,f)=  0.682E-04 0.922E-04 0.908E-05 ort(H,U,f) =-0.513E-04 0.482E-04 0.147E-04
CGA: 127    -0.220615112887E+03   -0.17746E-04   -0.21264E-04  5760   0.170E-03 0.115E-04
 gam= 0.538 trial= 0.267  step= 0.141 mean= 0.267
 gam= 1.321 g(H,U,f)=  0.673E-04 0.123E-03 0.338E-04 ort(H,U,f) = 0.831E-05 0.348E-05-0.393E-04
CGA: 128    -0.220615124550E+03   -0.11663E-04   -0.12363E-04  5760   0.224E-03-0.275E-04
 gam= 1.321 trial= 0.261  step= 0.218 mean= 0.261
 gam= 1.560 g(H,U,f)=  0.674E-04 0.219E-03 0.624E-04 ort(H,U,f) =-0.197E-04 0.197E-04-0.265E-04
CGA: 129    -0.220615145462E+03   -0.20912E-04   -0.20429E-04  5760   0.349E-03-0.264E-04
 gam= 1.560 trial= 0.259  step= 0.094 mean= 0.259
 gam= 0.000 g(H,U,f)=  0.730E-04 0.964E-04 0.355E-05 ort(H,U,f) =-0.660E-04 0.655E-04-0.163E-05
SDA: 130    -0.220615159421E+03   -0.13959E-04   -0.14452E-04  5760   0.173E-03-0.210E-05
 gam= 0.000 trial= 0.251  step= 0.232 mean= 0.251
 gam= 0.335 g(H,U,f)=  0.199E-04 0.351E-04 0.290E-05 ort(H,U,f) = 0.933E-05-0.716E-05-0.162E-05
CGA: 131    -0.220615179505E+03   -0.20084E-04   -0.20101E-04  5760   0.579E-04 0.549E-06
 gam= 0.335 trial= 0.250  step= 0.399 mean= 0.250
 gam= 1.459 g(H,U,f)=  0.203E-04 0.551E-04 0.915E-05 ort(H,U,f) =-0.171E-05 0.564E-05 0.126E-05
CGA: 132    -0.220615191407E+03   -0.11902E-04   -0.11585E-04  5760   0.845E-04 0.519E-05
 gam= 1.459 trial= 0.257  step= 0.267 mean= 0.257
 gam= 1.180 g(H,U,f)=  0.216E-04 0.598E-04 0.184E-04 ort(H,U,f) =-0.101E-04 0.210E-04-0.124E-04
CGA: 133    -0.220615203815E+03   -0.12408E-04   -0.12316E-04  5760   0.997E-04-0.147E-05
 gam= 1.180 trial= 0.258  step= 0.304 mean= 0.258
 gam= 0.739 g(H,U,f)=  0.349E-04 0.342E-04 0.463E-05 ort(H,U,f) =-0.317E-04 0.328E-04-0.406E-06
CGA: 134    -0.220615218751E+03   -0.14936E-04   -0.14922E-04  5760   0.737E-04 0.716E-06
 gam= 0.739 trial= 0.260  step= 0.432 mean= 0.260
 gam= 0.649 g(H,U,f)=  0.295E-04 0.181E-04 0.223E-06 ort(H,U,f) =-0.165E-04 0.237E-04-0.900E-06
CGA: 135    -0.220615235738E+03   -0.16987E-04   -0.16023E-04  5760   0.478E-04 0.625E-05
 gam= 0.649 trial= 0.269  step= 0.807 mean= 0.269
 gam= 1.585 g(H,U,f)=  0.246E-04 0.381E-04 0.130E-04 ort(H,U,f) =-0.128E-04 0.979E-05-0.392E-05
CGA: 136    -0.220615255749E+03   -0.20011E-04   -0.20941E-04  5760   0.758E-04-0.695E-05
 gam= 1.585 trial= 0.296  step= 0.172 mean= 0.296
 gam= 0.723 g(H,U,f)=  0.221E-04 0.284E-04 0.440E-05 ort(H,U,f) =-0.948E-05 0.126E-04-0.521E-05
CGA: 137    -0.220615261100E+03   -0.53510E-05   -0.55620E-05  5760   0.548E-04-0.212E-05
 gam= 0.723 trial= 0.289  step= 0.375 mean= 0.289
 gam= 0.691 g(H,U,f)=  0.203E-04 0.164E-04 0.119E-05 ort(H,U,f) =-0.967E-05 0.973E-05-0.979E-06
CGA: 138    -0.220615271105E+03   -0.10005E-04   -0.99857E-05  5760   0.379E-04-0.928E-06
 gam= 0.691 trial= 0.294  step= 0.635 mean= 0.294
 gam= 1.086 g(H,U,f)=  0.183E-04 0.199E-04 0.293E-05 ort(H,U,f) =-0.577E-05 0.812E-05 0.222E-06
CGA: 139    -0.220615283302E+03   -0.12197E-04   -0.11817E-04  5760   0.411E-04 0.258E-05
 gam= 1.086 trial= 0.311  step= 0.365 mean= 0.311
 gam= 0.794 g(H,U,f)=  0.148E-04 0.170E-04 0.900E-06 ort(H,U,f) =-0.494E-05 0.105E-04-0.230E-06
CGA: 140    -0.220615291547E+03   -0.82443E-05   -0.80214E-05  5760   0.327E-04 0.533E-05
 gam= 0.794 trial= 0.313  step= 0.474 mean= 0.313
 gam= 1.029 g(H,U,f)=  0.123E-04 0.199E-04 0.135E-05 ort(H,U,f) =-0.745E-05 0.822E-05-0.972E-06
CGA: 141    -0.220615300340E+03   -0.87929E-05   -0.87350E-05  5760   0.336E-04-0.206E-06
 gam= 1.029 trial= 0.321  step= 0.324 mean= 0.321
 gam= 2.140 g(H,U,f)=  0.146E-04 0.408E-04 0.165E-04 ort(H,U,f) =-0.548E-05 0.612E-05 0.212E-05
CGA: 142    -0.220615305743E+03   -0.54037E-05   -0.54056E-05  5760   0.719E-04 0.276E-05
 gam= 2.140 trial= 0.322  step= 0.214 mean= 0.322
 gam= 0.484 g(H,U,f)=  0.169E-04 0.165E-04 0.142E-05 ort(H,U,f) =-0.230E-04 0.282E-04 0.498E-05
CGA: 143    -0.220615312708E+03   -0.69643E-05   -0.83347E-05  5760   0.348E-04 0.102E-04
 gam= 0.484 trial= 0.316  step= 0.203 mean= 0.316
 gam= 1.603 g(H,U,f)=  0.154E-04 0.300E-04 0.103E-04 ort(H,U,f) =-0.192E-05 0.541E-05-0.113E-04
CGA: 144    -0.220615316508E+03   -0.38000E-05   -0.40280E-05  5760   0.558E-04-0.780E-05
 gam= 1.603 trial= 0.311  step= 0.290 mean= 0.311
 gam= 1.152 g(H,U,f)=  0.225E-04 0.388E-04 0.294E-05 ort(H,U,f) =-0.137E-04 0.900E-05-0.376E-05
CGA: 145    -0.220615322912E+03   -0.64047E-05   -0.62667E-05  5760   0.643E-04-0.843E-05
 gam= 1.152 trial= 0.309  step= 0.169 mean= 0.309
 gam= 1.238 g(H,U,f)=  0.246E-04 0.450E-04 0.100E-04 ort(H,U,f) =-0.816E-05 0.108E-04 0.340E-05
CGA: 146    -0.220615327716E+03   -0.48037E-05   -0.46213E-05  5760   0.796E-04 0.600E-05
 gam= 1.238 trial= 0.302  step= 0.205 mean= 0.302
 gam= 0.720 g(H,U,f)=  0.202E-04 0.327E-04 0.431E-05 ort(H,U,f) =-0.169E-04 0.195E-04 0.458E-05
CGA: 147    -0.220615335795E+03   -0.80790E-05   -0.89140E-05  5760   0.573E-04 0.720E-05
 gam= 0.720 trial= 0.298  step= 0.132 mean= 0.298
 gam= 0.892 g(H,U,f)=  0.191E-04 0.221E-04 0.994E-05 ort(H,U,f) =-0.499E-05 0.570E-05-0.155E-04
CGA: 148    -0.220615339732E+03   -0.39371E-05   -0.41100E-05  5760   0.511E-04-0.148E-04
 gam= 0.892 trial= 0.289  step= 0.276 mean= 0.289
 gam= 2.094 g(H,U,f)=  0.269E-04 0.640E-04 0.161E-04 ort(H,U,f) =-0.360E-05 0.127E-05-0.607E-05
CGA: 149    -0.220615345023E+03   -0.52907E-05   -0.52330E-05  5760   0.107E-03-0.839E-05
 gam= 2.094 trial= 0.289  step= 0.128 mean= 0.289
 gam= 0.705 g(H,U,f)=  0.276E-04 0.424E-04 0.541E-05 ort(H,U,f) =-0.144E-04 0.160E-04-0.419E-06
CGA: 150    -0.220615350673E+03   -0.56503E-05   -0.57067E-05  5760   0.754E-04 0.126E-05
 gam= 0.705 trial= 0.281  step= 0.156 mean= 0.281
 gam= 0.912 g(H,U,f)=  0.201E-04 0.381E-04 0.105E-04 ort(H,U,f) =-0.120E-04 0.143E-04 0.276E-05
CGA: 151    -0.220615356287E+03   -0.56133E-05   -0.59484E-05  5760   0.688E-04 0.507E-05
 gam= 0.912 trial= 0.274  step= 0.119 mean= 0.274
 gam= 0.593 g(H,U,f)=  0.196E-04 0.183E-04 0.280E-05 ort(H,U,f) =-0.121E-04 0.124E-04-0.547E-05
CGA: 152    -0.220615359982E+03   -0.36952E-05   -0.43617E-05  5760   0.408E-04-0.516E-05
 gam= 0.593 trial= 0.267  step= 0.202 mean= 0.267
 gam= 2.042 g(H,U,f)=  0.185E-04 0.439E-04 0.209E-04 ort(H,U,f) =-0.672E-06 0.390E-05-0.636E-05
CGA: 153    -0.220615363822E+03   -0.38398E-05   -0.38114E-05  5760   0.833E-04-0.312E-05
 gam= 2.042 trial= 0.263  step= 0.135 mean= 0.263
 gam= 0.803 g(H,U,f)=  0.225E-04 0.365E-04 0.792E-05 ort(H,U,f) =-0.179E-04 0.201E-04 0.309E-05
CGA: 154    -0.220615368393E+03   -0.45714E-05   -0.51912E-05  5760   0.669E-04 0.527E-05
 gam= 0.803 trial= 0.257  step= 0.111 mean= 0.257
 gam= 0.809 g(H,U,f)=  0.220E-04 0.275E-04 0.457E-05 ort(H,U,f) =-0.944E-05 0.906E-05-0.799E-05
CGA: 155    -0.220615371844E+03   -0.34509E-05   -0.39553E-05  5760   0.541E-04-0.837E-05
 gam= 0.809 trial= 0.250  step= 0.217 mean= 0.250
 gam= 1.561 g(H,U,f)=  0.211E-04 0.497E-04 0.136E-04 ort(H,U,f) =-0.968E-05 0.637E-05-0.419E-05
CGA: 156    -0.220615377075E+03   -0.52313E-05   -0.51423E-05  5760   0.845E-04-0.750E-05
 gam= 1.561 trial= 0.248  step= 0.103 mean= 0.248
 gam= 0.557 g(H,U,f)=  0.222E-04 0.239E-04 0.941E-06 ort(H,U,f) =-0.195E-04 0.184E-04-0.676E-06
CGA: 157    -0.220615380833E+03   -0.37579E-05   -0.37463E-05  5760   0.470E-04-0.179E-05
 gam= 0.557 trial= 0.241  step= 0.161 mean= 0.241
 gam= 1.691 g(H,U,f)=  0.186E-04 0.453E-04 0.156E-04 ort(H,U,f) =-0.306E-05 0.696E-05-0.303E-05
CGA: 158    -0.220615384541E+03   -0.37081E-05   -0.37129E-05  5760   0.795E-04 0.871E-06
 gam= 1.691 trial= 0.237  step= 0.130 mean= 0.237
 gam= 0.837 g(H,U,f)=  0.194E-04 0.399E-04 0.721E-05 ort(H,U,f) =-0.211E-04 0.241E-04 0.501E-05
CGA: 159    -0.220615389072E+03   -0.45306E-05   -0.52504E-05  5760   0.666E-04 0.802E-05
 gam= 0.837 trial= 0.231  step= 0.095 mean= 0.231
 gam= 0.702 g(H,U,f)=  0.202E-04 0.223E-04 0.423E-05 ort(H,U,f) =-0.141E-04 0.138E-04-0.956E-05
CGA: 160    -0.220615392043E+03   -0.29708E-05   -0.34825E-05  5760   0.467E-04-0.979E-05
 gam= 0.702 trial= 0.225  step= 0.221 mean= 0.225
 gam= 0.000 g(H,U,f)=  0.241E-04 0.816E-04 0.301E-04 ort(H,U,f) =-0.501E-05 0.381E-05-0.757E-05
SDA: 161    -0.220615396455E+03   -0.44119E-05   -0.44032E-05  5760   0.136E-03-0.877E-05
 gam= 0.000 trial= 0.224  step= 0.101 mean= 0.224
 gam= 0.193 g(H,U,f)=  0.987E-05 0.144E-04 0.189E-05 ort(H,U,f) = 0.901E-05-0.826E-05-0.641E-05
CGA: 162    -0.220615402332E+03   -0.58775E-05   -0.68799E-05  5760   0.262E-04-0.566E-05
 gam= 0.193 trial= 0.218  step= 0.447 mean= 0.218
 gam= 0.992 g(H,U,f)=  0.778E-05 0.152E-04 0.303E-05 ort(H,U,f) =-0.193E-05 0.161E-05-0.163E-06
CGA: 163    -0.220615407919E+03   -0.55872E-05   -0.56135E-05  5760   0.260E-04-0.483E-06
 gam= 0.992 trial= 0.230  step= 0.328 mean= 0.230
 gam= 1.141 g(H,U,f)=  0.706E-05 0.179E-04 0.472E-05 ort(H,U,f) =-0.164E-05 0.739E-05-0.289E-05
CGA: 164    -0.220615412470E+03   -0.45507E-05   -0.41818E-05  5760   0.297E-04 0.287E-05
 gam= 1.141 trial= 0.235  step= 0.293 mean= 0.235
 gam= 1.039 g(H,U,f)=  0.864E-05 0.183E-04 0.388E-05 ort(H,U,f) =-0.507E-05 0.793E-05-0.802E-06
CGA: 165    -0.220615417368E+03   -0.48977E-05   -0.48281E-05  5760   0.308E-04 0.206E-05
 gam= 1.039 trial= 0.238  step= 0.313 mean= 0.238
 gam= 0.919 g(H,U,f)=  0.982E-05 0.159E-04 0.264E-05 ort(H,U,f) =-0.625E-05 0.107E-04-0.226E-05
CGA: 166    -0.220615422756E+03   -0.53878E-05   -0.51624E-05  5760   0.283E-04 0.217E-05
 gam= 0.919 trial= 0.241  step= 0.377 mean= 0.241
 gam= 1.265 g(H,U,f)=  0.102E-04 0.201E-04 0.556E-05 ort(H,U,f) =-0.740E-05 0.633E-05-0.104E-05
CGA: 167    -0.220615428347E+03   -0.55915E-05   -0.57206E-05  5760   0.358E-04-0.211E-05
 gam= 1.265 trial= 0.248  step= 0.239 mean= 0.248
 gam= 0.909 g(H,U,f)=  0.123E-04 0.157E-04 0.459E-05 ort(H,U,f) =-0.654E-05 0.884E-05-0.459E-05
CGA: 168    -0.220615432291E+03   -0.39435E-05   -0.39621E-05  5760   0.326E-04-0.229E-05
 gam= 0.909 trial= 0.248  step= 0.449 mean= 0.248
 gam= 0.579 g(H,U,f)=  0.976E-05 0.865E-05 0.449E-06 ort(H,U,f) =-0.682E-05 0.814E-05-0.654E-06
CGA: 169    -0.220615439276E+03   -0.69851E-05   -0.68424E-05  5760   0.189E-04 0.663E-06
 gam= 0.579 trial= 0.258  step= 0.444 mean= 0.258
 gam= 1.386 g(H,U,f)=  0.813E-05 0.134E-04 0.461E-05 ort(H,U,f) =-0.141E-05 0.357E-05-0.296E-07
CGA: 170    -0.220615443710E+03   -0.44342E-05   -0.42709E-05  5760   0.261E-04 0.213E-05
 gam= 1.386 trial= 0.267  step= 0.265 mean= 0.267
 gam= 1.170 g(H,U,f)=  0.937E-05 0.182E-04 0.299E-05 ort(H,U,f) =-0.811E-06 0.584E-05-0.276E-05
CGA: 171    -0.220615447547E+03   -0.38371E-05   -0.38481E-05  5760   0.306E-04 0.226E-05
 gam= 1.170 trial= 0.267  step= 0.392 mean= 0.267
 gam= 0.905 g(H,U,f)=  0.107E-04 0.133E-04 0.367E-05 ort(H,U,f) =-0.920E-05 0.628E-05 0.162E-05
CGA: 172    -0.220615453748E+03   -0.62014E-05   -0.65117E-05  5760   0.277E-04-0.131E-05
 gam= 0.905 trial= 0.273  step= 0.253 mean= 0.273
 gam= 0.891 g(H,U,f)=  0.103E-04 0.121E-04 0.230E-05 ort(H,U,f) =-0.270E-05 0.687E-05-0.337E-05
CGA: 173    -0.220615457011E+03   -0.32630E-05   -0.33494E-05  5760   0.247E-04 0.798E-06
 gam= 0.891 trial= 0.272  step= 0.360 mean= 0.272
 gam= 0.908 g(H,U,f)=  0.737E-05 0.119E-04 0.312E-05 ort(H,U,f) =-0.455E-05 0.365E-05 0.142E-05
CGA: 174    -0.220615461444E+03   -0.44327E-05   -0.45707E-05  5760   0.224E-04 0.523E-06
 gam= 0.908 trial= 0.277  step= 0.230 mean= 0.277
 gam= 0.793 g(H,U,f)=  0.678E-05 0.885E-05 0.213E-05 ort(H,U,f) =-0.205E-05 0.494E-05-0.359E-05
CGA: 175    -0.220615463923E+03   -0.24788E-05   -0.26341E-05  5760   0.178E-04-0.696E-06
 gam= 0.793 trial= 0.274  step= 0.428 mean= 0.274
 gam= 1.322 g(H,U,f)=  0.946E-05 0.124E-04 0.164E-05 ort(H,U,f) =-0.502E-05 0.162E-05 0.165E-06
CGA: 176    -0.220615467212E+03   -0.32892E-05   -0.36849E-05  5760   0.235E-04-0.323E-05
 gam= 1.322 trial= 0.282  step= 0.294 mean= 0.282
 gam= 1.087 g(H,U,f)=  0.952E-05 0.129E-04 0.307E-05 ort(H,U,f) =-0.311E-05 0.424E-05-0.335E-05
CGA: 177    -0.220615470051E+03   -0.28390E-05   -0.28241E-05  5760   0.255E-04-0.222E-05
 gam= 1.087 trial= 0.283  step= 0.280 mean= 0.283
 gam= 0.546 g(H,U,f)=  0.656E-05 0.667E-05 0.696E-06 ort(H,U,f) =-0.535E-05 0.467E-05-0.132E-06
CGA: 178    -0.220615473287E+03   -0.32363E-05   -0.32336E-05  5760   0.139E-04-0.813E-06
 gam= 0.546 trial= 0.282  step= 0.371 mean= 0.282
 gam= 1.603 g(H,U,f)=  0.573E-05 0.113E-04 0.527E-05 ort(H,U,f) =-0.102E-05 0.221E-05-0.182E-05
CGA: 179    -0.220615475852E+03   -0.25650E-05   -0.24985E-05  5760   0.223E-04-0.627E-06
 gam= 1.603 trial= 0.287  step= 0.277 mean= 0.287
 gam= 0.783 g(H,U,f)=  0.749E-05 0.941E-05 0.598E-06 ort(H,U,f) =-0.466E-05 0.663E-05-0.425E-06
CGA: 180    -0.220615478796E+03   -0.29432E-05   -0.29579E-05  5760   0.175E-04 0.154E-05
 gam= 0.783 trial= 0.286  step= 0.397 mean= 0.286
 gam= 1.157 g(H,U,f)=  0.714E-05 0.114E-04 0.174E-05 ort(H,U,f) =-0.420E-05 0.417E-05 0.319E-06
CGA: 181    -0.220615482503E+03   -0.37074E-05   -0.37097E-05  5760   0.202E-04 0.287E-06
 gam= 1.157 trial= 0.292  step= 0.281 mean= 0.292
 gam= 1.069 g(H,U,f)=  0.899E-05 0.109E-04 0.177E-05 ort(H,U,f) =-0.375E-05 0.566E-05-0.147E-05
CGA: 182    -0.220615485381E+03   -0.28775E-05   -0.28919E-05  5760   0.216E-04 0.435E-06
 gam= 1.069 trial= 0.291  step= 0.360 mean= 0.291
 gam= 1.393 g(H,U,f)=  0.733E-05 0.162E-04 0.659E-05 ort(H,U,f) =-0.281E-05 0.406E-05 0.471E-06
CGA: 183    -0.220615489383E+03   -0.40022E-05   -0.39762E-05  5760   0.302E-04 0.172E-05
 gam= 1.393 trial= 0.295  step= 0.220 mean= 0.295
 gam= 0.387 g(H,U,f)=  0.665E-05 0.494E-05 0.832E-07 ort(H,U,f) =-0.578E-05 0.102E-04-0.393E-06
CGA: 184    -0.220615492571E+03   -0.31885E-05   -0.35868E-05  5760   0.117E-04 0.407E-05
 gam= 0.387 trial= 0.291  step= 0.504 mean= 0.291
 gam= 2.044 g(H,U,f)=  0.681E-05 0.139E-04 0.312E-05 ort(H,U,f) =-0.212E-05 0.209E-05-0.199E-05
CGA: 185    -0.220615495884E+03   -0.33127E-05   -0.33375E-05  5760   0.239E-04-0.202E-05
 gam= 2.044 trial= 0.302  step= 0.342 mean= 0.302
 gam= 1.305 g(H,U,f)=  0.149E-04 0.149E-04 0.136E-05 ort(H,U,f) =-0.917E-05 0.711E-05 0.163E-06
CGA: 186    -0.220615499189E+03   -0.33047E-05   -0.33732E-05  5760   0.311E-04-0.190E-05
 gam= 1.305 trial= 0.304  step= 0.266 mean= 0.304
 gam= 1.117 g(H,U,f)=  0.142E-04 0.186E-04 0.196E-05 ort(H,U,f) =-0.800E-05 0.102E-04-0.238E-05
CGA: 187    -0.220615502964E+03   -0.37758E-05   -0.38152E-05  5760   0.348E-04-0.172E-06
 gam= 1.117 trial= 0.302  step= 0.264 mean= 0.302
 gam= 0.743 g(H,U,f)=  0.160E-04 0.950E-05 0.343E-06 ort(H,U,f) =-0.125E-04 0.130E-04-0.736E-06
CGA: 188    -0.220615507539E+03   -0.45745E-05   -0.45687E-05  5760   0.258E-04-0.258E-06
 gam= 0.743 trial= 0.300  step= 0.655 mean= 0.300
 gam= 2.897 g(H,U,f)=  0.278E-04 0.428E-04 0.427E-05 ort(H,U,f) =-0.820E-05 0.711E-05-0.121E-05
CGA: 189    -0.220615515680E+03   -0.81410E-05   -0.84003E-05  5760   0.749E-04-0.230E-05
 gam= 2.897 trial= 0.318  step= 0.243 mean= 0.318
 gam= 0.776 g(H,U,f)=  0.313E-04 0.214E-04 0.542E-05 ort(H,U,f) =-0.344E-04 0.335E-04-0.495E-05
CGA: 190    -0.220615524148E+03   -0.84685E-05   -0.82908E-05  5760   0.581E-04-0.587E-05
 gam= 0.776 trial= 0.314  step= 0.254 mean= 0.314
 gam= 1.293 g(H,U,f)=  0.335E-04 0.344E-04 0.722E-05 ort(H,U,f) =-0.141E-04 0.139E-04-0.199E-05
CGA: 191    -0.220615530919E+03   -0.67704E-05   -0.68114E-05  5760   0.751E-04-0.219E-05
 gam= 1.293 trial= 0.311  step= 0.346 mean= 0.311
 gam= 0.000 g(H,U,f)=  0.366E-04 0.227E-04 0.138E-05 ort(H,U,f) =-0.240E-04 0.229E-04 0.211E-05
SDA: 192    -0.220615543466E+03   -0.12547E-04   -0.12490E-04  5760   0.607E-04 0.962E-06
 gam= 0.000 trial= 0.313  step= 0.286 mean= 0.313
 gam= 0.736 g(H,U,f)=  0.127E-04 0.223E-04 0.971E-05 ort(H,U,f) = 0.937E-05-0.607E-05-0.245E-05
CGA: 193    -0.220615552111E+03   -0.86456E-05   -0.86852E-05  5760   0.447E-04 0.851E-06
 gam= 0.736 trial= 0.311  step= 0.207 mean= 0.311
 gam= 0.707 g(H,U,f)=  0.111E-04 0.182E-04 0.236E-05 ort(H,U,f) = 0.381E-05-0.675E-07-0.287E-05
CGA: 194    -0.220615556297E+03   -0.41862E-05   -0.46933E-05  5760   0.316E-04 0.867E-06
 gam= 0.707 trial= 0.306  step= 0.306 mean= 0.306
 gam= 0.801 g(H,U,f)=  0.755E-05 0.162E-04 0.155E-05 ort(H,U,f) =-0.173E-05 0.133E-05-0.429E-06
CGA: 195    -0.220615561228E+03   -0.49301E-05   -0.49299E-05  5760   0.253E-04-0.832E-06
 gam= 0.801 trial= 0.306  step= 0.284 mean= 0.306
 gam= 0.600 g(H,U,f)=  0.661E-05 0.781E-05 0.781E-06 ort(H,U,f) =-0.448E-05 0.479E-05-0.533E-06
CGA: 196    -0.220615564730E+03   -0.35020E-05   -0.35090E-05  5760   0.152E-04-0.229E-06
 gam= 0.600 trial= 0.305  step= 0.314 mean= 0.305
 gam= 1.296 g(H,U,f)=  0.442E-05 0.104E-04 0.483E-05 ort(H,U,f) =-0.129E-05 0.270E-05-0.401E-06
CGA: 197    -0.220615567095E+03   -0.23656E-05   -0.23624E-05  5760   0.197E-04 0.101E-05
 gam= 1.296 trial= 0.305  step= 0.197 mean= 0.305
 gam= 0.417 g(H,U,f)=  0.464E-05 0.350E-05 0.653E-07 ort(H,U,f) =-0.342E-05 0.525E-05-0.515E-07
CGA: 198    -0.220615568849E+03   -0.17536E-05   -0.20698E-05  5760   0.820E-05 0.178E-05
 gam= 0.417 trial= 0.300  step= 0.565 mean= 0.300
 gam= 1.307 g(H,U,f)=  0.274E-05 0.597E-05 0.201E-05 ort(H,U,f) =-0.182E-05 0.170E-05-0.968E-06
CGA: 199    -0.220615571365E+03   -0.25158E-05   -0.25263E-05  5760   0.107E-04-0.109E-05
 gam= 1.307 trial= 0.313  step= 0.202 mean= 0.313
 gam= 0.704 g(H,U,f)=  0.339E-05 0.359E-05 0.572E-06 ort(H,U,f) =-0.226E-05 0.252E-05-0.350E-06
CGA: 200    -0.220615572289E+03   -0.92397E-06   -0.93874E-06  5760   0.755E-05-0.943E-07
 gam= 0.704 trial= 0.308  step= 0.308 mean= 0.308
 gam= 1.351 g(H,U,f)=  0.317E-05 0.639E-05 0.642E-06 ort(H,U,f) =-0.133E-06 0.385E-06-0.379E-06
CGA: 201    -0.220615573443E+03   -0.11547E-05   -0.11547E-05  5760   0.102E-04-0.126E-06
 gam= 1.351 trial= 0.308  step= 0.352 mean= 0.308
 gam= 0.671 g(H,U,f)=  0.351E-05 0.327E-05 0.609E-07 ort(H,U,f) =-0.199E-05 0.160E-05-0.700E-07
CGA: 202    -0.220615575196E+03   -0.17530E-05   -0.17641E-05  5760   0.685E-05-0.455E-06
 gam= 0.671 trial= 0.310  step= 0.451 mean= 0.310
 gam= 0.855 g(H,U,f)=  0.228E-05 0.298E-05 0.584E-06 ort(H,U,f) =-0.118E-05 0.109E-05-0.119E-06
CGA: 203    -0.220615576666E+03   -0.14695E-05   -0.14742E-05  5760   0.585E-05-0.215E-06
 gam= 0.855 trial= 0.317  step= 0.304 mean= 0.317
 gam= 0.954 g(H,U,f)=  0.212E-05 0.298E-05 0.481E-06 ort(H,U,f) =-0.670E-06 0.103E-05-0.407E-06
CGA: 204    -0.220615577523E+03   -0.85742E-06   -0.86180E-06  5760   0.558E-05-0.432E-07
 gam= 0.954 trial= 0.316  step= 0.391 mean= 0.316
 gam= 1.366 g(H,U,f)=  0.226E-05 0.429E-05 0.108E-05 ort(H,U,f) =-0.129E-05 0.959E-06-0.168E-08
CGA: 205    -0.220615578591E+03   -0.10676E-05   -0.10837E-05  5760   0.763E-05-0.335E-06
 gam= 1.366 trial= 0.320  step= 0.203 mean= 0.320
 gam= 0.760 g(H,U,f)=  0.260E-05 0.302E-05 0.188E-06 ort(H,U,f) =-0.140E-05 0.177E-05-0.177E-06
CGA: 206    -0.220615579267E+03   -0.67595E-06   -0.72950E-06  5760   0.580E-05 0.193E-06
 gam= 0.760 trial= 0.314  step= 0.401 mean= 0.314
 gam= 0.704 g(H,U,f)=  0.224E-05 0.179E-05 0.557E-07 ort(H,U,f) =-0.136E-05 0.173E-05 0.980E-07
CGA: 207    -0.220615580480E+03   -0.12129E-05   -0.11937E-05  5760   0.409E-05 0.469E-06
 gam= 0.704 trial= 0.319  step= 0.423 mean= 0.319
 gam= 1.575 g(H,U,f)=  0.202E-05 0.392E-05 0.492E-06 ort(H,U,f) =-0.356E-06 0.624E-06 0.112E-06
CGA: 208    -0.220615581433E+03   -0.95326E-06   -0.93334E-06  5760   0.643E-05 0.380E-06
 gam= 1.575 trial= 0.324  step= 0.247 mean= 0.324
 final diagonalization
   1 F= -.23171598E+03 E0= -.23170885E+03  d E =-.142658E-01  mag=     6.0000
