 vasp.5.4.4.18Apr17-6-g9f103f2a35 (build Nov 22 2021 14:44:17) complex          
  
 executed on             LinuxIFC date 2022.08.08  12:15:50
 running on   64 total cores
 distrk:  each k-point on   64 cores,    1 groups
 distr:  one band on NCORES_PER_BAND=   4 cores,   16 groups


--------------------------------------------------------------------------------------------------------


 INCAR:
 POTCAR:    PAW_PBE Li 17Jan2003                  
 POTCAR:    PAW_PBE Co 02Aug2007                  
 POTCAR:    PAW_PBE O 08Apr2002                   
 POTCAR:    PAW_PBE Li 17Jan2003                  
   VRHFIN =Li: s1p0                                                             
   LEXCH  = PE                                                                  
   EATOM  =     5.3001 eV,    0.3895 Ry                                         
                                                                                
   TITEL  = PAW_PBE Li 17Jan2003                                                
   LULTRA =        F    use ultrasoft PP ?                                      
   IUNSCR =        1    unscreen: 0-lin 1-nonlin 2-no                           
   RPACOR =    1.500    partial core radius                                     
   POMASS =    7.010; ZVAL   =    1.000    mass and valenz                      
   RCORE  =    2.050    outmost cutoff radius                                   
   RWIGS  =    2.600; RWIGS  =    1.376    wigner-seitz radius (au A)           
   ENMAX  =  140.000; ENMIN  =  100.000 eV                                      
   ICORE  =        2    local potential                                         
   LCOR   =        T    correct aug charges                                     
   LPAW   =        T    paw PP                                                  
   EAUG   =  331.638                                                            
   DEXC   =    0.000                                                            
   RMAX   =    2.098    core radius for proj-oper                               
   RAUG   =    1.300    factor for augmentation sphere                          
   RDEP   =    2.094    radius for radial grids                                 
   RDEPT  =    1.810    core radius for aug-charge                              
                                                                                
   Atomic configuration                                                         
    4 entries                                                                   
     n  l   j            E        occ.                                          
     1  0  0.50       -51.8549   2.0000                                         
     2  0  0.50        -2.8742   1.0000                                         
     2  1  0.50        -1.3606   0.0000                                         
     3  2  1.50        -1.3606   0.0000                                         
   Description                                                                  
     l       E           TYP  RCUT    TYP  RCUT                                 
     0     -2.8742052     23  2.050                                             
     0     27.2116520     23  2.050                                             
     1     -1.3605826     23  2.050                                             
     2     -1.3605826     23  2.050                                             
  local pseudopotential read in
  partial core-charges read in
  partial kinetic energy density read in
  atomic valenz-charges read in
  non local Contribution for L=           0  read in
    real space projection operators read in
  non local Contribution for L=           0  read in
    real space projection operators read in
  non local Contribution for L=           1  read in
    real space projection operators read in
    PAW grid and wavefunctions read in
 
   number of l-projection  operators is LMAX  =           3
   number of lm-projection operators is LMMAX =           5
 
 POTCAR:    PAW_PBE Co 02Aug2007                  
   VRHFIN =Co: d8 s1                                                            
   LEXCH  = PE                                                                  
   EATOM  =   813.3670 eV,   59.7808 Ry                                         
                                                                                
   TITEL  = PAW_PBE Co 02Aug2007                                                
   LULTRA =        F    use ultrasoft PP ?                                      
   IUNSCR =        1    unscreen: 0-lin 1-nonlin 2-no                           
   RPACOR =    2.000    partial core radius                                     
   POMASS =   58.933; ZVAL   =    9.000    mass and valenz                      
   RCORE  =    2.300    outmost cutoff radius                                   
   RWIGS  =    2.460; RWIGS  =    1.302    wigner-seitz radius (au A)           
   ENMAX  =  267.968; ENMIN  =  200.976 eV                                      
   RCLOC  =    1.203    cutoff for local pot                                    
   LCOR   =        T    correct aug charges                                     
   LPAW   =        T    paw PP                                                  
   EAUG   =  477.818                                                            
   DEXC   =    0.000                                                            
   RMAX   =    2.360    core radius for proj-oper                               
   RAUG   =    1.300    factor for augmentation sphere                          
   RDEP   =    2.393    radius for radial grids                                 
   RDEPT  =    1.864    core radius for aug-charge                              
                                                                                
   Atomic configuration                                                         
    9 entries                                                                   
     n  l   j            E        occ.                                          
     1  0  0.50     -7587.6674   2.0000                                         
     2  0  0.50      -893.6084   2.0000                                         
     2  1  1.50      -764.5805   6.0000                                         
     3  0  0.50       -97.5973   2.0000                                         
     3  1  1.50       -60.9648   6.0000                                         
     3  2  2.50        -4.2382   8.0000                                         
     4  0  0.50        -4.3746   1.0000                                         
     4  1  1.50        -4.0817   0.0000                                         
     4  3  2.50        -1.3606   0.0000                                         
   Description                                                                  
     l       E           TYP  RCUT    TYP  RCUT                                 
     2     -4.2382362     23  2.300                                             
     2     -5.5988188     23  2.300                                             
     0     -4.3745797     23  2.300                                             
     0      5.7660125     23  2.300                                             
     1     -2.7211652     23  2.300                                             
     1     16.9860234     23  2.300                                             
  local pseudopotential read in
  partial core-charges read in
  partial kinetic energy density read in
  atomic valenz-charges read in
  non local Contribution for L=           2  read in
    real space projection operators read in
  non local Contribution for L=           2  read in
    real space projection operators read in
  non local Contribution for L=           0  read in
    real space projection operators read in
  non local Contribution for L=           0  read in
    real space projection operators read in
  non local Contribution for L=           1  read in
    real space projection operators read in
  non local Contribution for L=           1  read in
    real space projection operators read in
    PAW grid and wavefunctions read in
 
   number of l-projection  operators is LMAX  =           6
   number of lm-projection operators is LMMAX =          18
 
 POTCAR:    PAW_PBE O 08Apr2002                   
   VRHFIN =O: s2p4                                                              
   LEXCH  = PE                                                                  
   EATOM  =   432.3788 eV,   31.7789 Ry                                         
                                                                                
   TITEL  = PAW_PBE O 08Apr2002                                                 
   LULTRA =        F    use ultrasoft PP ?                                      
   IUNSCR =        1    unscreen: 0-lin 1-nonlin 2-no                           
   RPACOR =    1.200    partial core radius                                     
   POMASS =   16.000; ZVAL   =    6.000    mass and valenz                      
   RCORE  =    1.520    outmost cutoff radius                                   
   RWIGS  =    1.550; RWIGS  =    0.820    wigner-seitz radius (au A)           
   ENMAX  =  400.000; ENMIN  =  300.000 eV                                      
   ICORE  =        2    local potential                                         
   LCOR   =        T    correct aug charges                                     
   LPAW   =        T    paw PP                                                  
   EAUG   =  605.392                                                            
   DEXC   =    0.000                                                            
   RMAX   =    1.553    core radius for proj-oper                               
   RAUG   =    1.300    factor for augmentation sphere                          
   RDEP   =    1.550    radius for radial grids                                 
   RDEPT  =    1.329    core radius for aug-charge                              
                                                                                
   Atomic configuration                                                         
    4 entries                                                                   
     n  l   j            E        occ.                                          
     1  0  0.50      -514.6923   2.0000                                         
     2  0  0.50       -23.9615   2.0000                                         
     2  1  0.50        -9.0305   4.0000                                         
     3  2  1.50        -9.5241   0.0000                                         
   Description                                                                  
     l       E           TYP  RCUT    TYP  RCUT                                 
     0    -23.9615318     23  1.200                                             
     0     -9.5240782     23  1.200                                             
     1     -9.0304911     23  1.520                                             
     1      8.1634956     23  1.520                                             
     2     -9.5240782      7  1.500                                             
  local pseudopotential read in
  partial core-charges read in
  partial kinetic energy density read in
  kinetic energy density of atom read in
  atomic valenz-charges read in
  non local Contribution for L=           0  read in
    real space projection operators read in
  non local Contribution for L=           0  read in
    real space projection operators read in
  non local Contribution for L=           1  read in
    real space projection operators read in
  non local Contribution for L=           1  read in
    real space projection operators read in
    PAW grid and wavefunctions read in
 
   number of l-projection  operators is LMAX  =           4
   number of lm-projection operators is LMMAX =           8
 
 Optimization of the real space projectors (new method)

 maximal supplied QI-value         = 18.33
 optimisation between [QCUT,QGAM] = [ 12.46, 24.93] = [ 43.51,174.03] Ry 
 Optimized for a Real-space Cutoff    1.13 Angstroem

   l    n(q)    QCUT    max X(q) W(low)/X(q) W(high)/X(q)  e(spline) 
   0      8    12.465    33.825    0.12E-03    0.29E-03    0.99E-07
   0      8    12.465     8.944    0.86E-04    0.22E-03    0.72E-07
   1      8    12.465     4.214    0.27E-03    0.11E-03    0.82E-07
 Optimization of the real space projectors (new method)

 maximal supplied QI-value         = 16.25
 optimisation between [QCUT,QGAM] = [ 12.51, 25.03] = [ 43.85,175.40] Ry 
 Optimized for a Real-space Cutoff    1.31 Angstroem

   l    n(q)    QCUT    max X(q) W(low)/X(q) W(high)/X(q)  e(spline) 
   2      9    12.514    65.824    0.30E-03    0.46E-03    0.43E-06
   2      9    12.514    61.429    0.31E-03    0.46E-03    0.44E-06
   0     10    12.514    56.174    0.90E-04    0.33E-03    0.30E-06
   0     10    12.514    31.263    0.81E-04    0.30E-03    0.28E-06
   1      9    12.514    19.828    0.38E-03    0.65E-04    0.24E-06
   1      9    12.514    15.139    0.32E-03    0.60E-04    0.20E-06
 Optimization of the real space projectors (new method)

 maximal supplied QI-value         = 24.76
 optimisation between [QCUT,QGAM] = [ 12.38, 25.00] = [ 42.90,175.06] Ry 
 Optimized for a Real-space Cutoff    1.13 Angstroem

   l    n(q)    QCUT    max X(q) W(low)/X(q) W(high)/X(q)  e(spline) 
   0      8    12.378    20.381    0.16E-03    0.54E-05    0.27E-06
   0      8    12.378    15.268    0.17E-03    0.61E-05    0.29E-06
   1      8    12.378     5.964    0.38E-03    0.23E-03    0.28E-06
   1      8    12.378     5.382    0.33E-03    0.20E-03    0.25E-06
  PAW_PBE Li 17Jan2003                  :
 energy of atom  1       EATOM=   -5.3001
 kinetic energy error for atom=    0.0000 (will be added to EATOM!!)
  PAW_PBE Co 02Aug2007                  :
 energy of atom  2       EATOM= -813.3670
 kinetic energy error for atom=    0.0018 (will be added to EATOM!!)
  PAW_PBE O 08Apr2002                   :
 energy of atom  3       EATOM= -432.3788
 kinetic energy error for atom=    0.0168 (will be added to EATOM!!)
 
 
 POSCAR: Li6 Co12 O24                            
  positions in cartesian coordinates
  No initial velocities read in
 exchange correlation table for  LEXCH =        8
   RHO(1)=    0.500       N(1)  =     2000
   RHO(2)=  100.500       N(2)  =     4000
 


--------------------------------------------------------------------------------------------------------


 ion  position               nearest neighbor table
   1  0.494  0.993  0.013-  24 2.03  25 2.06  23 2.14  37 2.25  38 2.26  36 2.33  10 2.77   8 2.81
                             9 2.91  17 3.00  15 3.02  16 3.06
   2  0.795  0.641  0.342-  34 1.79  20 1.90  33 1.93  22 1.96  32 2.15  19 2.43  14 2.46   9 2.64
                            11 2.69  12 2.78   8 2.85  10 2.88
   3  0.155  0.321  0.676-  40 1.84  39 1.96  29 2.10  42 2.11  27 2.31  28 2.33  17 2.63  16 2.64
                             5 2.67   6 2.73  15 2.76   4 2.79   5 2.89   4 2.90   6 2.94  12 3.01
   4  0.193  0.849  0.664-  27 2.01  41 2.01  39 2.03  30 2.06  28 2.16  40 2.20  15 2.71   6 2.73
                             3 2.79   5 2.83   5 2.84  16 2.84   6 2.86  11 2.87   3 2.90  13 2.90
   5  0.690  0.352  0.674-  42 1.82  40 1.89  30 2.07  41 2.13  29 2.27  27 2.35   6 2.60  18 2.67
                             3 2.67  15 2.74  17 2.77   4 2.83   4 2.84   3 2.89  14 2.96  12 3.00
   6  0.650  0.789  0.671-  42 1.93  41 1.93  39 2.02  28 2.19  30 2.25  29 2.47   5 2.60  16 2.71
                             4 2.73   3 2.73  17 2.79  18 2.79   4 2.86  14 2.89   3 2.94  11 3.00
   7  0.155  0.366  0.182-  19 1.81  24 1.90  20 1.91  22 1.92  25 1.97  23 1.99   9 2.77   9 2.78
                             8 2.78  10 2.81  10 2.86   8 2.89
   8  0.152  0.874  0.179-  19 1.78  20 1.85  26 1.87  21 1.90  23 1.90  24 1.96  10 2.71   7 2.78
                             9 2.80   1 2.81   2 2.85  10 2.85   9 2.86   7 2.89
   9  0.654  0.362  0.178-  23 1.79  25 1.81  22 1.88  21 1.90  26 1.92  20 1.94   2 2.64   7 2.77
                             7 2.78   8 2.80  10 2.83  10 2.84   8 2.86   1 2.91
  10  0.662  0.868  0.182-  24 1.87  26 1.88  21 1.89  19 1.90  22 1.92  25 1.93   8 2.71   1 2.77
                             7 2.81   9 2.83   9 2.84   8 2.85   7 2.86   2 2.88
  11  0.010  0.986  0.493-  34 1.85  27 1.85  29 1.87  32 1.89  31 1.99  30 2.01   2 2.69  13 2.77
                            13 2.79  12 2.79  14 2.82  14 2.84   4 2.87  12 2.88   6 3.00   3 3.01
  12  0.014  0.480  0.488-  29 1.81  30 1.83  31 1.84  33 1.86  28 1.87  32 1.90  14 2.76   2 2.78
                            14 2.79  11 2.79  13 2.82  13 2.84  11 2.88   5 3.00   3 3.01   4 3.02
  13  0.510  0.988  0.484-  34 1.85  32 1.86  33 1.89  27 1.91  28 1.95  29 2.09  11 2.77  14 2.78
                            11 2.79  12 2.82  12 2.84  14 2.90   4 2.90   6 3.12   5 3.18
  14  0.517  0.482  0.492-  33 1.84  34 1.85  31 1.91  28 1.92  27 1.97  30 2.04   2 2.46  12 2.76
                            13 2.78  12 2.79  11 2.82  11 2.84   6 2.89  13 2.90   5 2.96   3 3.06
  15  0.332  0.148  0.829-  37 1.86  36 1.89  35 1.92  42 1.95  39 1.98  41 1.98   4 2.71   5 2.74
                             3 2.76  17 2.77  17 2.78  16 2.81  18 2.82  18 2.84  16 2.86   1 3.02
  16  0.313  0.643  0.829-  35 1.84  40 1.85  36 1.86  38 1.89  41 2.01  42 2.03   3 2.64   6 2.71
                            18 2.72  17 2.79  15 2.81   4 2.84  18 2.84  15 2.86  17 2.88   1 3.06
  17  0.828  0.144  0.829-  38 1.84  39 1.85  37 1.86  41 1.86  35 1.94  40 1.99   3 2.63   5 2.77
                            15 2.77  15 2.78  16 2.79   6 2.79  18 2.81  18 2.87  16 2.88   1 3.00
  18  0.827  0.649  0.836-  36 1.80  38 1.85  42 1.87  37 1.89  40 1.99  39 2.06   5 2.67  16 2.72
                             6 2.79  17 2.81  15 2.82  16 2.84  15 2.84  17 2.87   4 2.96
  19  0.007  0.049  0.245-   8 1.78   7 1.81  10 1.90   2 2.43
  20  0.996  0.556  0.248-   8 1.85   2 1.90   7 1.91   9 1.94
  21  0.485  0.035  0.249-  10 1.89   8 1.90   9 1.90
  22  0.494  0.534  0.251-   9 1.88   7 1.92  10 1.92   2 1.96
  23  0.346  0.199  0.108-   9 1.79   8 1.90   7 1.99   1 2.14
  24  0.335  0.694  0.112-  10 1.87   7 1.90   8 1.96   1 2.03
  25  0.810  0.196  0.109-   9 1.81  10 1.93   7 1.97   1 2.06
  26  0.825  0.698  0.110-   8 1.87  10 1.88   9 1.92
  27  0.332  0.139  0.563-  11 1.85  13 1.91  14 1.97   4 2.01   3 2.31   5 2.35
  28  0.339  0.657  0.559-  12 1.87  14 1.92  13 1.95   4 2.16   6 2.19   3 2.33
  29  0.873  0.183  0.563-  12 1.81  11 1.87  13 2.09   3 2.10   5 2.27   6 2.47
  30  0.873  0.644  0.569-  12 1.83  11 2.01  14 2.04   4 2.06   5 2.07   6 2.25
  31  0.189  0.327  0.418-  12 1.84  14 1.91  11 1.99
  32  0.173  0.812  0.420-  13 1.86  11 1.89  12 1.90   2 2.15
  33  0.686  0.326  0.420-  14 1.84  12 1.86  13 1.89   2 1.93
  34  0.681  0.807  0.428-   2 1.79  14 1.85  11 1.85  13 1.85
  35  0.168  0.330  0.900-  16 1.84  15 1.92  17 1.94
  36  0.152  0.819  0.897-  18 1.80  16 1.86  15 1.89   1 2.33
  37  0.658  0.309  0.898-  17 1.86  15 1.86  18 1.89   1 2.25
  38  0.653  0.823  0.895-  17 1.84  18 1.85  16 1.89   1 2.26
  39  0.992  0.990  0.752-  17 1.85   3 1.96  15 1.98   6 2.02   4 2.03  18 2.06
  40  0.003  0.485  0.753-   3 1.84  16 1.85   5 1.89  18 1.99  17 1.99   4 2.20
  41  0.516  0.983  0.752-  17 1.86   6 1.93  15 1.98  16 2.01   4 2.01   5 2.13
  42  0.522  0.484  0.756-   5 1.82  18 1.87   6 1.93  15 1.95  16 2.03   3 2.11
 

IMPORTANT INFORMATION: All symmetrisations will be switched off!
NOSYMM: (Re-)initialisation of all symmetry stuff for point group C_1.

 
 

Automatic generation of k-mesh.
 generate k-points for:    6    6    2
Space group operators:
 irot       det(A)        alpha          n_x          n_y          n_z        tau_x        tau_y        tau_z
    1     1.000000     0.000000     1.000000     0.000000     0.000000     0.000000     0.000000     0.000000
 
 Subroutine IBZKPT returns following result:
 ===========================================
 
 Found     36 irreducible k-points:
 
 Following reciprocal coordinates:
            Coordinates               Weight
  0.083333  0.083333  0.250000      2.000000
  0.250000  0.083333  0.250000      2.000000
  0.416667  0.083333  0.250000      2.000000
 -0.416667  0.083333  0.250000      2.000000
 -0.250000  0.083333  0.250000      2.000000
 -0.083333  0.083333  0.250000      2.000000
  0.083333  0.250000  0.250000      2.000000
  0.250000  0.250000  0.250000      2.000000
  0.416667  0.250000  0.250000      2.000000
 -0.416667  0.250000  0.250000      2.000000
 -0.250000  0.250000  0.250000      2.000000
 -0.083333  0.250000  0.250000      2.000000
  0.083333  0.416667  0.250000      2.000000
  0.250000  0.416667  0.250000      2.000000
  0.416667  0.416667  0.250000      2.000000
 -0.416667  0.416667  0.250000      2.000000
 -0.250000  0.416667  0.250000      2.000000
 -0.083333  0.416667  0.250000      2.000000
  0.083333 -0.416667  0.250000      2.000000
  0.250000 -0.416667  0.250000      2.000000
  0.416667 -0.416667  0.250000      2.000000
 -0.416667 -0.416667  0.250000      2.000000
 -0.250000 -0.416667  0.250000      2.000000
 -0.083333 -0.416667  0.250000      2.000000
  0.083333 -0.250000  0.250000      2.000000
  0.250000 -0.250000  0.250000      2.000000
  0.416667 -0.250000  0.250000      2.000000
 -0.416667 -0.250000  0.250000      2.000000
 -0.250000 -0.250000  0.250000      2.000000
 -0.083333 -0.250000  0.250000      2.000000
  0.083333 -0.083333  0.250000      2.000000
  0.250000 -0.083333  0.250000      2.000000
  0.416667 -0.083333  0.250000      2.000000
 -0.416667 -0.083333  0.250000      2.000000
 -0.250000 -0.083333  0.250000      2.000000
 -0.083333 -0.083333  0.250000      2.000000
 
 Following cartesian coordinates:
            Coordinates               Weight
  0.015007  0.025324  0.017925      2.000000
  0.045020  0.042228  0.017306      2.000000
  0.075033  0.059133  0.016687      2.000000
 -0.075033 -0.025390  0.019782      2.000000
 -0.045020 -0.008485  0.019163      2.000000
 -0.015007  0.008419  0.018544      2.000000
  0.015007  0.059066  0.018298      2.000000
  0.045020  0.075971  0.017679      2.000000
  0.075033  0.092875  0.017060      2.000000
 -0.075033  0.008353  0.020155      2.000000
 -0.045020  0.025257  0.019536      2.000000
 -0.015007  0.042162  0.018917      2.000000
  0.015007  0.092809  0.018671      2.000000
  0.045020  0.109714  0.018052      2.000000
  0.075033  0.126618  0.017433      2.000000
 -0.075033  0.042096  0.020528      2.000000
 -0.045020  0.059000  0.019909      2.000000
 -0.015007  0.075905  0.019290      2.000000
  0.015007 -0.075905  0.016806      2.000000
  0.045020 -0.059000  0.016187      2.000000
  0.075033 -0.042096  0.015568      2.000000
 -0.075033 -0.126618  0.018663      2.000000
 -0.045020 -0.109714  0.018044      2.000000
 -0.015007 -0.092809  0.017425      2.000000
  0.015007 -0.042162  0.017179      2.000000
  0.045020 -0.025257  0.016560      2.000000
  0.075033 -0.008353  0.015941      2.000000
 -0.075033 -0.092875  0.019036      2.000000
 -0.045020 -0.075971  0.018417      2.000000
 -0.015007 -0.059066  0.017798      2.000000
  0.015007 -0.008419  0.017552      2.000000
  0.045020  0.008485  0.016933      2.000000
  0.075033  0.025390  0.016314      2.000000
 -0.075033 -0.059133  0.019409      2.000000
 -0.045020 -0.042228  0.018790      2.000000
 -0.015007 -0.025324  0.018171      2.000000
 


--------------------------------------------------------------------------------------------------------




 Dimension of arrays:
   k-points           NKPTS =     36   k-points in BZ     NKDIM =     36   number of bands    NBANDS=    160
   number of dos      NEDOS =    301   number of ions     NIONS =     42
   non local maximal  LDIM  =      6   non local SUM 2l+1 LMDIM =     18
   total plane-waves  NPLWV = 108864
   max r-space proj   IRMAX =   2728   max aug-charges    IRDMAX=  11499
   dimension x,y,z NGX =    36 NGY =   36 NGZ =   84
   dimension x,y,z NGXF=    72 NGYF=   72 NGZF=  168
   support grid    NGXF=    72 NGYF=   72 NGZF=  168
   ions per type =               6  12  24
   NGX,Y,Z   is equivalent  to a cutoff of  10.78, 10.56, 10.08 a.u.
   NGXF,Y,Z  is equivalent  to a cutoff of  21.55, 21.11, 20.15 a.u.

 SYSTEM =  LiCoO2                                  
 POSCAR =  Li6 Co12 O24                            

 Startparameter for this run:
   NWRITE =      2    write-flag & timer
   PREC   = normal    normal or accurate (medium, high low for compatibility)
   ISTART =      0    job   : 0-new  1-cont  2-samecut
   ICHARG =      2    charge: 1-file 2-atom 10-const
   ISPIN  =      2    spin polarized calculation?
   LNONCOLLINEAR =      F non collinear calculations
   LSORBIT =      F    spin-orbit coupling
   INIWAV =      1    electr: 0-lowe 1-rand  2-diag
   LASPH  =      F    aspherical Exc in radial PAW
   METAGGA=      F    non-selfconsistent MetaGGA calc.

 Electronic Relaxation 1
   ENCUT  =  600.0 eV  44.10 Ry    6.64 a.u.  11.09 11.32 27.68*2*pi/ulx,y,z
   ENINI  =  600.0     initial cutoff
   ENAUG  =  605.4 eV  augmentation charge cutoff
   NELM   =    600;   NELMIN=  2; NELMDL= -5     # of ELM steps 
   EDIFF  = 0.1E-05   stopping-criterion for ELM
   LREAL  =      T    real-space projection
   NLSPLINE    = F    spline interpolate recip. space projectors
   LCOMPAT=      F    compatible to vasp.4.4
   GGA_COMPAT  = T    GGA compatible to vasp.4.4-vasp.4.6
   LMAXPAW     = -100 max onsite density
   LMAXMIX     =    2 max onsite mixed and CHGCAR
   VOSKOWN=      0    Vosko Wilk Nusair interpolation
   ROPT   =   -0.00050  -0.00050  -0.00050
 Ionic relaxation
   EDIFFG = 0.1E-04   stopping-criterion for IOM
   NSW    =      0    number of steps for IOM
   NBLOCK =      1;   KBLOCK =      1    inner block; outer block 
   IBRION =     -1    ionic relax: 0-MD 1-quasi-New 2-CG
   NFREE  =      0    steps in history (QN), initial steepest desc. (CG)
   ISIF   =      2    stress and relaxation
   IWAVPR =     10    prediction:  0-non 1-charg 2-wave 3-comb
   ISYM   =      0    0-nonsym 1-usesym 2-fastsym
   LCORR  =      T    Harris-Foulkes like correction to forces

   POTIM  = 0.5000    time-step for ionic-motion
   TEIN   =    0.0    initial temperature
   TEBEG  =    0.0;   TEEND  =   0.0 temperature during run
   SMASS  =  -3.00    Nose mass-parameter (am)
   estimated Nose-frequenzy (Omega)   =  0.10E-29 period in steps =****** mass=  -0.705E-27a.u.
   SCALEE = 1.0000    scale energy and forces
   NPACO  =    256;   APACO  = 16.0  distance and # of slots for P.C.
   PSTRESS=    0.0 pullay stress

  Mass of Ions in am
   POMASS =   7.01 58.93 16.00
  Ionic Valenz
   ZVAL   =   1.00  9.00  6.00
  Atomic Wigner-Seitz radii
   RWIGS  =  -1.00 -1.00 -1.00
  virtual crystal weights 
   VCA    =   1.00  1.00  1.00
   NELECT =     258.0000    total number of electrons
   NUPDOWN=       6.0000    fix difference up-down

 DOS related values:
   EMIN   =  10.00;   EMAX   =-10.00  energy-range for DOS
   EFERMI =   0.00
   ISMEAR =     0;   SIGMA  =   0.05  broadening in eV -4-tet -1-fermi 0-gaus

 Electronic relaxation 2 (details)
   IALGO  =     58    algorithm
   LDIAG  =      T    sub-space diagonalisation (order eigenvalues)
   LSUBROT=      F    optimize rotation matrix (better conditioning)
   TURBO    =      0    0=normal 1=particle mesh
   IRESTART =      0    0=no restart 2=restart with 2 vectors
   NREBOOT  =      0    no. of reboots
   NMIN     =      0    reboot dimension
   EREF     =   0.00    reference energy to select bands
   IMIX   =      4    mixing-type and parameters
     AMIX     =   0.40;   BMIX     =  1.00
     AMIX_MAG =   1.60;   BMIX_MAG =  1.00
     AMIN     =   0.10
     WC   =   100.;   INIMIX=   1;  MIXPRE=   1;  MAXMIX= -45

 Intra band minimization:
   WEIMIN = 0.0000     energy-eigenvalue tresh-hold
   EBREAK =  0.16E-08  absolut break condition
   DEPER  =   0.30     relativ break condition  

   TIME   =   0.40     timestep for ELM

  volume/ion in A,a.u.               =       9.05        61.05
  Fermi-wavevector in a.u.,A,eV,Ry     =   1.438942  2.719206 28.171589  2.070553
  Thomas-Fermi vector in A             =   2.557853
 
 Write flags
   LWAVE        =      F    write WAVECAR
   LDOWNSAMPLE  =      F    k-point downsampling of WAVECAR
   LCHARG       =      F    write CHGCAR
   LVTOT        =      F    write LOCPOT, total local potential
   LVHAR        =      F    write LOCPOT, Hartree potential only
   LELF         =      F    write electronic localiz. function (ELF)
   LORBIT       =     11    0 simple, 1 ext, 2 COOP (PROOUT), +10 PAW based schemes


 Dipole corrections
   LMONO  =      F    monopole corrections only (constant potential shift)
   LDIPOL =      F    correct potential (dipole corrections)
   IDIPOL =      0    1-x, 2-y, 3-z, 4-all directions 
   EPSILON=  1.0000000 bulk dielectric constant

 LDA+U is selected, type is set to LDAUTYPE =  2
   angular momentum for each species LDAUL =    -1    2   -1
   U (eV)           for each species LDAUU =   0.0  5.1  0.0
   J (eV)           for each species LDAUJ =   0.0  0.0  0.0
 Exchange correlation treatment:
   GGA     =    --    GGA type
   LEXCH   =     8    internal setting for exchange type
   VOSKOWN=      0    Vosko Wilk Nusair interpolation
   LHFCALC =     F    Hartree Fock is set to
   LHFONE  =     F    Hartree Fock one center treatment
   AEXX    =    0.0000 exact exchange contribution

 Linear response parameters
   LEPSILON=     F    determine dielectric tensor
   LRPA    =     F    only Hartree local field effects (RPA)
   LNABLA  =     F    use nabla operator in PAW spheres
   LVEL    =     F    velocity operator in full k-point grid
   LINTERFAST=   F  fast interpolation
   KINTER  =     0    interpolate to denser k-point grid
   CSHIFT  =0.1000    complex shift for real part using Kramers Kronig
   OMEGAMAX=  -1.0    maximum frequency
   DEG_THRESHOLD= 0.2000000E-02 threshold for treating states as degnerate
   RTIME   =   -0.100 relaxation time in fs
  (WPLASMAI=    0.000 imaginary part of plasma frequency in eV, 0.658/RTIME)
   DFIELD  = 0.0000000 0.0000000 0.0000000 field for delta impulse in time
 
 Orbital magnetization related:
   ORBITALMAG=     F  switch on orbital magnetization
   LCHIMAG   =     F  perturbation theory with respect to B field
   DQ        =  0.001000  dq finite difference perturbation B field
   LLRAUG    =     F  two centre corrections for induced B field



--------------------------------------------------------------------------------------------------------


 Static calculation
 charge density and potential will be updated during run
 spin polarized calculation
 Conjugate gradient for all bands (Freysoldt, et al. PRB 79, 241103 (2009))
 preconditioned conjugated gradient                                        
 perform sub-space diagonalisation
    before iterative eigenvector-optimisation
 modified Broyden-mixing scheme, WC =      100.0
 initial mixing is a Kerker type mixing with AMIX =  0.4000 and BMIX =      1.0000
 Hartree-type preconditioning will be used
 using additional bands           31
 real space projection scheme for non local part
 use partial core corrections
 no Harris-corrections to forces 
 use gradient corrections 
 use of overlap-Matrix (Vanderbilt PP)
 Gauss-broadening in eV      SIGMA  =   0.05


--------------------------------------------------------------------------------------------------------


  energy-cutoff  :      600.00
  volume of cell :      379.94
      direct lattice vectors                 reciprocal lattice vectors
     5.553121567  0.000000000  0.000000000     0.180078896  0.101426876 -0.003714037
    -2.782005787  4.939327240  0.000000000     0.000000000  0.202456722  0.002237541
     0.371914685 -0.153090522 13.851906776     0.000000000  0.000000000  0.072192227

  length of vectors
     5.553121567  5.668907283 13.857744354     0.206711427  0.202469086  0.072192227


 
 k-points in units of 2pi/SCALE and weight: read from INCAR                         
   0.01500657  0.02532363  0.01792502       0.028
   0.04501972  0.04222811  0.01730601       0.028
   0.07503287  0.05913259  0.01668700       0.028
  -0.07503287 -0.02538980  0.01978203       0.028
  -0.04501972 -0.00848533  0.01916303       0.028
  -0.01500657  0.00841915  0.01854402       0.028
   0.01500657  0.05906642  0.01829794       0.028
   0.04501972  0.07597090  0.01767893       0.028
   0.07503287  0.09287538  0.01705993       0.028
  -0.07503287  0.00835298  0.02015496       0.028
  -0.04501972  0.02525746  0.01953595       0.028
  -0.01500657  0.04216194  0.01891695       0.028
   0.01500657  0.09280921  0.01867086       0.028
   0.04501972  0.10971369  0.01805186       0.028
   0.07503287  0.12661817  0.01743285       0.028
  -0.07503287  0.04209577  0.02052788       0.028
  -0.04501972  0.05900025  0.01990887       0.028
  -0.01500657  0.07590473  0.01928987       0.028
   0.01500657 -0.07590473  0.01680625       0.028
   0.04501972 -0.05900025  0.01618724       0.028
   0.07503287 -0.04209577  0.01556823       0.028
  -0.07503287 -0.12661817  0.01866326       0.028
  -0.04501972 -0.10971369  0.01804426       0.028
  -0.01500657 -0.09280921  0.01742525       0.028
   0.01500657 -0.04216194  0.01717917       0.028
   0.04501972 -0.02525746  0.01656016       0.028
   0.07503287 -0.00835298  0.01594116       0.028
  -0.07503287 -0.09287538  0.01903619       0.028
  -0.04501972 -0.07597090  0.01841718       0.028
  -0.01500657 -0.05906642  0.01779817       0.028
   0.01500657 -0.00841915  0.01755209       0.028
   0.04501972  0.00848533  0.01693309       0.028
   0.07503287  0.02538980  0.01631408       0.028
  -0.07503287 -0.05913259  0.01940911       0.028
  -0.04501972 -0.04222811  0.01879010       0.028
  -0.01500657 -0.02532363  0.01817110       0.028
 
 k-points in reciprocal lattice and weights: read from INCAR                         
   0.08333333  0.08333333  0.25000000       0.028
   0.25000000  0.08333333  0.25000000       0.028
   0.41666667  0.08333333  0.25000000       0.028
  -0.41666667  0.08333333  0.25000000       0.028
  -0.25000000  0.08333333  0.25000000       0.028
  -0.08333333  0.08333333  0.25000000       0.028
   0.08333333  0.25000000  0.25000000       0.028
   0.25000000  0.25000000  0.25000000       0.028
   0.41666667  0.25000000  0.25000000       0.028
  -0.41666667  0.25000000  0.25000000       0.028
  -0.25000000  0.25000000  0.25000000       0.028
  -0.08333333  0.25000000  0.25000000       0.028
   0.08333333  0.41666667  0.25000000       0.028
   0.25000000  0.41666667  0.25000000       0.028
   0.41666667  0.41666667  0.25000000       0.028
  -0.41666667  0.41666667  0.25000000       0.028
  -0.25000000  0.41666667  0.25000000       0.028
  -0.08333333  0.41666667  0.25000000       0.028
   0.08333333 -0.41666667  0.25000000       0.028
   0.25000000 -0.41666667  0.25000000       0.028
   0.41666667 -0.41666667  0.25000000       0.028
  -0.41666667 -0.41666667  0.25000000       0.028
  -0.25000000 -0.41666667  0.25000000       0.028
  -0.08333333 -0.41666667  0.25000000       0.028
   0.08333333 -0.25000000  0.25000000       0.028
   0.25000000 -0.25000000  0.25000000       0.028
   0.41666667 -0.25000000  0.25000000       0.028
  -0.41666667 -0.25000000  0.25000000       0.028
  -0.25000000 -0.25000000  0.25000000       0.028
  -0.08333333 -0.25000000  0.25000000       0.028
   0.08333333 -0.08333333  0.25000000       0.028
   0.25000000 -0.08333333  0.25000000       0.028
   0.41666667 -0.08333333  0.25000000       0.028
  -0.41666667 -0.08333333  0.25000000       0.028
  -0.25000000 -0.08333333  0.25000000       0.028
  -0.08333333 -0.08333333  0.25000000       0.028
 
 position of ions in fractional coordinates (direct lattice) 
   0.49378124  0.99281938  0.01312671
   0.79529144  0.64109682  0.34200057
   0.15490134  0.32132860  0.67572500
   0.19278735  0.84885027  0.66352523
   0.69016047  0.35202449  0.67439954
   0.65048415  0.78936824  0.67109319
   0.15510837  0.36553327  0.18184284
   0.15241082  0.87384803  0.17892411
   0.65396309  0.36201957  0.17841153
   0.66181992  0.86761173  0.18190852
   0.01036826  0.98560819  0.49272423
   0.01440528  0.47990462  0.48805049
   0.50982261  0.98810133  0.48354281
   0.51747770  0.48201487  0.49218711
   0.33155069  0.14823654  0.82904398
   0.31253617  0.64284814  0.82942657
   0.82832310  0.14438377  0.82910898
   0.82650680  0.64931325  0.83624155
   0.00694909  0.04857380  0.24522688
   0.99603462  0.55606582  0.24789873
   0.48505980  0.03512954  0.24937073
   0.49367987  0.53390102  0.25143253
   0.34648955  0.19944045  0.10805155
   0.33484824  0.69417762  0.11215784
   0.81040645  0.19587318  0.10863992
   0.82546159  0.69824561  0.10950045
   0.33243721  0.13913900  0.56295498
   0.33887044  0.65730136  0.55899237
   0.87311695  0.18264859  0.56261569
   0.87330330  0.64429988  0.56866973
   0.18874282  0.32662551  0.41792442
   0.17329842  0.81191977  0.42038762
   0.68583159  0.32583019  0.42035224
   0.68072218  0.80700106  0.42754040
   0.16825147  0.33029000  0.90025437
   0.15235595  0.81912749  0.89678196
   0.65839562  0.30915908  0.89795148
   0.65290459  0.82285419  0.89473890
   0.99216370  0.98964977  0.75193547
   0.00335185  0.48467010  0.75324213
   0.51640684  0.98326924  0.75202931
   0.52154436  0.48362589  0.75574000
 
 position of ions in cartesian coordinates  (Angst):
  -0.01512000  4.90185022  0.18183000
   2.76001000  3.11422992  4.73736000
   0.21755999  1.48370004  9.36007977
  -1.04416001  4.09116983  9.19108963
   3.10402989  1.63551998  9.34171963
   1.66577995  3.79621005  9.29592037
  -0.08795000  1.77765000  2.51887012
  -1.51814997  4.28882980  2.47844005
   2.69074988  1.76082003  2.47133994
   1.32912004  4.25756979  2.51977992
  -2.50114012  4.79280996  6.82517004
  -1.07359004  2.29569006  6.76042986
   0.26203999  4.80653000  6.69798994
   1.71570003  2.30548000  6.81772995
   1.73707998  0.60527003 11.48383999
   0.25562000  3.04825997 11.48913956
   4.50646019  0.58622998 11.48474026
   3.09431005  3.07914996 11.58353996
  -0.00534000  0.20238000  3.39685988
   4.07632017  2.70864010  3.43387008
   2.68861008  0.13534001  3.45426011
   1.34966004  2.59861994  3.48282003
   1.40944004  0.96855998  1.49671996
  -0.03004000  3.41160011  1.55359995
   3.99576998  0.95085001  1.50487006
   2.68209004  3.43210006  1.51679003
   1.66834998  0.60106999  7.79799986
   0.26107001  3.16105008  7.74311018
   4.54964018  0.81603003  7.79330015
   3.26861000  3.09535003  7.87716007
   0.29486999  1.54933000  5.78905010
  -1.14006996  3.94598007  5.82317019
   3.05837989  1.54503000  5.82268000
   1.69405997  3.92058992  5.92224979
   0.35027000  1.49359000 12.47023964
  -1.09923995  3.90864992 12.42214012
   3.13002992  1.38957000 12.43834019
   1.66924000  3.92737007 12.39383984
   3.03605008  4.77308989 10.41574001
  -1.04960001  2.27863002 10.43383980
   0.41190001  4.74155998 10.41703987
   1.83182001  2.27308989 10.46844006
 


--------------------------------------------------------------------------------------------------------


 k-point  1 :   0.0833 0.0833 0.2500  plane waves:   12676
 k-point  2 :   0.2500 0.0833 0.2500  plane waves:   12680
 k-point  3 :   0.4167 0.0833 0.2500  plane waves:   12693
 k-point  4 :  -0.4167 0.0833 0.2500  plane waves:   12685
 k-point  5 :  -0.2500 0.0833 0.2500  plane waves:   12676
 k-point  6 :  -0.0833 0.0833 0.2500  plane waves:   12691
 k-point  7 :   0.0833 0.2500 0.2500  plane waves:   12661
 k-point  8 :   0.2500 0.2500 0.2500  plane waves:   12683
 k-point  9 :   0.4167 0.2500 0.2500  plane waves:   12679
 k-point 10 :  -0.4167 0.2500 0.2500  plane waves:   12697
 k-point 11 :  -0.2500 0.2500 0.2500  plane waves:   12669
 k-point 12 :  -0.0833 0.2500 0.2500  plane waves:   12666
 k-point 13 :   0.0833 0.4167 0.2500  plane waves:   12646
 k-point 14 :   0.2500 0.4167 0.2500  plane waves:   12685
 k-point 15 :   0.4167 0.4167 0.2500  plane waves:   12685
 k-point 16 :  -0.4167 0.4167 0.2500  plane waves:   12693
 k-point 17 :  -0.2500 0.4167 0.2500  plane waves:   12672
 k-point 18 :  -0.0833 0.4167 0.2500  plane waves:   12649
 k-point 19 :   0.0833-0.4167 0.2500  plane waves:   12651
 k-point 20 :   0.2500-0.4167 0.2500  plane waves:   12676
 k-point 21 :   0.4167-0.4167 0.2500  plane waves:   12699
 k-point 22 :  -0.4167-0.4167 0.2500  plane waves:   12682
 k-point 23 :  -0.2500-0.4167 0.2500  plane waves:   12681
 k-point 24 :  -0.0833-0.4167 0.2500  plane waves:   12661
 k-point 25 :   0.0833-0.2500 0.2500  plane waves:   12671
 k-point 26 :   0.2500-0.2500 0.2500  plane waves:   12695
 k-point 27 :   0.4167-0.2500 0.2500  plane waves:   12698
 k-point 28 :  -0.4167-0.2500 0.2500  plane waves:   12676
 k-point 29 :  -0.2500-0.2500 0.2500  plane waves:   12684
 k-point 30 :  -0.0833-0.2500 0.2500  plane waves:   12659
 k-point 31 :   0.0833-0.0833 0.2500  plane waves:   12696
 k-point 32 :   0.2500-0.0833 0.2500  plane waves:   12691
 k-point 33 :   0.4167-0.0833 0.2500  plane waves:   12684
 k-point 34 :  -0.4167-0.0833 0.2500  plane waves:   12699
 k-point 35 :  -0.2500-0.0833 0.2500  plane waves:   12687
 k-point 36 :  -0.0833-0.0833 0.2500  plane waves:   12682

 maximum and minimum number of plane-waves per node :      3216     3136

 maximum number of plane-waves:     12699
 maximum index in each direction: 
   IXMAX=   11   IYMAX=   11   IZMAX=   27
   IXMIN=  -11   IYMIN=  -11   IZMIN=  -27


 real space projection operators:
  total allocation   :       7271.81 KBytes
  max/ min on nodes  :       1820.98       1811.17


 parallel 3D FFT for wavefunctions:
    minimum data exchange during FFTs selected (reduces bandwidth)
 parallel 3D FFT for charge:
    minimum data exchange during FFTs selected (reduces bandwidth)


 total amount of memory used by VASP MPI-rank0   154868. kBytes
=======================================================================

   base      :      30000. kBytes
   nonlr-proj:       4148. kBytes
   fftplans  :       1579. kBytes
   grid      :       4337. kBytes
   one-center:        342. kBytes
   wavefun   :     114462. kBytes
 
     INWAV:  cpu time    0.0000: real time    0.0002
 Broyden mixing: mesh for mixing (old mesh)
   NGX = 23   NGY = 23   NGZ = 55
  (NGX  = 72   NGY  = 72   NGZ  =168)
  gives a total of  29095 points

 initial charge density was supplied:
 charge density of overlapping atoms calculated
 number of electron     258.0000000 magnetization       6.0000000
 keeping initial charge density in first step


--------------------------------------------------------------------------------------------------------


 Maximum index for non-local projection operator          663
 Maximum index for augmentation-charges          889 (set IRDMAX)


--------------------------------------------------------------------------------------------------------


 First call to EWALD:  gamma=   0.245
 Maximum number of real-space cells 4x 4x 2
 Maximum number of reciprocal cells 2x 2x 5

    FEWALD:  cpu time    0.0053: real time    0.0053


--------------------------------------- Iteration      1(   1)  ---------------------------------------


    POTLOK:  cpu time    0.0735: real time    0.0870
    SETDIJ:  cpu time    0.0186: real time    0.0192
    TRIAL :  cpu time   21.7167: real time   21.8135
    CORREC:  cpu time    0.0042: real time    0.0042
    --------------------------------------------
      LOOP:  cpu time   22.0128: real time   22.1248

 eigenvalue-minimisations  : 23040
 total energy-change (2. order) : 0.3506644E+04  (-0.1396536E+05)
 number of electron     258.0000000 magnetization       6.0000000
 augmentation part      258.0000000 magnetization       6.0000000

 Free energy of the ion-electron system (eV)
  ---------------------------------------------------
  alpha Z        PSCENC =       771.61412093
  Ewald energy   TEWEN  =    -14196.96505000
  -Hartree energ DENC   =     -6923.85119934
  -exchange      EXHF   =         0.00000000
  -V(xc)+E(xc)   XCENC  =       844.52093421
  PAW double counting   =     17015.18481625   -17491.61297812
  entropy T*S    EENTRO =        -0.00593178
  eigenvalues    EBANDS =      3318.88877628
  atomic energy  EATOM  =     20168.87094289
  ---------------------------------------------------
  free energy    TOTEN  =      3506.64443131 eV

  energy without entropy =     3506.65036309  energy(sigma->0) =     3506.64739720


--------------------------------------------------------------------------------------------------------




--------------------------------------- Iteration      1(   2)  ---------------------------------------


    TRIAL :  cpu time   22.0945: real time   22.3495
    CORREC:  cpu time    0.0044: real time    0.0045
    --------------------------------------------
      LOOP:  cpu time   22.1034: real time   22.3584

 eigenvalue-minimisations  : 24848
 total energy-change (2. order) :-0.3099819E+04  (-0.2856121E+04)
 number of electron     258.0000000 magnetization       6.0000000
 augmentation part      258.0000000 magnetization       6.0000000

 Free energy of the ion-electron system (eV)
  ---------------------------------------------------
  alpha Z        PSCENC =       771.61412093
  Ewald energy   TEWEN  =    -14196.96505000
  -Hartree energ DENC   =     -6923.85119934
  -exchange      EXHF   =         0.00000000
  -V(xc)+E(xc)   XCENC  =       844.52093421
  PAW double counting   =     17015.18481625   -17491.61297812
  entropy T*S    EENTRO =        -0.02147871
  eigenvalues    EBANDS =       219.08514241
  atomic energy  EATOM  =     20168.87094289
  ---------------------------------------------------
  free energy    TOTEN  =       406.82525051 eV

  energy without entropy =      406.84672922  energy(sigma->0) =      406.83598987


--------------------------------------------------------------------------------------------------------




--------------------------------------- Iteration      1(   3)  ---------------------------------------


    TRIAL :  cpu time   22.4510: real time   22.7020
    CORREC:  cpu time    0.0044: real time    0.0044
    --------------------------------------------
      LOOP:  cpu time   22.4594: real time   22.7104

 eigenvalue-minimisations  : 25232
 total energy-change (2. order) :-0.6278623E+03  (-0.5700302E+03)
 number of electron     258.0000000 magnetization       6.0000000
 augmentation part      258.0000000 magnetization       6.0000000

 Free energy of the ion-electron system (eV)
  ---------------------------------------------------
  alpha Z        PSCENC =       771.61412093
  Ewald energy   TEWEN  =    -14196.96505000
  -Hartree energ DENC   =     -6923.85119934
  -exchange      EXHF   =         0.00000000
  -V(xc)+E(xc)   XCENC  =       844.52093421
  PAW double counting   =     17015.18481625   -17491.61297812
  entropy T*S    EENTRO =        -0.02286916
  eigenvalues    EBANDS =      -408.77574910
  atomic energy  EATOM  =     20168.87094289
  ---------------------------------------------------
  free energy    TOTEN  =      -221.03703145 eV

  energy without entropy =     -221.01416229  energy(sigma->0) =     -221.02559687


--------------------------------------------------------------------------------------------------------




--------------------------------------- Iteration      1(   4)  ---------------------------------------


    TRIAL :  cpu time   22.3187: real time   22.5075
    CORREC:  cpu time    0.0035: real time    0.0035
    --------------------------------------------
      LOOP:  cpu time   22.3245: real time   22.5133

 eigenvalue-minimisations  : 25152
 total energy-change (2. order) :-0.5021496E+02  (-0.4929925E+02)
 number of electron     258.0000000 magnetization       6.0000000
 augmentation part      258.0000000 magnetization       6.0000000

 Free energy of the ion-electron system (eV)
  ---------------------------------------------------
  alpha Z        PSCENC =       771.61412093
  Ewald energy   TEWEN  =    -14196.96505000
  -Hartree energ DENC   =     -6923.85119934
  -exchange      EXHF   =         0.00000000
  -V(xc)+E(xc)   XCENC  =       844.52093421
  PAW double counting   =     17015.18481625   -17491.61297812
  entropy T*S    EENTRO =        -0.02417908
  eigenvalues    EBANDS =      -458.98939637
  atomic energy  EATOM  =     20168.87094289
  ---------------------------------------------------
  free energy    TOTEN  =      -271.25198865 eV

  energy without entropy =     -271.22780956  energy(sigma->0) =     -271.23989910


--------------------------------------------------------------------------------------------------------




--------------------------------------- Iteration      1(   5)  ---------------------------------------


    TRIAL :  cpu time   24.9883: real time   25.0657
    CORREC:  cpu time    0.0036: real time    0.0036
    CHARGE:  cpu time    0.4586: real time    0.4593
    --------------------------------------------
      LOOP:  cpu time   25.4548: real time   25.5329

 eigenvalue-minimisations  : 28720
 total energy-change (2. order) :-0.1709173E+01  (-0.1706423E+01)
 number of electron     258.0000065 magnetization       6.0000002
 augmentation part       68.0519452 magnetization       4.2856395

 Free energy of the ion-electron system (eV)
  ---------------------------------------------------
  alpha Z        PSCENC =       771.61412093
  Ewald energy   TEWEN  =    -14196.96505000
  -Hartree energ DENC   =     -6923.85119934
  -exchange      EXHF   =         0.00000000
  -V(xc)+E(xc)   XCENC  =       844.52093421
  PAW double counting   =     17015.18481625   -17491.61297812
  entropy T*S    EENTRO =        -0.02430898
  eigenvalues    EBANDS =      -460.69843955
  atomic energy  EATOM  =     20168.87094289
  ---------------------------------------------------
  free energy    TOTEN  =      -272.96116172 eV

  energy without entropy =     -272.93685274  energy(sigma->0) =     -272.94900723


--------------------------------------------------------------------------------------------------------




--------------------------------------- Iteration      1(   6)  ---------------------------------------


    POTLOK:  cpu time    0.0441: real time    0.0441
    SETDIJ:  cpu time    0.0124: real time    0.0124
    TRIAL :  cpu time   12.4458: real time   12.5324
    CORREC:  cpu time    4.2965: real time    4.3318
    CHARGE:  cpu time    0.4378: real time    0.4411
    --------------------------------------------
      LOOP:  cpu time   17.2406: real time   17.3660

 eigenvalue-minimisations  :     0
 total energy-change (2. order) : 0.4048795E+03  (-0.3275264E+03)
 number of electron     258.0000066 magnetization       6.0000004
 augmentation part       70.8900609 magnetization       4.4018704

 Free energy of the ion-electron system (eV)
  ---------------------------------------------------
  alpha Z        PSCENC =       771.61412093
  Ewald energy   TEWEN  =    -14196.96505000
  -Hartree energ DENC   =     -6670.55076323
  -exchange      EXHF   =         0.00000000
  -V(xc)+E(xc)   XCENC  =       879.03225161
  PAW double counting   =     23901.51888596   -24111.65519052
  entropy T*S    EENTRO =        -0.06970793
  eigenvalues    EBANDS =      -609.92258812
  atomic energy  EATOM  =     20168.87094289
  ---------------------------------------------------
  free energy    TOTEN  =       131.91830053 eV

  energy without entropy =      131.98800847  energy(sigma->0) =      131.95315450


--------------------------------------------------------------------------------------------------------




--------------------------------------- Iteration      1(   7)  ---------------------------------------


    POTLOK:  cpu time    0.0428: real time    0.0431
    SETDIJ:  cpu time    0.0123: real time    0.0124
    TRIAL :  cpu time   12.2411: real time   12.3797
    CORREC:  cpu time    4.3099: real time    4.3578
    CHARGE:  cpu time    0.4327: real time    0.4358
    --------------------------------------------
      LOOP:  cpu time   17.0429: real time   17.2329

 eigenvalue-minimisations  :     0
 total energy-change (2. order) :-0.6311463E+02  (-0.6864712E+03)
 number of electron     258.0000064 magnetization       5.9999999
 augmentation part       72.6021497 magnetization       4.3807081

 Free energy of the ion-electron system (eV)
  ---------------------------------------------------
  alpha Z        PSCENC =       771.61412093
  Ewald energy   TEWEN  =    -14196.96505000
  -Hartree energ DENC   =     -6671.66744780
  -exchange      EXHF   =         0.00000000
  -V(xc)+E(xc)   XCENC  =       868.84175492
  PAW double counting   =     23968.00873243   -24296.43807216
  entropy T*S    EENTRO =        -0.03625376
  eigenvalues    EBANDS =      -543.39160350
  atomic energy  EATOM  =     20168.87094289
  ---------------------------------------------------
  free energy    TOTEN  =        68.80366977 eV

  energy without entropy =       68.83992353  energy(sigma->0) =       68.82179665


--------------------------------------------------------------------------------------------------------




--------------------------------------- Iteration      1(   8)  ---------------------------------------


    POTLOK:  cpu time    0.0426: real time    0.0426
    SETDIJ:  cpu time    0.0122: real time    0.0122
    TRIAL :  cpu time   12.3476: real time   12.4111
    CORREC:  cpu time    4.3213: real time    4.3265
    CHARGE:  cpu time    0.4322: real time    0.4345
    --------------------------------------------
      LOOP:  cpu time   17.1573: real time   17.2284

 eigenvalue-minimisations  :     0
 total energy-change (2. order) :-0.9472304E+02  (-0.1089093E+03)
 number of electron     258.0000054 magnetization       6.0000008
 augmentation part       73.6504691 magnetization       4.3748514

 Free energy of the ion-electron system (eV)
  ---------------------------------------------------
  alpha Z        PSCENC =       771.61412093
  Ewald energy   TEWEN  =    -14196.96505000
  -Hartree energ DENC   =     -6803.49032837
  -exchange      EXHF   =         0.00000000
  -V(xc)+E(xc)   XCENC  =       864.04108409
  PAW double counting   =     24154.35799263   -24548.04397876
  entropy T*S    EENTRO =        -0.03478884
  eigenvalues    EBANDS =      -436.26790003
  atomic energy  EATOM  =     20168.87094289
  ---------------------------------------------------
  free energy    TOTEN  =       -25.91937040 eV

  energy without entropy =      -25.88458156  energy(sigma->0) =      -25.90197598


--------------------------------------------------------------------------------------------------------




--------------------------------------- Iteration      1(   9)  ---------------------------------------


    POTLOK:  cpu time    0.0416: real time    0.0418
    SETDIJ:  cpu time    0.0122: real time    0.0123
    TRIAL :  cpu time   12.1576: real time   12.2824
    CORREC:  cpu time    4.3595: real time    4.3896
    CHARGE:  cpu time    0.4399: real time    0.4429
    --------------------------------------------
      LOOP:  cpu time   17.0148: real time   17.1729

 eigenvalue-minimisations  :     0
 total energy-change (2. order) :-0.1176333E+03  (-0.7837932E+01)
 number of electron     258.0000056 magnetization       6.0000006
 augmentation part       73.8484291 magnetization       4.3478952

 Free energy of the ion-electron system (eV)
  ---------------------------------------------------
  alpha Z        PSCENC =       771.61412093
  Ewald energy   TEWEN  =    -14196.96505000
  -Hartree energ DENC   =     -6817.86891388
  -exchange      EXHF   =         0.00000000
  -V(xc)+E(xc)   XCENC  =       858.82931425
  PAW double counting   =     24202.56049467   -24634.06407566
  entropy T*S    EENTRO =        -0.04752198
  eigenvalues    EBANDS =      -496.49470379
  atomic energy  EATOM  =     20168.87094289
  ---------------------------------------------------
  free energy    TOTEN  =      -143.55265944 eV

  energy without entropy =     -143.50513746  energy(sigma->0) =     -143.52889845


--------------------------------------------------------------------------------------------------------




--------------------------------------- Iteration      1(  10)  ---------------------------------------


    POTLOK:  cpu time    0.0425: real time    0.0427
    SETDIJ:  cpu time    0.0122: real time    0.0122
    TRIAL :  cpu time   12.2648: real time   12.3924
    CORREC:  cpu time    4.3016: real time    4.3318
    CHARGE:  cpu time    0.4333: real time    0.4365
    --------------------------------------------
      LOOP:  cpu time   17.0586: real time   17.2198

 eigenvalue-minimisations  :     0
 total energy-change (2. order) :-0.2491704E+02  (-0.2934853E+02)
 number of electron     258.0000062 magnetization       6.0000000
 augmentation part       74.0930015 magnetization       4.3352458

 Free energy of the ion-electron system (eV)
  ---------------------------------------------------
  alpha Z        PSCENC =       771.61412093
  Ewald energy   TEWEN  =    -14196.96505000
  -Hartree energ DENC   =     -6772.50652286
  -exchange      EXHF   =         0.00000000
  -V(xc)+E(xc)   XCENC  =       857.89273362
  PAW double counting   =     24202.61192693   -24641.11287122
  entropy T*S    EENTRO =        -0.04256795
  eigenvalues    EBANDS =      -558.82745967
  atomic energy  EATOM  =     20168.87094289
  ---------------------------------------------------
  free energy    TOTEN  =      -168.46970137 eV

  energy without entropy =     -168.42713342  energy(sigma->0) =     -168.44841740


--------------------------------------------------------------------------------------------------------




--------------------------------------- Iteration      1(  11)  ---------------------------------------


    POTLOK:  cpu time    0.0435: real time    0.0437
    SETDIJ:  cpu time    0.0122: real time    0.0122
    TRIAL :  cpu time   14.1917: real time   14.2680
    CORREC:  cpu time    4.5517: real time    4.5580
    CHARGE:  cpu time    0.4312: real time    0.4316
    --------------------------------------------
      LOOP:  cpu time   19.2345: real time   19.3178

 eigenvalue-minimisations  :     0
 total energy-change (2. order) :-0.1306804E+02  (-0.2822692E+02)
 number of electron     258.0000059 magnetization       6.0000001
 augmentation part       75.2225627 magnetization       4.2947485

 Free energy of the ion-electron system (eV)
  ---------------------------------------------------
  alpha Z        PSCENC =       771.61412093
  Ewald energy   TEWEN  =    -14196.96505000
  -Hartree energ DENC   =     -6664.07577945
  -exchange      EXHF   =         0.00000000
  -V(xc)+E(xc)   XCENC  =       857.10030857
  PAW double counting   =     24229.74664407   -24677.90330639
  entropy T*S    EENTRO =        -0.03545634
  eigenvalues    EBANDS =      -669.88304906
  atomic energy  EATOM  =     20168.87094289
  ---------------------------------------------------
  free energy    TOTEN  =      -181.53773641 eV

  energy without entropy =     -181.50228006  energy(sigma->0) =     -181.52000823


--------------------------------------------------------------------------------------------------------




--------------------------------------- Iteration      1(  12)  ---------------------------------------


    POTLOK:  cpu time    0.0430: real time    0.0430
    SETDIJ:  cpu time    0.0147: real time    0.0147
    TRIAL :  cpu time   12.3317: real time   12.3501
    CORREC:  cpu time    4.3485: real time    4.3541
    CHARGE:  cpu time    0.4385: real time    0.4390
    --------------------------------------------
      LOOP:  cpu time   17.1805: real time   17.2050

 eigenvalue-minimisations  :     0
 total energy-change (2. order) :-0.8142864E+01  (-0.3837019E+02)
 number of electron     258.0000057 magnetization       6.0000002
 augmentation part       76.8375617 magnetization       4.1039677

 Free energy of the ion-electron system (eV)
  ---------------------------------------------------
  alpha Z        PSCENC =       771.61412093
  Ewald energy   TEWEN  =    -14196.96505000
  -Hartree energ DENC   =     -6762.09546148
  -exchange      EXHF   =         0.00000000
  -V(xc)+E(xc)   XCENC  =       854.16921935
  PAW double counting   =     24417.55921224   -24913.63158494
  entropy T*S    EENTRO =        -0.02181713
  eigenvalues    EBANDS =      -529.16654345
  atomic energy  EATOM  =     20168.87094289
  ---------------------------------------------------
  free energy    TOTEN  =      -189.68060081 eV

  energy without entropy =     -189.65878368  energy(sigma->0) =     -189.66969225


--------------------------------------------------------------------------------------------------------




--------------------------------------- Iteration      1(  13)  ---------------------------------------


    POTLOK:  cpu time    0.0421: real time    0.0422
    SETDIJ:  cpu time    0.0122: real time    0.0122
    TRIAL :  cpu time   12.2434: real time   12.2964
    CORREC:  cpu time    4.3233: real time    4.3381
    CHARGE:  cpu time    0.4293: real time    0.4323
    --------------------------------------------
      LOOP:  cpu time   17.0545: real time   17.1252

 eigenvalue-minimisations  :     0
 total energy-change (2. order) :-0.7998215E+01  (-0.1100724E+02)
 number of electron     258.0000055 magnetization       6.0000002
 augmentation part       76.8519062 magnetization       4.0633331

 Free energy of the ion-electron system (eV)
  ---------------------------------------------------
  alpha Z        PSCENC =       771.61412093
  Ewald energy   TEWEN  =    -14196.96505000
  -Hartree energ DENC   =     -6926.17645851
  -exchange      EXHF   =         0.00000000
  -V(xc)+E(xc)   XCENC  =       850.67702049
  PAW double counting   =     24653.57665470   -25212.04710710
  entropy T*S    EENTRO =        -0.02543499
  eigenvalues    EBANDS =      -307.20712193
  atomic energy  EATOM  =     20168.87094289
  ---------------------------------------------------
  free energy    TOTEN  =      -197.67881568 eV

  energy without entropy =     -197.65338069  energy(sigma->0) =     -197.66609818


--------------------------------------------------------------------------------------------------------




--------------------------------------- Iteration      1(  14)  ---------------------------------------


    POTLOK:  cpu time    0.0433: real time    0.0437
    SETDIJ:  cpu time    0.0122: real time    0.0122
    TRIAL :  cpu time   12.3321: real time   12.4609
    CORREC:  cpu time    4.2949: real time    4.3281
    CHARGE:  cpu time    0.4296: real time    0.4327
    --------------------------------------------
      LOOP:  cpu time   17.1165: real time   17.2823

 eigenvalue-minimisations  :     0
 total energy-change (2. order) :-0.9879155E+01  (-0.5329247E+01)
 number of electron     258.0000056 magnetization       6.0000002
 augmentation part       76.1303444 magnetization       4.0695825

 Free energy of the ion-electron system (eV)
  ---------------------------------------------------
  alpha Z        PSCENC =       771.61412093
  Ewald energy   TEWEN  =    -14196.96505000
  -Hartree energ DENC   =     -6908.77742250
  -exchange      EXHF   =         0.00000000
  -V(xc)+E(xc)   XCENC  =       850.01896258
  PAW double counting   =     24550.92228923   -25104.78860654
  entropy T*S    EENTRO =        -0.02393322
  eigenvalues    EBANDS =      -338.42777267
  atomic energy  EATOM  =     20168.87094289
  ---------------------------------------------------
  free energy    TOTEN  =      -207.55797108 eV

  energy without entropy =     -207.53403787  energy(sigma->0) =     -207.54600447


--------------------------------------------------------------------------------------------------------




--------------------------------------- Iteration      1(  15)  ---------------------------------------


    POTLOK:  cpu time    0.0421: real time    0.0424
    SETDIJ:  cpu time    0.0121: real time    0.0122
    TRIAL :  cpu time   12.3674: real time   12.4955
    CORREC:  cpu time    4.2836: real time    4.3160
    CHARGE:  cpu time    0.4337: real time    0.4365
    --------------------------------------------
      LOOP:  cpu time   17.1431: real time   17.3073

 eigenvalue-minimisations  :     0
 total energy-change (2. order) :-0.5979861E+01  (-0.4765853E+01)
 number of electron     258.0000056 magnetization       6.0000002
 augmentation part       75.2511114 magnetization       4.0631351

 Free energy of the ion-electron system (eV)
  ---------------------------------------------------
  alpha Z        PSCENC =       771.61412093
  Ewald energy   TEWEN  =    -14196.96505000
  -Hartree energ DENC   =     -6852.32680010
  -exchange      EXHF   =         0.00000000
  -V(xc)+E(xc)   XCENC  =       850.54281333
  PAW double counting   =     24304.07762704   -24821.03980692
  entropy T*S    EENTRO =        -0.02153141
  eigenvalues    EBANDS =      -438.28774626
  atomic energy  EATOM  =     20168.87094289
  ---------------------------------------------------
  free energy    TOTEN  =      -213.53783232 eV

  energy without entropy =     -213.51630090  energy(sigma->0) =     -213.52706661


--------------------------------------------------------------------------------------------------------




--------------------------------------- Iteration      1(  16)  ---------------------------------------


    POTLOK:  cpu time    0.0434: real time    0.0437
    SETDIJ:  cpu time    0.0122: real time    0.0122
    TRIAL :  cpu time   12.2463: real time   12.3789
    CORREC:  cpu time    4.3316: real time    4.3642
    CHARGE:  cpu time    0.4324: real time    0.4355
    --------------------------------------------
      LOOP:  cpu time   17.0701: real time   17.2388

 eigenvalue-minimisations  :     0
 total energy-change (2. order) :-0.3485571E+01  (-0.1208944E+01)
 number of electron     258.0000056 magnetization       6.0000002
 augmentation part       74.9920952 magnetization       4.0558545

 Free energy of the ion-electron system (eV)
  ---------------------------------------------------
  alpha Z        PSCENC =       771.61412093
  Ewald energy   TEWEN  =    -14196.96505000
  -Hartree energ DENC   =     -6830.10540423
  -exchange      EXHF   =         0.00000000
  -V(xc)+E(xc)   XCENC  =       851.44927180
  PAW double counting   =     24059.85329219   -24532.04007279
  entropy T*S    EENTRO =        -0.02195026
  eigenvalues    EBANDS =      -509.67897284
  atomic energy  EATOM  =     20168.87094289
  ---------------------------------------------------
  free energy    TOTEN  =      -217.02340347 eV

  energy without entropy =     -217.00145320  energy(sigma->0) =     -217.01242833


--------------------------------------------------------------------------------------------------------




--------------------------------------- Iteration      1(  17)  ---------------------------------------


    POTLOK:  cpu time    0.0448: real time    0.0452
    SETDIJ:  cpu time    0.0123: real time    0.0123
    TRIAL :  cpu time   12.3169: real time   12.4472
    CORREC:  cpu time    4.4508: real time    4.4846
    CHARGE:  cpu time    0.4312: real time    0.4343
    --------------------------------------------
      LOOP:  cpu time   17.2602: real time   17.4278

 eigenvalue-minimisations  :     0
 total energy-change (2. order) :-0.1161795E+01  (-0.6215252E+00)
 number of electron     258.0000056 magnetization       6.0000002
 augmentation part       75.1554898 magnetization       4.0276475

 Free energy of the ion-electron system (eV)
  ---------------------------------------------------
  alpha Z        PSCENC =       771.61412093
  Ewald energy   TEWEN  =    -14196.96505000
  -Hartree energ DENC   =     -6823.61559097
  -exchange      EXHF   =         0.00000000
  -V(xc)+E(xc)   XCENC  =       851.86987758
  PAW double counting   =     23978.89848102   -24435.76064675
  entropy T*S    EENTRO =        -0.02145140
  eigenvalues    EBANDS =      -533.07538288
  atomic energy  EATOM  =     20168.87094289
  ---------------------------------------------------
  free energy    TOTEN  =      -218.18519844 eV

  energy without entropy =     -218.16374704  energy(sigma->0) =     -218.17447274


--------------------------------------------------------------------------------------------------------




--------------------------------------- Iteration      1(  18)  ---------------------------------------


    POTLOK:  cpu time    0.0420: real time    0.0423
    SETDIJ:  cpu time    0.0122: real time    0.0123
    TRIAL :  cpu time   12.0841: real time   12.2087
    CORREC:  cpu time    4.3943: real time    4.4232
    CHARGE:  cpu time    0.4314: real time    0.4342
    --------------------------------------------
      LOOP:  cpu time   16.9681: real time   17.1247

 eigenvalue-minimisations  :     0
 total energy-change (2. order) :-0.6843241E+00  (-0.8142736E+00)
 number of electron     258.0000057 magnetization       6.0000001
 augmentation part       75.6059960 magnetization       3.9645882

 Free energy of the ion-electron system (eV)
  ---------------------------------------------------
  alpha Z        PSCENC =       771.61412093
  Ewald energy   TEWEN  =    -14196.96505000
  -Hartree energ DENC   =     -6829.72445310
  -exchange      EXHF   =         0.00000000
  -V(xc)+E(xc)   XCENC  =       852.22066339
  PAW double counting   =     23964.27489486   -24422.79152001
  entropy T*S    EENTRO =        -0.02063839
  eigenvalues    EBANDS =      -526.34767010
  atomic energy  EATOM  =     20168.87094289
  ---------------------------------------------------
  free energy    TOTEN  =      -218.86952255 eV

  energy without entropy =     -218.84888416  energy(sigma->0) =     -218.85920335


--------------------------------------------------------------------------------------------------------




--------------------------------------- Iteration      1(  19)  ---------------------------------------


    POTLOK:  cpu time    0.0423: real time    0.0425
    SETDIJ:  cpu time    0.0121: real time    0.0122
    TRIAL :  cpu time   12.2454: real time   12.3086
    CORREC:  cpu time    4.2842: real time    4.3254
    CHARGE:  cpu time    0.4250: real time    0.4290
    --------------------------------------------
      LOOP:  cpu time   17.0132: real time   17.1219

 eigenvalue-minimisations  :     0
 total energy-change (2. order) :-0.7505320E+00  (-0.6724048E+00)
 number of electron     258.0000057 magnetization       6.0000001
 augmentation part       76.1063258 magnetization       3.8884172

 Free energy of the ion-electron system (eV)
  ---------------------------------------------------
  alpha Z        PSCENC =       771.61412093
  Ewald energy   TEWEN  =    -14196.96505000
  -Hartree energ DENC   =     -6857.11203663
  -exchange      EXHF   =         0.00000000
  -V(xc)+E(xc)   XCENC  =       852.80579404
  PAW double counting   =     23969.37923900   -24437.59036809
  entropy T*S    EENTRO =        -0.01885177
  eigenvalues    EBANDS =      -490.60205827
  atomic energy  EATOM  =     20168.87094289
  ---------------------------------------------------
  free energy    TOTEN  =      -219.62005453 eV

  energy without entropy =     -219.60120276  energy(sigma->0) =     -219.61062865


--------------------------------------------------------------------------------------------------------




--------------------------------------- Iteration      1(  20)  ---------------------------------------


    POTLOK:  cpu time    0.0421: real time    0.0425
    SETDIJ:  cpu time    0.0124: real time    0.0124
    TRIAL :  cpu time   12.1966: real time   12.3408
    CORREC:  cpu time    4.3239: real time    4.3422
    CHARGE:  cpu time    0.4340: real time    0.4378
    --------------------------------------------
      LOOP:  cpu time   17.0130: real time   17.1799

 eigenvalue-minimisations  :     0
 total energy-change (2. order) :-0.6469397E+00  (-0.3149543E+00)
 number of electron     258.0000057 magnetization       6.0000001
 augmentation part       76.1857265 magnetization       3.8599721

 Free energy of the ion-electron system (eV)
  ---------------------------------------------------
  alpha Z        PSCENC =       771.61412093
  Ewald energy   TEWEN  =    -14196.96505000
  -Hartree energ DENC   =     -6892.51287461
  -exchange      EXHF   =         0.00000000
  -V(xc)+E(xc)   XCENC  =       853.35183802
  PAW double counting   =     23974.70078067   -24453.16690428
  entropy T*S    EENTRO =        -0.01755083
  eigenvalues    EBANDS =      -446.14099608
  atomic energy  EATOM  =     20168.87094289
  ---------------------------------------------------
  free energy    TOTEN  =      -220.26699424 eV

  energy without entropy =     -220.24944341  energy(sigma->0) =     -220.25821882


--------------------------------------------------------------------------------------------------------




--------------------------------------- Iteration      1(  21)  ---------------------------------------


    POTLOK:  cpu time    0.0419: real time    0.0422
    SETDIJ:  cpu time    0.0121: real time    0.0122
    TRIAL :  cpu time   12.2597: real time   12.3524
    CORREC:  cpu time    4.2695: real time    4.2869
    CHARGE:  cpu time    0.4343: real time    0.4357
    --------------------------------------------
      LOOP:  cpu time   17.0215: real time   17.1334

 eigenvalue-minimisations  :     0
 total energy-change (2. order) :-0.2873824E+00  (-0.3510412E+00)
 number of electron     258.0000057 magnetization       6.0000000
 augmentation part       76.0573537 magnetization       3.8422734

 Free energy of the ion-electron system (eV)
  ---------------------------------------------------
  alpha Z        PSCENC =       771.61412093
  Ewald energy   TEWEN  =    -14196.96505000
  -Hartree energ DENC   =     -6895.28286184
  -exchange      EXHF   =         0.00000000
  -V(xc)+E(xc)   XCENC  =       853.49852469
  PAW double counting   =     23952.70516031   -24429.54993819
  entropy T*S    EENTRO =        -0.01643806
  eigenvalues    EBANDS =      -445.42772454
  atomic energy  EATOM  =     20168.87094289
  ---------------------------------------------------
  free energy    TOTEN  =      -220.55437660 eV

  energy without entropy =     -220.53793854  energy(sigma->0) =     -220.54615757


--------------------------------------------------------------------------------------------------------




--------------------------------------- Iteration      1(  22)  ---------------------------------------


    POTLOK:  cpu time    0.0426: real time    0.0428
    SETDIJ:  cpu time    0.0121: real time    0.0122
    TRIAL :  cpu time   12.4072: real time   12.4705
    CORREC:  cpu time    4.2890: real time    4.3143
    CHARGE:  cpu time    0.4328: real time    0.4368
    --------------------------------------------
      LOOP:  cpu time   17.1878: real time   17.2806

 eigenvalue-minimisations  :     0
 total energy-change (2. order) :-0.3533187E+00  (-0.1590845E+00)
 number of electron     258.0000058 magnetization       5.9999999
 augmentation part       75.9654549 magnetization       3.8471646

 Free energy of the ion-electron system (eV)
  ---------------------------------------------------
  alpha Z        PSCENC =       771.61412093
  Ewald energy   TEWEN  =    -14196.96505000
  -Hartree energ DENC   =     -6884.95000087
  -exchange      EXHF   =         0.00000000
  -V(xc)+E(xc)   XCENC  =       853.54058694
  PAW double counting   =     23896.24730998   -24362.18640042
  entropy T*S    EENTRO =        -0.01543587
  eigenvalues    EBANDS =      -467.06276671
  atomic energy  EATOM  =     20168.87094289
  ---------------------------------------------------
  free energy    TOTEN  =      -220.90769533 eV

  energy without entropy =     -220.89225947  energy(sigma->0) =     -220.89997740


--------------------------------------------------------------------------------------------------------




--------------------------------------- Iteration      1(  23)  ---------------------------------------


    POTLOK:  cpu time    0.0465: real time    0.0469
    SETDIJ:  cpu time    0.0123: real time    0.0124
    TRIAL :  cpu time   12.2256: real time   12.3152
    CORREC:  cpu time    4.4410: real time    4.4549
    CHARGE:  cpu time    0.4285: real time    0.4312
    --------------------------------------------
      LOOP:  cpu time   17.1582: real time   17.2648

 eigenvalue-minimisations  :     0
 total energy-change (2. order) :-0.1546387E+00  (-0.1291248E+00)
 number of electron     258.0000059 magnetization       5.9999998
 augmentation part       75.9502198 magnetization       3.8614850

 Free energy of the ion-electron system (eV)
  ---------------------------------------------------
  alpha Z        PSCENC =       771.61412093
  Ewald energy   TEWEN  =    -14196.96505000
  -Hartree energ DENC   =     -6880.34242156
  -exchange      EXHF   =         0.00000000
  -V(xc)+E(xc)   XCENC  =       853.51936466
  PAW double counting   =     23872.57088181   -24332.72101511
  entropy T*S    EENTRO =        -0.01429694
  eigenvalues    EBANDS =      -477.59372179
  atomic energy  EATOM  =     20168.87094289
  ---------------------------------------------------
  free energy    TOTEN  =      -221.06233404 eV

  energy without entropy =     -221.04803711  energy(sigma->0) =     -221.05518557


--------------------------------------------------------------------------------------------------------




--------------------------------------- Iteration      1(  24)  ---------------------------------------


    POTLOK:  cpu time    0.0424: real time    0.0425
    SETDIJ:  cpu time    0.0123: real time    0.0123
    TRIAL :  cpu time   12.0274: real time   12.1713
    CORREC:  cpu time    4.3875: real time    4.4306
    CHARGE:  cpu time    0.4305: real time    0.4346
    --------------------------------------------
      LOOP:  cpu time   16.9042: real time   17.0954

 eigenvalue-minimisations  :     0
 total energy-change (2. order) :-0.1242785E+00  (-0.2571920E+00)
 number of electron     258.0000061 magnetization       5.9999996
 augmentation part       76.0782236 magnetization       3.9133521

 Free energy of the ion-electron system (eV)
  ---------------------------------------------------
  alpha Z        PSCENC =       771.61412093
  Ewald energy   TEWEN  =    -14196.96505000
  -Hartree energ DENC   =     -6879.74238604
  -exchange      EXHF   =         0.00000000
  -V(xc)+E(xc)   XCENC  =       853.50221908
  PAW double counting   =     23868.99921753   -24327.47792387
  entropy T*S    EENTRO =        -0.01035340
  eigenvalues    EBANDS =      -479.97345612
  atomic energy  EATOM  =     20168.87094289
  ---------------------------------------------------
  free energy    TOTEN  =      -221.18661254 eV

  energy without entropy =     -221.17625914  energy(sigma->0) =     -221.18143584


--------------------------------------------------------------------------------------------------------




--------------------------------------- Iteration      1(  25)  ---------------------------------------


    POTLOK:  cpu time    0.0415: real time    0.0419
    SETDIJ:  cpu time    0.0123: real time    0.0124
    TRIAL :  cpu time   12.1057: real time   12.1794
    CORREC:  cpu time    4.3928: real time    4.4112
    CHARGE:  cpu time    0.4303: real time    0.4319
    --------------------------------------------
      LOOP:  cpu time   16.9867: real time   17.0809

 eigenvalue-minimisations  :     0
[...]
   20        1.574   3.421   0.000   4.995
   21        1.586   3.350   0.000   4.937
   22        1.575   3.402   0.000   4.977
   23        1.577   3.397   0.000   4.974
   24        1.574   3.395   0.000   4.969
   25        1.576   3.395   0.000   4.971
   26        1.586   3.350   0.000   4.936
   27        1.560   3.465   0.000   5.025
   28        1.561   3.456   0.000   5.017
   29        1.566   3.450   0.000   5.015
   30        1.564   3.446   0.000   5.010
   31        1.589   3.327   0.000   4.916
   32        1.579   3.387   0.000   4.966
   33        1.572   3.437   0.000   5.009
   34        1.569   3.472   0.000   5.041
   35        1.580   3.349   0.000   4.930
   36        1.567   3.434   0.000   5.001
   37        1.571   3.409   0.000   4.980
   38        1.570   3.417   0.000   4.987
   39        1.555   3.489   0.000   5.043
   40        1.555   3.509   0.000   5.064
   41        1.555   3.487   0.000   5.042
   42        1.551   3.517   0.000   5.068
--------------------------------------------------
tot         43.736  92.108  87.681 223.525
 


 magnetization (x)
 
# of ion       s       p       d       tot
------------------------------------------
    1        0.001   0.000   0.000   0.001
    2        0.001   0.001   0.000   0.002
    3        0.001   0.000   0.000   0.001
    4        0.000  -0.001   0.000  -0.000
    5        0.001  -0.000   0.000   0.001
    6        0.001  -0.000   0.000   0.000
    7        0.004   0.006   0.003   0.013
    8        0.013   0.017   1.275   1.304
    9        0.012   0.015   1.263   1.290
   10        0.014   0.018   1.360   1.392
   11        0.014   0.014   1.549   1.577
   12        0.009   0.014   1.191   1.213
   13        0.004   0.004  -0.008  -0.000
   14        0.004   0.005   0.005   0.014
   15        0.002   0.001  -0.006  -0.003
   16        0.001   0.002  -0.031  -0.028
   17        0.010   0.009   1.325   1.343
   18        0.002   0.002  -0.033  -0.030
   19        0.001  -0.075   0.000  -0.074
   20        0.000  -0.094   0.000  -0.093
   21        0.001  -0.157   0.000  -0.156
   22        0.000  -0.109   0.000  -0.108
   23        0.001  -0.095   0.000  -0.095
   24        0.000  -0.112   0.000  -0.112
   25        0.000  -0.109   0.000  -0.108
   26        0.001  -0.143   0.000  -0.141
   27        0.000  -0.040   0.000  -0.040
   28        0.000  -0.027   0.000  -0.027
   29        0.001  -0.061   0.000  -0.060
   30        0.002  -0.056   0.000  -0.055
   31        0.001  -0.190   0.000  -0.189
   32        0.001  -0.132   0.000  -0.131
   33        0.000  -0.044   0.000  -0.044
   34        0.000  -0.052   0.000  -0.051
   35        0.000  -0.101   0.000  -0.101
   36       -0.001  -0.021   0.000  -0.022
   37        0.000  -0.061   0.000  -0.061
   38       -0.000  -0.088   0.000  -0.088
   39        0.001  -0.010   0.000  -0.009
   40        0.000  -0.031   0.000  -0.031
   41        0.001  -0.022   0.000  -0.022
   42       -0.001  -0.010   0.000  -0.011
--------------------------------------------------
tot          0.105  -1.736   7.892   6.260
 
    FORLOC:  cpu time    0.0079: real time    0.0079
    FORNL :  cpu time    4.0591: real time    4.0734
    STRESS:  cpu time   12.2196: real time   12.2482
    FORCOR:  cpu time    0.0458: real time    0.0458
    OFIELD:  cpu time    0.0003: real time    0.0003

  DFT-D2 method for vdW energy calculation
  -------------------------------------------------------------------

  Parameters of vdW forcefield:
         C6(Jnm^6/mol)     R0(A)
   -----------------------------
   Li       1.610          0.825
   Co      10.800          1.562
   O        0.700          1.342

  IVDW =   1
  VDW_RADIUS =    50.000 A
  VDW_S6 =     0.750
  VDW_SR =     1.000
  VDW_D =    20.000
  LVDW_EWALD = F

  Number of pair interactions contributing to vdW energy: 1244213
  Edisp (eV):  -10.05802
    FORVDW:  cpu time    0.1794: real time    0.1805

  FORCE on cell =-STRESS in cart. coord.  units (eV):
  Direction    XX          YY          ZZ          XY          YZ          ZX
  --------------------------------------------------------------------------------------
  Alpha Z   771.61412   771.61412   771.61412
  Ewald   -1808.78924 -1833.69482-10554.54870   -27.85847   119.55871   -17.33158
  Hartree  4445.61949  4444.88086 -2021.06800    -6.76334    38.93104    -6.70748
  E(xc)   -1286.70370 -1286.88885 -1287.90491     0.03457     0.37078     0.13843
  Local   -7600.57697 -7593.40476  7551.65226    32.20077  -141.86513    25.50430
  n-local  -586.63280  -593.20535  -598.48546    -0.69694     3.52810    -0.76753
  augment  2012.15745  2027.09716  2003.04522     0.84447    -8.46659    -1.23789
  Kinetic  4071.65883  4069.54590  4153.13418     1.51909   -11.13890    -3.14132
  Fock        0.00000     0.00000     0.00000     0.00000     0.00000     0.00000
  vdW        -7.03160    -6.80631   -14.11288     0.24391     0.21216     0.03065
  -------------------------------------------------------------------------------------
  Total      11.31558    -0.86204     3.32582    -0.47592     1.13018    -3.51241
  in kB      47.71695    -3.63517    14.02476    -2.00692     4.76588   -14.81159
  external pressure =       19.37 kB  Pullay stress =        0.00 kB


 VOLUME and BASIS-vectors are now :
 -----------------------------------------------------------------------------
  energy-cutoff  :      600.00
  volume of cell :      379.94
      direct lattice vectors                 reciprocal lattice vectors
     5.553121567  0.000000000  0.000000000     0.180078896  0.101426876 -0.003714037
    -2.782005787  4.939327240  0.000000000     0.000000000  0.202456722  0.002237541
     0.371914685 -0.153090522 13.851906776     0.000000000  0.000000000  0.072192227

  length of vectors
     5.553121567  5.668907283 13.857744354     0.206711427  0.202469086  0.072192227


 FORCES acting on ions:
    Electron-Ion                     Ewald-Force                    Non-Local-Force
 -----------------------------------------------------------------------------------------------
   0.764E+00 0.185E+01 0.178E+02   -.684E+00 -.184E+01 -.177E+02   -.159E+00 0.414E-01 -.773E+00
   -.156E+01 -.397E+01 0.139E+02   0.139E+01 0.369E+01 -.140E+02   0.648E+00 0.302E+00 -.626E+00
   -.702E+01 -.152E+01 0.558E+01   0.656E+01 0.138E+01 -.506E+01   0.104E+01 0.540E-01 -.133E+01
   -.190E+01 0.271E+00 -.105E+02   0.182E+01 -.167E+00 0.104E+02   0.883E-01 -.395E+00 0.617E-01
   0.203E+01 0.613E+01 0.726E+01   -.211E+01 -.567E+01 -.647E+01   0.354E+00 -.111E+01 -.163E+01
   0.476E+00 -.889E-02 0.720E+01   -.584E+00 -.287E-01 -.613E+01   0.240E+00 0.270E+00 -.149E+01
   0.172E+02 -.996E+01 0.217E+03   -.170E+02 0.117E+02 -.218E+03   0.311E+00 -.308E+00 -.921E+00
   -.222E+02 0.166E+02 0.239E+03   0.243E+02 -.174E+02 -.239E+03   0.460E+00 0.108E+00 -.510E+00
   -.215E+02 -.253E+02 0.185E+03   0.218E+02 0.260E+02 -.185E+03   0.194E+00 0.416E+00 0.817E+00
   -.702E+00 -.658E+01 0.172E+03   -.276E+00 0.615E+01 -.172E+03   0.332E+00 0.290E+00 0.272E+00
   0.234E+02 0.306E+01 -.803E+02   -.227E+02 -.249E+01 0.793E+02   0.162E+00 -.499E+00 0.276E+00
   -.127E+01 0.323E+01 -.265E+02   0.197E+01 -.227E+01 0.256E+02   -.146E+00 0.533E+00 -.101E+00
   -.352E+02 -.174E+02 -.495E+02   0.349E+02 0.167E+02 0.483E+02   0.821E+00 0.463E+00 0.272E+01
   -.819E+00 0.648E+00 -.138E+03   -.928E+00 -.111E+01 0.138E+03   0.707E+00 0.338E+00 0.170E+01
   0.221E+02 0.699E+01 -.109E+03   -.226E+02 -.635E+01 0.112E+03   -.112E-01 -.290E+00 -.272E+01
   -.242E+02 -.530E+01 -.109E+03   0.252E+02 0.558E+01 0.112E+03   0.130E+01 0.975E+00 -.282E+01
   -.209E+02 -.260E+02 -.144E+03   0.211E+02 0.265E+02 0.146E+03   0.213E-01 0.841E+00 -.983E+00
   -.157E+01 -.744E+01 -.166E+03   0.115E+01 0.703E+01 0.168E+03   0.498E+00 0.446E+00 -.340E+01
   0.255E+02 -.497E+01 -.186E+03   -.267E+02 0.746E+01 0.212E+03   -.701E-01 -.356E+01 -.247E+02
   -.107E+02 0.170E+02 -.159E+03   0.144E+02 -.186E+02 0.179E+03   -.413E+01 0.517E+00 -.204E+02
   -.127E+02 0.370E+01 -.183E+03   0.119E+02 -.367E+01 0.208E+03   0.935E+00 0.136E+00 -.253E+02
   0.130E+02 -.923E+01 -.169E+03   -.174E+02 0.819E+01 0.190E+03   0.443E+01 0.127E+01 -.211E+02
   0.392E+02 -.144E+01 0.453E+03   -.448E+02 0.344E+01 -.476E+03   0.433E+01 -.246E+01 0.233E+02
   0.104E+02 0.158E+02 0.434E+03   -.113E+02 -.205E+02 -.454E+03   0.369E+00 0.531E+01 0.201E+02
   -.396E+02 -.350E+00 0.439E+03   0.449E+02 0.157E+01 -.461E+03   -.420E+01 -.160E+01 0.226E+02
   -.734E+00 0.475E+01 0.452E+03   0.170E+00 -.673E+01 -.478E+03   0.531E+00 0.206E+01 0.261E+02
   -.183E+02 -.194E+02 -.360E+03   0.205E+02 0.212E+02 0.376E+03   -.182E+01 -.835E+00 -.159E+02
   -.338E+02 -.224E+02 -.360E+03   0.340E+02 0.243E+02 0.375E+03   0.574E+00 -.179E+01 -.139E+02
   0.275E+02 0.442E+02 -.357E+03   -.311E+02 -.467E+02 0.374E+03   0.259E+01 0.845E+00 -.170E+02
   0.440E+02 -.153E+02 -.357E+03   -.447E+02 0.170E+02 0.372E+03   -.141E+01 -.141E+01 -.146E+02
   -.114E+02 0.227E+02 0.261E+03   0.136E+02 -.252E+02 -.287E+03   -.201E+01 0.190E+01 0.262E+02
   0.140E+01 -.876E+01 0.258E+03   -.524E+00 0.896E+01 -.282E+03   -.125E+01 -.338E+00 0.235E+02
   -.193E+01 0.222E+02 0.257E+03   0.211E+01 -.262E+02 -.280E+03   0.417E+00 0.365E+01 0.232E+02
   0.550E+01 -.152E+02 0.238E+03   -.924E+01 0.164E+02 -.258E+03   0.409E+01 -.314E+00 0.199E+02
   -.588E+01 0.119E+02 -.386E+03   0.660E+01 -.127E+02 0.412E+03   -.129E+01 -.327E+00 -.265E+02
   -.308E+01 -.177E+02 -.387E+03   0.310E+01 0.191E+02 0.410E+03   0.905E+00 -.871E+00 -.227E+02
   0.228E+01 -.945E+01 -.384E+03   -.273E+01 0.119E+02 0.407E+03   0.675E+00 -.283E+01 -.222E+02
   0.354E+01 0.644E+01 -.385E+03   -.428E+01 -.852E+01 0.407E+03   0.403E+00 0.226E+01 -.210E+02
   -.256E+02 0.157E+02 0.215E+03   0.274E+02 -.195E+02 -.227E+03   -.950E+00 0.335E+01 0.124E+02
   0.927E+01 -.121E+00 0.216E+03   -.126E+02 0.104E+01 -.228E+03   0.269E+01 -.125E+01 0.127E+02
   0.210E+02 0.150E+02 0.227E+03   -.220E+02 -.164E+02 -.239E+03   -.172E+00 0.106E+01 0.120E+02
   0.231E+02 0.329E+01 0.218E+03   -.246E+02 -.331E+01 -.228E+03   -.340E+00 -.334E+00 0.953E+01
 -----------------------------------------------------------------------------------------------
   -.121E+02 -.691E+01 0.250E+02   -.462E-13 -.457E-13 0.341E-12   0.121E+02 0.692E+01 -.250E+02
 
 
 POSITION                                       TOTAL-FORCE (eV/Angst)
 -----------------------------------------------------------------------------------
     -0.01512      4.90185      0.18183        -0.094478      0.019506     -0.752072
      2.76001      3.11423      4.73736         0.437118      0.143891     -0.850596
      0.21756      1.48370      9.36008         0.470685     -0.022489     -0.607969
     -1.04416      4.09117      9.19109         0.026196     -0.243945      0.064307
      3.10403      1.63552      9.34172         0.171081     -0.506433     -0.546836
      1.66578      3.79621      9.29592         0.113949      0.165070     -0.236028
     -0.08795      1.77765      2.51887         0.581418      1.311318     -1.399855
     -1.51815      4.28883      2.47844         2.274522     -0.617783     -0.830482
      2.69075      1.76082      2.47134         0.379905      0.958059      0.510109
      1.32912      4.25757      2.51978        -0.644546     -0.188068     -0.126859
     -2.50114      4.79281      6.82517         0.863146      0.012579     -0.538650
     -1.07359      2.29569      6.76043         0.484445      1.403849     -0.798705
      0.26204      4.80653      6.69799         0.308117     -0.350498      1.522450
      1.71570      2.30548      6.81773        -1.026419     -0.091096      1.210359
      1.73708      0.60527     11.48384        -0.422002      0.369611     -0.250717
      0.25562      3.04826     11.48914         2.050468      1.151095     -0.116842
      4.50646      0.58623     11.48474         0.083771      1.150730      0.816342
      3.09431      3.07915     11.58354         0.025311      0.015889     -1.496037
     -0.00534      0.20238      3.39686        -1.334288     -1.123120      1.129558
      4.07632      2.70864      3.43387        -0.417372     -1.087169     -0.152246
      2.68861      0.13534      3.45426         0.152673      0.178825     -0.349702
      1.34966      2.59862      3.48282        -0.011554      0.212904     -0.446368
      1.40944      0.96856      1.49672        -1.395687     -0.426801     -0.075271
     -0.03004      3.41160      1.55360        -0.587411      0.511092      0.099556
      3.99577      0.95085      1.50487         1.193564     -0.321646      0.291935
      2.68209      3.43210      1.51679        -0.021914      0.089428      0.149302
      1.66835      0.60107      7.79800         0.359435      1.106541      0.082746
      0.26107      3.16105      7.74311         0.798425      0.106441      0.762098
      4.54964      0.81603      7.79330        -1.096937     -1.762659      0.540964
      3.26861      3.09535      7.87716        -2.224289      0.302180      0.077895
      0.29487      1.54933      5.78905         0.210453     -0.640346      0.741818
     -1.14007      3.94598      5.82317        -0.296805     -0.082464      0.015288
      3.05838      1.54503      5.82268         0.603270     -0.468914      0.041406
      1.69406      3.92059      5.92225         0.311953      0.880252     -0.361470
      0.35027      1.49359     12.47024        -0.565953     -1.145174     -0.633032
     -1.09924      3.90865     12.42214         0.940928      0.579924      0.936799
      3.13003      1.38957     12.43834         0.217811     -0.358735      0.553090
      1.66924      3.92737     12.39384        -0.324046      0.177134      1.228448
      3.03605      4.77309     10.41574         0.949858     -0.465678      0.084297
     -1.04960      2.27863     10.43384        -0.595134     -0.308715      0.247542
      0.41190      4.74156     10.41704        -1.209556     -0.267368     -0.274684
      1.83182      2.27309     10.46844        -1.740108     -0.367217     -0.261887
 -----------------------------------------------------------------------------------
    total drift:                                0.009772      0.001858     -0.020750


--------------------------------------------------------------------------------------------------------



  FREE ENERGIE OF THE ION-ELECTRON SYSTEM (eV)
  ---------------------------------------------------
  free  energy   TOTEN  =      -233.99219004 eV

  energy  without entropy=     -233.98613268  energy(sigma->0) =     -233.98916136
 


--------------------------------------------------------------------------------------------------------


    POTLOK:  cpu time    0.0711: real time    0.0711


--------------------------------------------------------------------------------------------------------


     LOOP+:  cpu time 2512.0484: real time 2526.7714
    4ORBIT:  cpu time    0.0000: real time    0.0000
 


 total charge     
 
# of ion       s       p       d       tot
------------------------------------------
    1        0.071   0.142   0.000   0.213
    2        0.127   0.286   0.000   0.413
    3        0.106   0.229   0.000   0.335
    4        0.096   0.203   0.000   0.299
    5        0.114   0.248   0.000   0.362
    6        0.100   0.212   0.000   0.312
    7        0.425   0.661   7.331   8.417
    8        0.481   0.783   7.258   8.522
    9        0.483   0.789   7.259   8.531
   10        0.460   0.731   7.214   8.404
   11        0.453   0.714   7.223   8.390
   12        0.497   0.837   7.288   8.622
   13        0.424   0.646   7.337   8.407
   14        0.434   0.671   7.391   8.497
   15        0.423   0.644   7.362   8.429
   16        0.443   0.683   7.403   8.529
   17        0.469   0.750   7.246   8.465
   18        0.441   0.691   7.368   8.501
   19        1.579   3.427   0.000   5.006
   20        1.574   3.421   0.000   4.995
   21        1.586   3.350   0.000   4.937
   22        1.575   3.402   0.000   4.977
   23        1.577   3.397   0.000   4.974
   24        1.574   3.395   0.000   4.969
   25        1.576   3.395   0.000   4.971
   26        1.586   3.350   0.000   4.936
   27        1.560   3.465   0.000   5.025
   28        1.561   3.456   0.000   5.017
   29        1.566   3.450   0.000   5.015
   30        1.564   3.446   0.000   5.010
   31        1.589   3.327   0.000   4.916
   32        1.579   3.387   0.000   4.966
   33        1.572   3.437   0.000   5.009
   34        1.569   3.472   0.000   5.041
   35        1.580   3.349   0.000   4.930
   36        1.567   3.434   0.000   5.001
   37        1.571   3.409   0.000   4.980
   38        1.570   3.417   0.000   4.987
   39        1.555   3.489   0.000   5.043
   40        1.555   3.509   0.000   5.064
   41        1.555   3.487   0.000   5.042
   42        1.551   3.517   0.000   5.068
--------------------------------------------------
tot         43.736  92.108  87.681 223.525
 


 magnetization (x)
 
# of ion       s       p       d       tot
------------------------------------------
    1        0.001   0.000   0.000   0.001
    2        0.001   0.001   0.000   0.002
    3        0.001   0.000   0.000   0.001
    4        0.000  -0.001   0.000  -0.000
    5        0.001  -0.000   0.000   0.001
    6        0.001  -0.000   0.000   0.000
    7        0.004   0.006   0.003   0.013
    8        0.013   0.017   1.275   1.304
    9        0.012   0.015   1.263   1.290
   10        0.014   0.018   1.360   1.392
   11        0.014   0.014   1.549   1.577
   12        0.009   0.014   1.191   1.213
   13        0.004   0.004  -0.008  -0.000
   14        0.004   0.005   0.005   0.014
   15        0.002   0.001  -0.006  -0.003
   16        0.001   0.002  -0.031  -0.028
   17        0.010   0.009   1.325   1.343
   18        0.002   0.002  -0.033  -0.030
   19        0.001  -0.075   0.000  -0.074
   20        0.000  -0.094   0.000  -0.093
   21        0.001  -0.157   0.000  -0.156
   22        0.000  -0.109   0.000  -0.108
   23        0.001  -0.095   0.000  -0.095
   24        0.000  -0.112   0.000  -0.112
   25        0.000  -0.109   0.000  -0.108
   26        0.001  -0.143   0.000  -0.141
   27        0.000  -0.040   0.000  -0.040
   28        0.000  -0.027   0.000  -0.027
   29        0.001  -0.061   0.000  -0.060
   30        0.002  -0.056   0.000  -0.055
   31        0.001  -0.190   0.000  -0.189
   32        0.001  -0.132   0.000  -0.131
   33        0.000  -0.044   0.000  -0.044
   34        0.000  -0.052   0.000  -0.051
   35        0.000  -0.101   0.000  -0.101
   36       -0.001  -0.021   0.000  -0.022
   37        0.000  -0.061   0.000  -0.061
   38       -0.000  -0.088   0.000  -0.088
   39        0.001  -0.010   0.000  -0.009
   40        0.000  -0.031   0.000  -0.031
   41        0.001  -0.022   0.000  -0.022
   42       -0.001  -0.010   0.000  -0.011
--------------------------------------------------
tot          0.105  -1.736   7.892   6.260
 

 total amount of memory used by VASP MPI-rank0   154868. kBytes
=======================================================================

   base      :      30000. kBytes
   nonlr-proj:       4148. kBytes
   fftplans  :       1579. kBytes
   grid      :       4337. kBytes
   one-center:        342. kBytes
   wavefun   :     114462. kBytes
 
  
  
 General timing and accounting informations for this job:
 ========================================================
  
                  Total CPU time used (sec):     2537.089
                            User time (sec):     2226.900
                          System time (sec):      310.189
                         Elapsed time (sec):     2552.479
  
                   Maximum memory used (kb):      735512.
                   Average memory used (kb):           0.
  
                          Minor page faults:        69818
                          Major page faults:           80
                 Voluntary context switches:          658
