 running on   64 total cores
 distrk:  each k-point on   64 cores,    1 groups
 distr:  one band on    4 cores,   16 groups
 using from now: INCAR     
 vasp.5.4.4.18Apr17-6-g9f103f2a35 (build Nov 22 2021 14:44:17) complex          
  
 POSCAR found type information on POSCAR  Li Co O 
 POSCAR found :  3 types and      42 ions
 scaLAPACK will be used
 LDA part: xc-table for Pade appr. of Perdew
 generate k-points for:    6    6    2
 POSCAR, INCAR and KPOINTS ok, starting setup
 FFT: planning ...
 WAVECAR not read
 entering main loop
       N       E                     dE             d eps       ncg     rms          ort
DAV:   1     0.353891384077E+04    0.35389E+04   -0.14029E+05  5760   0.225E+03
DAV:   2     0.405934066396E+03   -0.31330E+04   -0.28871E+04  5760   0.553E+02
DAV:   3    -0.220392382127E+03   -0.62633E+03   -0.56426E+03  5760   0.257E+02
DAV:   4    -0.270498472968E+03   -0.50106E+02   -0.49140E+02  5760   0.750E+01
DAV:   5    -0.272089871063E+03   -0.15914E+01   -0.15887E+01  5760   0.132E+01
 gam= 0.000 g(H,U,f)=  0.170E+04 0.142E+04 0.120E+04 ort(H,U,f) = 0.000E+00 0.000E+00 0.000E+00
SDA:   6     0.989242788454E+02    0.37101E+03   -0.15887E+01  5760   0.432E+04 0.000E+00
 gam= 0.000 trial= 0.400  step= 0.095 mean= 0.400
 gam= 2.573 g(H,U,f)=  0.923E+03 0.170E+04 0.849E+04 ort(H,U,f) = 0.746E+03 0.177E+03-0.149E+04
CGA:   7     0.462741628815E+02   -0.52650E+02   -0.20478E+03  5760   0.111E+05-0.565E+03
 gam= 2.573 trial= 0.385  step= 0.087 mean= 0.385
 gam= 0.868 g(H,U,f)=  0.110E+04 0.489E+04 0.365E+04 ort(H,U,f) = 0.117E+04 0.629E+03-0.635E+03
CGA:   8     0.825888822302E+02    0.36315E+02   -0.42227E+03  5760   0.964E+04 0.117E+04
 gam= 0.868 trial= 0.370  step= 0.075 mean= 0.370
 gam= 0.000 g(H,U,f)=  0.139E+04 0.136E+04 0.239E+03 ort(H,U,f) =-0.734E+03-0.369E+04-0.512E+03
CGA:   9     0.161044520303E+03    0.78456E+02   -0.39780E+03  5760   0.299E+04-0.494E+04
 gam= 0.000 trial= 0.355  step= 0.109 mean= 0.355
 gam= 0.616 g(H,U,f)=  0.812E+03 0.932E+03 0.983E+02 ort(H,U,f) = 0.673E+03-0.476E+03-0.577E+02
CGA:  10     0.317014982578E+02   -0.12934E+03   -0.16274E+03  5760   0.184E+04 0.139E+03
 gam= 0.616 trial= 0.343  step= 0.164 mean= 0.343
 gam= 0.443 g(H,U,f)=  0.542E+03 0.251E+03 0.241E+02 ort(H,U,f) = 0.316E+03-0.209E+03-0.128E+02
CGA:  11    -0.102122459735E+03   -0.13382E+03   -0.15800E+03  5760   0.817E+03 0.943E+02
 gam= 0.443 trial= 0.334  step= 0.145 mean= 0.334
 gam= 0.415 g(H,U,f)=  0.139E+03 0.169E+03 0.311E+02 ort(H,U,f) = 0.250E+03-0.962E+02-0.231E+02
CGA:  12    -0.169921013704E+03   -0.67799E+02   -0.62413E+02  5760   0.339E+03 0.131E+03
 gam= 0.415 trial= 0.324  step= 0.123 mean= 0.324
 gam= 0.664 g(H,U,f)=  0.622E+02 0.128E+03 0.345E+02 ort(H,U,f) = 0.580E+02-0.723E+02-0.237E+02
CGA:  13    -0.187577273305E+03   -0.17656E+02   -0.24100E+02  5760   0.225E+03-0.381E+02
 gam= 0.664 trial= 0.314  step= 0.115 mean= 0.314
 gam= 0.286 g(H,U,f)=  0.279E+02 0.342E+02 0.228E+01 ort(H,U,f) = 0.179E+02-0.835E+01-0.340E+01
CGA:  14    -0.198956313581E+03   -0.11379E+02   -0.11463E+02  5760   0.644E+02 0.611E+01
 gam= 0.286 trial= 0.304  step= 0.220 mean= 0.304
 gam= 0.700 g(H,U,f)=  0.175E+02 0.264E+02 0.114E+01 ort(H,U,f) = 0.922E+01-0.765E+01-0.131E+00
CGA:  15    -0.206014010430E+03   -0.70577E+01   -0.72657E+01  5760   0.451E+02 0.143E+01
 gam= 0.700 trial= 0.300  step= 0.222 mean= 0.300
 gam= 0.562 g(H,U,f)=  0.935E+01 0.143E+02 0.169E+01 ort(H,U,f) = 0.521E+00-0.548E+00 0.123E+01
CGA:  16    -0.211054849645E+03   -0.50408E+01   -0.51217E+01  5760   0.253E+02 0.120E+01
 gam= 0.562 trial= 0.296  step= 0.155 mean= 0.296
 gam= 1.401 g(H,U,f)=  0.707E+01 0.229E+02 0.558E+01 ort(H,U,f) = 0.208E+01-0.222E+01 0.761E+00
CGA:  17    -0.213123972336E+03   -0.20691E+01   -0.20142E+01  5760   0.355E+02 0.617E+00
 gam= 1.401 trial= 0.289  step= 0.117 mean= 0.289
 gam= 0.523 g(H,U,f)=  0.730E+01 0.835E+01 0.293E+01 ort(H,U,f) =-0.348E+01-0.831E-01 0.737E+01
CGA:  18    -0.214891697436E+03   -0.17677E+01   -0.21231E+01  5760   0.186E+02 0.380E+01
 gam= 0.523 trial= 0.281  step= 0.165 mean= 0.281
 gam= 0.658 g(H,U,f)=  0.498E+01 0.664E+01 0.619E+00 ort(H,U,f) =-0.561E+00 0.232E+01 0.162E+01
CGA:  19    -0.216317621253E+03   -0.14259E+01   -0.16945E+01  5760   0.122E+02 0.338E+01
 gam= 0.658 trial= 0.275  step= 0.139 mean= 0.275
 gam= 0.577 g(H,U,f)=  0.320E+01 0.305E+01 0.815E+00 ort(H,U,f) =-0.236E+00 0.173E+00 0.126E+01
CGA:  20    -0.217279463439E+03   -0.96184E+00   -0.10029E+01  5760   0.706E+01 0.119E+01
 gam= 0.577 trial= 0.268  step= 0.182 mean= 0.268
 gam= 1.150 g(H,U,f)=  0.265E+01 0.517E+01 0.299E+00 ort(H,U,f) = 0.632E+00-0.165E+00 0.149E+00
CGA:  21    -0.217999531169E+03   -0.72007E+00   -0.70664E+00  5760   0.812E+01 0.616E+00
 gam= 1.150 trial= 0.264  step= 0.152 mean= 0.264
 gam= 0.818 g(H,U,f)=  0.174E+01 0.402E+01 0.874E+00 ort(H,U,f) =-0.355E+00 0.979E+00-0.486E+00
CGA:  22    -0.218674824750E+03   -0.67529E+00   -0.67039E+00  5760   0.664E+01 0.138E+00
 gam= 0.818 trial= 0.258  step= 0.088 mean= 0.258
 gam= 0.564 g(H,U,f)=  0.161E+01 0.189E+01 0.244E+00 ort(H,U,f) =-0.372E+00-0.123E+00 0.541E+00
CGA:  23    -0.218932613779E+03   -0.25779E+00   -0.29668E+00  5760   0.375E+01 0.455E-01
 gam= 0.564 trial= 0.250  step= 0.146 mean= 0.250
 gam= 0.886 g(H,U,f)=  0.122E+01 0.182E+01 0.284E+00 ort(H,U,f) = 0.250E+00-0.371E+00-0.519E-01
CGA:  24    -0.219181177730E+03   -0.24856E+00   -0.27631E+00  5760   0.332E+01-0.173E+00
 gam= 0.886 trial= 0.244  step= 0.148 mean= 0.244
 gam= 0.477 g(H,U,f)=  0.873E+00 0.691E+00 0.199E-01 ort(H,U,f) = 0.930E-01-0.948E-01-0.826E-02
CGA:  25    -0.219416756624E+03   -0.23558E+00   -0.23457E+00  5760   0.158E+01-0.100E-01
 gam= 0.477 trial= 0.240  step= 0.237 mean= 0.240
 gam= 0.633 g(H,U,f)=  0.558E+00 0.422E+00 0.225E-01 ort(H,U,f) = 0.180E-01 0.857E-02-0.180E-01
CGA:  26    -0.219603748937E+03   -0.18699E+00   -0.18703E+00  5760   0.100E+01 0.855E-02
 gam= 0.633 trial= 0.239  step= 0.210 mean= 0.239
 gam= 1.118 g(H,U,f)=  0.382E+00 0.677E+00 0.620E-01 ort(H,U,f) = 0.754E-01-0.644E-01-0.779E-03
CGA:  27    -0.219709604696E+03   -0.10586E+00   -0.10602E+00  5760   0.112E+01 0.102E-01
 gam= 1.118 trial= 0.238  step= 0.144 mean= 0.238
 gam= 0.623 g(H,U,f)=  0.294E+00 0.386E+00 0.177E-01 ort(H,U,f) =-0.122E+00 0.127E+00-0.365E-03
CGA:  28    -0.219788917343E+03   -0.79313E-01   -0.81802E-01  5760   0.698E+00 0.420E-02
 gam= 0.623 trial= 0.233  step= 0.203 mean= 0.233
 gam= 0.938 g(H,U,f)=  0.269E+00 0.363E+00 0.233E-01 ort(H,U,f) =-0.146E+00 0.149E+00-0.740E-02
CGA:  29    -0.219860113707E+03   -0.71196E-01   -0.71256E-01  5760   0.655E+00-0.469E-02
 gam= 0.938 trial= 0.232  step= 0.239 mean= 0.232
 gam= 1.182 g(H,U,f)=  0.329E+00 0.411E+00 0.339E-01 ort(H,U,f) =-0.186E+00 0.206E+00 0.156E-01
CGA:  30    -0.219937976867E+03   -0.77863E-01   -0.77713E-01  5760   0.774E+00 0.348E-01
 gam= 1.182 trial= 0.232  step= 0.264 mean= 0.232
 gam= 1.109 g(H,U,f)=  0.347E+00 0.484E+00 0.278E-01 ort(H,U,f) =-0.321E+00 0.320E+00 0.326E-01
CGA:  31    -0.220046335311E+03   -0.10836E+00   -0.10779E+00  5760   0.858E+00 0.315E-01
 gam= 1.109 trial= 0.234  step= 0.189 mean= 0.234
 gam= 1.050 g(H,U,f)=  0.444E+00 0.432E+00 0.256E-01 ort(H,U,f) =-0.317E+00 0.323E+00 0.221E-01
CGA:  32    -0.220129206486E+03   -0.82871E-01   -0.84288E-01  5760   0.901E+00 0.275E-01
 gam= 1.050 trial= 0.232  step= 0.269 mean= 0.232
 gam= 1.180 g(H,U,f)=  0.589E+00 0.463E+00 0.125E-01 ort(H,U,f) =-0.291E+00 0.311E+00-0.260E-01
CGA:  33    -0.220255048794E+03   -0.12584E+00   -0.12512E+00  5760   0.106E+01-0.646E-02
 gam= 1.180 trial= 0.233  step= 0.352 mean= 0.233
 gam= 1.338 g(H,U,f)=  0.738E+00 0.656E+00 0.297E-01 ort(H,U,f) =-0.410E+00 0.268E+00 0.341E-01
CGA:  34    -0.220432424181E+03   -0.17738E+00   -0.18569E+00  5760   0.142E+01-0.108E+00
 gam= 1.338 trial= 0.239  step= 0.197 mean= 0.239
 gam= 0.877 g(H,U,f)=  0.753E+00 0.468E+00 0.267E-01 ort(H,U,f) =-0.428E+00 0.342E+00 0.730E-01
CGA:  35    -0.220559474681E+03   -0.12705E+00   -0.12598E+00  5760   0.125E+01-0.129E-01
 gam= 0.877 trial= 0.237  step= 0.201 mean= 0.237
 gam= 0.988 g(H,U,f)=  0.719E+00 0.501E+00 0.140E-01 ort(H,U,f) =-0.136E+00 0.115E+00 0.211E-01
CGA:  36    -0.220683742763E+03   -0.12427E+00   -0.12432E+00  5760   0.123E+01 0.100E-03
 gam= 0.988 trial= 0.235  step= 0.212 mean= 0.235
 gam= 0.877 g(H,U,f)=  0.581E+00 0.488E+00 0.127E-01 ort(H,U,f) = 0.181E-01 0.277E-01-0.733E-02
CGA:  37    -0.220813670579E+03   -0.12993E+00   -0.13107E+00  5760   0.108E+01 0.385E-01
 gam= 0.877 trial= 0.234  step= 0.203 mean= 0.234
 gam= 0.528 g(H,U,f)=  0.313E+00 0.255E+00 0.341E-02 ort(H,U,f) =-0.235E-01 0.366E-01 0.446E-02
CGA:  38    -0.220925748803E+03   -0.11208E+00   -0.11296E+00  5760   0.572E+00 0.175E-01
 gam= 0.528 trial= 0.233  step= 0.272 mean= 0.233
 gam= 0.994 g(H,U,f)=  0.239E+00 0.324E+00 0.577E-02 ort(H,U,f) =-0.736E-01 0.833E-01-0.893E-02
CGA:  39    -0.221004766380E+03   -0.79018E-01   -0.78950E-01  5760   0.568E+00 0.813E-03
 gam= 0.994 trial= 0.235  step= 0.325 mean= 0.235
 gam= 0.000 g(H,U,f)=  0.287E+00 0.239E+00 0.468E-02 ort(H,U,f) =-0.214E+00 0.218E+00 0.163E-02
SDA:  40    -0.221097610482E+03   -0.92844E-01   -0.92467E-01  5760   0.531E+00 0.555E-02
 gam= 0.000 trial= 0.239  step= 0.408 mean= 0.239
 gam= 0.910 g(H,U,f)=  0.163E+00 0.299E+00 0.212E-01 ort(H,U,f) = 0.127E-01 0.183E-02-0.763E-02
CGA:  41    -0.221206472087E+03   -0.10886E+00   -0.10821E+00  5760   0.483E+00 0.693E-02
 gam= 0.910 trial= 0.248  step= 0.323 mean= 0.248
 gam= 1.765 g(H,U,f)=  0.164E+00 0.569E+00 0.120E+00 ort(H,U,f) =-0.209E-01 0.539E-01-0.356E-01
CGA:  42    -0.221285457489E+03   -0.78985E-01   -0.79111E-01  5760   0.852E+00-0.252E-02
 gam= 1.765 trial= 0.251  step= 0.185 mean= 0.251
 gam= 0.401 g(H,U,f)=  0.141E+00 0.196E+00 0.435E-02 ort(H,U,f) =-0.264E+00 0.269E+00-0.329E-02
CGA:  43    -0.221363732769E+03   -0.78275E-01   -0.78621E-01  5760   0.342E+00 0.182E-02
 gam= 0.401 trial= 0.248  step= 0.313 mean= 0.248
 gam= 0.989 g(H,U,f)=  0.155E+00 0.177E+00 0.639E-02 ort(H,U,f) =-0.628E-01 0.844E-01-0.311E-02
CGA:  44    -0.221418241751E+03   -0.54509E-01   -0.53653E-01  5760   0.338E+00 0.185E-01
 gam= 0.989 trial= 0.251  step= 0.389 mean= 0.251
 gam= 2.011 g(H,U,f)=  0.149E+00 0.442E+00 0.890E-01 ort(H,U,f) =-0.270E-01 0.766E-02-0.193E-01
CGA:  45    -0.221484396789E+03   -0.66155E-01   -0.69277E-01  5760   0.680E+00-0.386E-01
 gam= 2.011 trial= 0.258  step= 0.164 mean= 0.258
 gam= 0.513 g(H,U,f)=  0.136E+00 0.197E+00 0.157E-01 ort(H,U,f) =-0.934E-01 0.888E-01-0.280E-02
CGA:  46    -0.221534012203E+03   -0.49615E-01   -0.49498E-01  5760   0.349E+00-0.747E-02
 gam= 0.513 trial= 0.254  step= 0.136 mean= 0.254
 gam= 0.753 g(H,U,f)=  0.107E+00 0.146E+00 0.100E-01 ort(H,U,f) = 0.113E-01-0.226E-02-0.186E-01
CGA:  47    -0.221557449001E+03   -0.23437E-01   -0.23516E-01  5760   0.263E+00-0.960E-02
 gam= 0.753 trial= 0.248  step= 0.221 mean= 0.248
 gam= 0.858 g(H,U,f)=  0.708E-01 0.148E+00 0.625E-02 ort(H,U,f) =-0.125E-01 0.118E-01-0.311E-02
CGA:  48    -0.221585692493E+03   -0.28243E-01   -0.28168E-01  5760   0.225E+00-0.375E-02
 gam= 0.858 trial= 0.246  step= 0.142 mean= 0.246
 gam= 0.803 g(H,U,f)=  0.560E-01 0.114E+00 0.110E-01 ort(H,U,f) =-0.130E-01 0.167E-01-0.888E-02
CGA:  49    -0.221601796389E+03   -0.16104E-01   -0.15751E-01  5760   0.181E+00-0.519E-02
 gam= 0.803 trial= 0.241  step= 0.262 mean= 0.241
 gam= 1.560 g(H,U,f)=  0.754E-01 0.187E+00 0.199E-01 ort(H,U,f) =-0.344E-01 0.356E-01-0.934E-02
CGA:  50    -0.221624942479E+03   -0.23146E-01   -0.23186E-01  5760   0.282E+00-0.817E-02
 gam= 1.560 trial= 0.242  step= 0.155 mean= 0.242
 gam= 0.744 g(H,U,f)=  0.948E-01 0.113E+00 0.263E-02 ort(H,U,f) =-0.733E-01 0.771E-01-0.605E-02
CGA:  51    -0.221645493334E+03   -0.20551E-01   -0.20836E-01  5760   0.210E+00-0.221E-02
 gam= 0.744 trial= 0.238  step= 0.229 mean= 0.238
 gam= 1.281 g(H,U,f)=  0.779E-01 0.156E+00 0.352E-01 ort(H,U,f) =-0.576E-01 0.557E-01-0.520E-02
CGA:  52    -0.221669390949E+03   -0.23898E-01   -0.23875E-01  5760   0.269E+00-0.711E-02
 gam= 1.281 trial= 0.237  step= 0.150 mean= 0.237
 gam= 0.937 g(H,U,f)=  0.862E-01 0.141E+00 0.248E-01 ort(H,U,f) =-0.724E-01 0.679E-01 0.101E-01
CGA:  53    -0.221689074253E+03   -0.19683E-01   -0.19561E-01  5760   0.252E+00 0.557E-02
 gam= 0.937 trial= 0.233  step= 0.201 mean= 0.233
 gam= 1.559 g(H,U,f)=  0.103E+00 0.227E+00 0.631E-01 ort(H,U,f) =-0.323E-01 0.812E-01-0.199E-01
CGA:  54    -0.221714399926E+03   -0.25326E-01   -0.25869E-01  5760   0.393E+00 0.290E-01
 gam= 1.559 trial= 0.231  step= 0.175 mean= 0.231
 gam= 0.569 g(H,U,f)=  0.119E+00 0.103E+00 0.196E-02 ort(H,U,f) =-0.821E-01 0.118E+00-0.602E-02
CGA:  55    -0.221749676397E+03   -0.35276E-01   -0.38436E-01  5760   0.224E+00 0.301E-01
 gam= 0.569 trial= 0.229  step= 0.300 mean= 0.229
 gam= 2.738 g(H,U,f)=  0.130E+00 0.298E+00 0.184E+00 ort(H,U,f) =-0.436E-01 0.347E-01 0.153E-02
CGA:  56    -0.221785425732E+03   -0.35749E-01   -0.36081E-01  5760   0.613E+00-0.737E-02
 gam= 2.738 trial= 0.232  step= 0.132 mean= 0.232
 gam= 0.774 g(H,U,f)=  0.177E+00 0.263E+00 0.336E-01 ort(H,U,f) =-0.204E+00 0.153E+00 0.812E-01
CGA:  57    -0.221823802166E+03   -0.38376E-01   -0.39164E-01  5760   0.474E+00 0.298E-01
 gam= 0.774 trial= 0.227  step= 0.173 mean= 0.227
 gam= 1.470 g(H,U,f)=  0.192E+00 0.376E+00 0.129E+00 ort(H,U,f) =-0.679E-01 0.230E+00-0.147E+00
CGA:  58    -0.221863909496E+03   -0.40107E-01   -0.43069E-01  5760   0.697E+00 0.143E-01
 gam= 1.470 trial= 0.224  step= 0.146 mean= 0.224
 gam= 0.717 g(H,U,f)=  0.170E+00 0.315E+00 0.142E-01 ort(H,U,f) =-0.168E+00 0.204E+00-0.155E-01
CGA:  59    -0.221922503320E+03   -0.58594E-01   -0.52254E-01  5760   0.499E+00 0.206E-01
 gam= 0.717 trial= 0.221  step= 0.059 mean= 0.221
 gam= 0.000 g(H,U,f)=  0.155E+00 0.298E+00 0.758E-02 ort(H,U,f) =-0.143E-01 0.273E+00 0.391E-02
CGA:  60    -0.221945402276E+03   -0.22899E-01   -0.15196E-01  5760   0.461E+00 0.263E+00
 gam= 0.000 trial= 0.212  step= 0.380 mean= 0.212
 gam= 0.815 g(H,U,f)=  0.131E+00 0.220E+00 0.250E-01 ort(H,U,f) =-0.253E-02 0.496E-01-0.870E-02
CGA:  61    -0.222036360095E+03   -0.90958E-01   -0.87508E-01  5760   0.376E+00 0.383E-01
 gam= 0.815 trial= 0.221  step= 0.452 mean= 0.221
 gam= 2.568 g(H,U,f)=  0.146E+00 0.301E+00 0.518E+00 ort(H,U,f) =-0.698E-01 0.106E+00-0.102E+00
CGA:  62    -0.222127787163E+03   -0.91427E-01   -0.92027E-01  5760   0.965E+00-0.660E-01
 gam= 2.568 trial= 0.232  step= 0.179 mean= 0.232
 gam= 0.629 g(H,U,f)=  0.264E+00 0.200E+00 0.142E+00 ort(H,U,f) =-0.385E+00 0.332E+00 0.813E-01
CGA:  63    -0.222199891622E+03   -0.72104E-01   -0.71162E-01  5760   0.606E+00 0.287E-01
 gam= 0.629 trial= 0.230  step= 0.223 mean= 0.230
 gam= 0.527 g(H,U,f)=  0.223E+00 0.947E-01 0.232E-02 ort(H,U,f) =-0.779E-01 0.209E+00 0.524E-03
CGA:  64    -0.222268602099E+03   -0.68710E-01   -0.69631E-01  5760   0.320E+00 0.132E+00
 gam= 0.527 trial= 0.229  step= 0.361 mean= 0.229
 gam= 0.632 g(H,U,f)=  0.988E-01 0.101E+00 0.230E-02 ort(H,U,f) =-0.155E-01 0.347E-01-0.811E-03
CGA:  65    -0.222340392649E+03   -0.71791E-01   -0.70393E-01  5760   0.202E+00 0.184E-01
 gam= 0.632 trial= 0.236  step= 0.416 mean= 0.236
 gam= 0.845 g(H,U,f)=  0.723E-01 0.981E-01 0.305E-03 ort(H,U,f) =-0.223E-01 0.997E-02 0.178E-04
CGA:  66    -0.222381693661E+03   -0.41301E-01   -0.44496E-01  5760   0.171E+00-0.123E-01
 gam= 0.845 trial= 0.245  step= 0.314 mean= 0.245
 gam= 0.551 g(H,U,f)=  0.519E-01 0.421E-01 0.103E-04 ort(H,U,f) =-0.235E-01 0.677E-02-0.348E-04
CGA:  67    -0.222405651714E+03   -0.23958E-01   -0.25157E-01  5760   0.940E-01-0.168E-01
 gam= 0.551 trial= 0.248  step= 0.464 mean= 0.248
 gam= 0.641 g(H,U,f)=  0.311E-01 0.292E-01 0.108E-04 ort(H,U,f) =-0.191E-01 0.218E-01 0.618E-05
CGA:  68    -0.222425656465E+03   -0.20005E-01   -0.19677E-01  5760   0.603E-01 0.274E-02
 gam= 0.641 trial= 0.259  step= 0.457 mean= 0.259
 gam= 1.171 g(H,U,f)=  0.333E-01 0.372E-01 0.632E-04 ort(H,U,f) =-0.133E-01 0.135E-01 0.100E-03
CGA:  69    -0.222439461512E+03   -0.13805E-01   -0.14160E-01  5760   0.706E-01 0.307E-03
 gam= 1.171 trial= 0.269  step= 0.474 mean= 0.269
 gam= 0.729 g(H,U,f)=  0.285E-01 0.223E-01 0.582E-03 ort(H,U,f) =-0.178E-01 0.120E-01-0.122E-02
CGA:  70    -0.222455019404E+03   -0.15558E-01   -0.16798E-01  5760   0.514E-01-0.701E-02
 gam= 0.729 trial= 0.279  step= 0.421 mean= 0.279
 gam= 0.649 g(H,U,f)=  0.216E-01 0.116E-01 0.182E-03 ort(H,U,f) =-0.858E-02 0.703E-02 0.171E-03
CGA:  71    -0.222464637879E+03   -0.96185E-02   -0.97597E-02  5760   0.334E-01-0.138E-02
 gam= 0.649 trial= 0.286  step= 0.523 mean= 0.286
 gam= 0.845 g(H,U,f)=  0.144E-01 0.137E-01 0.102E-03 ort(H,U,f) =-0.202E-02 0.207E-02 0.195E-03
CGA:  72    -0.222473019648E+03   -0.83818E-02   -0.85057E-02  5760   0.282E-01 0.241E-03
 gam= 0.845 trial= 0.298  step= 0.336 mean= 0.298
 gam= 0.554 g(H,U,f)=  0.867E-02 0.693E-02 0.525E-04 ort(H,U,f) =-0.318E-02 0.360E-02-0.135E-03
CGA:  73    -0.222477816304E+03   -0.47967E-02   -0.47852E-02  5760   0.156E-01 0.287E-03
 gam= 0.554 trial= 0.300  step= 0.559 mean= 0.300
 gam= 1.001 g(H,U,f)=  0.750E-02 0.815E-02 0.174E-04 ort(H,U,f) =-0.455E-02 0.275E-02 0.450E-05
CGA:  74    -0.222481834400E+03   -0.40181E-02   -0.44203E-02  5760   0.157E-01-0.179E-02
 gam= 1.001 trial= 0.313  step= 0.454 mean= 0.313
 gam= 0.734 g(H,U,f)=  0.785E-02 0.364E-02 0.339E-05 ort(H,U,f) =-0.500E-02 0.561E-02 0.620E-05
CGA:  75    -0.222485032216E+03   -0.31978E-02   -0.31477E-02  5760   0.115E-01 0.617E-03
 gam= 0.734 trial= 0.320  step= 0.621 mean= 0.320
 gam= 1.434 g(H,U,f)=  0.845E-02 0.801E-02 0.212E-04 ort(H,U,f) =-0.186E-02 0.193E-02-0.134E-04
CGA:  76    -0.222488736198E+03   -0.37040E-02   -0.37118E-02  5760   0.165E-01 0.570E-04
 gam= 1.434 trial= 0.335  step= 0.385 mean= 0.335
 gam= 0.542 g(H,U,f)=  0.507E-02 0.386E-02 0.507E-05 ort(H,U,f) =-0.421E-02 0.357E-02 0.207E-06
CGA:  77    -0.222491863349E+03   -0.31272E-02   -0.31916E-02  5760   0.894E-02-0.643E-03
 gam= 0.542 trial= 0.338  step= 0.411 mean= 0.338
 gam= 0.944 g(H,U,f)=  0.464E-02 0.378E-02 0.191E-04 ort(H,U,f) =-0.123E-02 0.102E-02 0.978E-05
CGA:  78    -0.222493604999E+03   -0.17416E-02   -0.17643E-02  5760   0.844E-02-0.205E-03
 gam= 0.944 trial= 0.341  step= 0.566 mean= 0.341
 gam= 0.918 g(H,U,f)=  0.386E-02 0.387E-02 0.115E-04 ort(H,U,f) =-0.197E-02 0.181E-02-0.204E-04
CGA:  79    -0.222495912079E+03   -0.23071E-02   -0.23338E-02  5760   0.774E-02-0.180E-03
 gam= 0.918 trial= 0.353  step= 0.509 mean= 0.353
 gam= 0.834 g(H,U,f)=  0.381E-02 0.265E-02 0.524E-05 ort(H,U,f) =-0.245E-02 0.245E-02-0.493E-05
CGA:  80    -0.222497836584E+03   -0.19245E-02   -0.19271E-02  5760   0.646E-02-0.196E-05
 gam= 0.834 trial= 0.360  step= 0.527 mean= 0.360
 gam= 1.180 g(H,U,f)=  0.335E-02 0.427E-02 0.649E-05 ort(H,U,f) =-0.136E-02 0.141E-02-0.109E-05
CGA:  81    -0.222499506821E+03   -0.16702E-02   -0.17033E-02  5760   0.762E-02 0.527E-04
 gam= 1.180 trial= 0.369  step= 0.537 mean= 0.369
 gam= 1.166 g(H,U,f)=  0.422E-02 0.466E-02 0.686E-05 ort(H,U,f) =-0.206E-02 0.151E-02-0.496E-05
CGA:  82    -0.222501442671E+03   -0.19359E-02   -0.20618E-02  5760   0.889E-02-0.558E-03
 gam= 1.166 trial= 0.377  step= 0.371 mean= 0.377
 gam= 0.578 g(H,U,f)=  0.335E-02 0.179E-02 0.272E-05 ort(H,U,f) =-0.220E-02 0.213E-02-0.178E-05
CGA:  83    -0.222502970927E+03   -0.15283E-02   -0.15275E-02  5760   0.514E-02-0.738E-04
 gam= 0.578 trial= 0.377  step= 0.566 mean= 0.377
 gam= 1.192 g(H,U,f)=  0.327E-02 0.284E-02 0.492E-05 ort(H,U,f) =-0.483E-03 0.377E-03-0.227E-05
CGA:  84    -0.222504402395E+03   -0.14315E-02   -0.14418E-02  5760   0.612E-02-0.108E-03
 gam= 1.192 trial= 0.386  step= 0.403 mean= 0.386
 gam= 0.628 g(H,U,f)=  0.189E-02 0.194E-02 0.121E-04 ort(H,U,f) =-0.664E-03 0.952E-03-0.177E-06
CGA:  85    -0.222505606942E+03   -0.12045E-02   -0.12063E-02  5760   0.384E-02 0.288E-03
 gam= 0.628 trial= 0.387  step= 0.372 mean= 0.387
 gam= 0.906 g(H,U,f)=  0.181E-02 0.166E-02 0.150E-04 ort(H,U,f) =-0.609E-03 0.471E-03 0.910E-05
CGA:  86    -0.222506362965E+03   -0.75602E-03   -0.74837E-03  5760   0.348E-02-0.128E-03
 gam= 0.906 trial= 0.386  step= 0.466 mean= 0.386
 gam= 0.830 g(H,U,f)=  0.162E-02 0.127E-02 0.928E-06 ort(H,U,f) =-0.866E-03 0.906E-03-0.505E-05
CGA:  87    -0.222507148951E+03   -0.78599E-03   -0.78359E-03  5760   0.289E-02 0.356E-04
 gam= 0.830 trial= 0.390  step= 0.445 mean= 0.390
 gam= 0.945 g(H,U,f)=  0.151E-02 0.121E-02 0.108E-04 ort(H,U,f) =-0.645E-03 0.667E-03-0.146E-04
CGA:  88    -0.222507796305E+03   -0.64735E-03   -0.64852E-03  5760   0.273E-02 0.766E-05
 gam= 0.945 trial= 0.393  step= 0.372 mean= 0.393
 gam= 0.811 g(H,U,f)=  0.108E-02 0.114E-02 0.124E-05 ort(H,U,f) =-0.419E-03 0.408E-03 0.493E-06
CGA:  89    -0.222508308280E+03   -0.51198E-03   -0.50938E-03  5760   0.221E-02-0.107E-04
 gam= 0.811 trial= 0.392  step= 0.359 mean= 0.392
 gam= 0.686 g(H,U,f)=  0.858E-03 0.654E-03 0.762E-05 ort(H,U,f) =-0.380E-03 0.353E-03 0.124E-05
CGA:  90    -0.222508705686E+03   -0.39741E-03   -0.39609E-03  5760   0.152E-02-0.260E-04
 gam= 0.686 trial= 0.390  step= 0.476 mean= 0.390
 gam= 0.000 g(H,U,f)=  0.717E-03 0.588E-03 0.468E-06 ort(H,U,f) =-0.196E-03 0.186E-03 0.482E-06
SDA:  91    -0.222509063060E+03   -0.35737E-03   -0.35730E-03  5760   0.131E-02-0.998E-05
 gam= 0.000 trial= 0.395  step= 0.295 mean= 0.395
 gam= 0.520 g(H,U,f)=  0.249E-03 0.430E-03 0.582E-06 ort(H,U,f) = 0.147E-03-0.802E-04-0.213E-06
CGA:  92    -0.222509263357E+03   -0.20030E-03   -0.19237E-03  5760   0.679E-03 0.666E-04
 gam= 0.520 trial= 0.390  step= 0.444 mean= 0.390
 gam= 0.984 g(H,U,f)=  0.243E-03 0.424E-03 0.372E-06 ort(H,U,f) =-0.602E-04 0.233E-04-0.371E-06
CGA:  93    -0.222509416872E+03   -0.15351E-03   -0.15849E-03  5760   0.668E-03-0.373E-04
 gam= 0.984 trial= 0.392  step= 0.523 mean= 0.392
 gam= 0.631 g(H,U,f)=  0.257E-03 0.163E-03 0.263E-05 ort(H,U,f) =-0.233E-03 0.185E-03-0.433E-06
CGA:  94    -0.222509575413E+03   -0.15854E-03   -0.16504E-03  5760   0.422E-03-0.484E-04
 gam= 0.631 trial= 0.399  step= 0.747 mean= 0.399
 gam= 0.775 g(H,U,f)=  0.195E-03 0.130E-03 0.194E-05 ort(H,U,f) =-0.103E-03 0.100E-03-0.192E-05
CGA:  95    -0.222509719568E+03   -0.14415E-03   -0.14608E-03  5760   0.327E-03-0.439E-05
 gam= 0.775 trial= 0.416  step= 0.759 mean= 0.416
 gam= 1.356 g(H,U,f)=  0.218E-03 0.225E-03 0.409E-06 ort(H,U,f) =-0.715E-04 0.633E-04 0.318E-07
CGA:  96    -0.222509834529E+03   -0.11496E-03   -0.12276E-03  5760   0.443E-03-0.816E-05
 gam= 1.356 trial= 0.433  step= 0.342 mean= 0.433
 gam= 0.684 g(H,U,f)=  0.145E-03 0.158E-03 0.133E-06 ort(H,U,f) =-0.739E-04 0.806E-04-0.213E-06
CGA:  97    -0.222509911862E+03   -0.77333E-04   -0.73925E-04  5760   0.303E-03 0.647E-05
 gam= 0.684 trial= 0.429  step= 0.586 mean= 0.429
 gam= 1.102 g(H,U,f)=  0.161E-03 0.173E-03 0.391E-06 ort(H,U,f) =-0.722E-04 0.535E-04 0.154E-06
CGA:  98    -0.222509998175E+03   -0.86313E-04   -0.90004E-04  5760   0.334E-03-0.185E-04
 gam= 1.102 trial= 0.437  step= 0.715 mean= 0.437
 gam= 0.942 g(H,U,f)=  0.174E-03 0.138E-03 0.232E-05 ort(H,U,f) =-0.101E-03 0.104E-03-0.167E-05
CGA:  99    -0.222510110788E+03   -0.11261E-03   -0.11199E-03  5760   0.314E-03 0.159E-05
 gam= 0.942 trial= 0.451  step= 0.679 mean= 0.451
 gam= 0.835 g(H,U,f)=  0.153E-03 0.109E-03 0.699E-06 ort(H,U,f) =-0.877E-04 0.846E-04-0.401E-06
CGA: 100    -0.222510217746E+03   -0.10696E-03   -0.10726E-03  5760   0.262E-03-0.350E-05
 gam= 0.835 trial= 0.462  step= 0.767 mean= 0.462
 gam= 1.125 g(H,U,f)=  0.166E-03 0.130E-03 0.336E-07 ort(H,U,f) =-0.692E-04 0.738E-04-0.324E-08
CGA: 101    -0.222510318077E+03   -0.10033E-03   -0.99590E-04  5760   0.295E-03 0.466E-05
 gam= 1.125 trial= 0.477  step= 0.659 mean= 0.477
 gam= 0.784 g(H,U,f)=  0.137E-03 0.938E-04 0.345E-06 ort(H,U,f) =-0.701E-04 0.739E-04-0.294E-06
CGA: 102    -0.222510416938E+03   -0.98860E-04   -0.98988E-04  5760   0.232E-03 0.352E-05
 gam= 0.784 trial= 0.486  step= 0.561 mean= 0.486
 gam= 1.295 g(H,U,f)=  0.138E-03 0.161E-03 0.289E-06 ort(H,U,f) =-0.340E-04 0.411E-04 0.753E-08
CGA: 103    -0.222510481627E+03   -0.64689E-04   -0.65757E-04  5760   0.300E-03 0.715E-05
 gam= 1.295 trial= 0.490  step= 0.404 mean= 0.490
 gam= 0.710 g(H,U,f)=  0.100E-03 0.112E-03 0.225E-06 ort(H,U,f) =-0.524E-04 0.470E-04 0.114E-06
CGA: 104    -0.222510547448E+03   -0.65821E-04   -0.62457E-04  5760   0.213E-03-0.531E-05
 gam= 0.710 trial= 0.486  step= 0.549 mean= 0.486
 gam= 0.767 g(H,U,f)=  0.911E-04 0.720E-04 0.631E-07 ort(H,U,f) =-0.461E-04 0.442E-04 0.716E-07
CGA: 105    -0.222510604492E+03   -0.57044E-04   -0.57373E-04  5760   0.163E-03-0.185E-05
 gam= 0.767 trial= 0.489  step= 0.765 mean= 0.489
 gam= 1.126 g(H,U,f)=  0.907E-04 0.925E-04 0.474E-06 ort(H,U,f) =-0.473E-04 0.406E-04-0.360E-06
CGA: 106    -0.222510664721E+03   -0.60229E-04   -0.61909E-04  5760   0.184E-03-0.706E-05
 gam= 1.126 trial= 0.503  step= 0.576 mean= 0.503
 gam= 0.919 g(H,U,f)=  0.863E-04 0.823E-04 0.228E-06 ort(H,U,f) =-0.471E-04 0.463E-04 0.214E-10
CGA: 107    -0.222510714721E+03   -0.50001E-04   -0.50616E-04  5760   0.169E-03-0.869E-06
 gam= 0.919 trial= 0.506  step= 0.430 mean= 0.506
 gam= 1.042 g(H,U,f)=  0.903E-04 0.855E-04 0.115E-06 ort(H,U,f) =-0.297E-04 0.361E-04 0.164E-07
CGA: 108    -0.222510751965E+03   -0.37243E-04   -0.36110E-04  5760   0.176E-03 0.638E-05
 gam= 1.042 trial= 0.503  step= 0.541 mean= 0.503
 gam= 0.706 g(H,U,f)=  0.637E-04 0.602E-04 0.367E-06 ort(H,U,f) =-0.284E-04 0.310E-04-0.262E-06
CGA: 109    -0.222510801224E+03   -0.49259E-04   -0.49357E-04  5760   0.124E-03 0.231E-05
 gam= 0.706 trial= 0.505  step= 0.546 mean= 0.505
 gam= 0.636 g(H,U,f)=  0.496E-04 0.291E-04 0.216E-06 ort(H,U,f) =-0.181E-04 0.130E-04-0.101E-06
CGA: 110    -0.222510835260E+03   -0.34035E-04   -0.34324E-04  5760   0.790E-04-0.522E-05
 gam= 0.636 trial= 0.507  step= 0.577 mean= 0.507
 gam= 0.601 g(H,U,f)=  0.261E-04 0.212E-04 0.103E-06 ort(H,U,f) =-0.623E-05 0.774E-05-0.110E-06
CGA: 111    -0.222510857154E+03   -0.21895E-04   -0.21835E-04  5760   0.474E-04 0.140E-05
 gam= 0.601 trial= 0.510  step= 0.459 mean= 0.510
 gam= 0.762 g(H,U,f)=  0.156E-04 0.205E-04 0.395E-07 ort(H,U,f) =-0.339E-05 0.703E-05-0.705E-08
CGA: 112    -0.222510868259E+03   -0.11105E-04   -0.11068E-04  5760   0.362E-04 0.363E-05
 gam= 0.762 trial= 0.508  step= 0.417 mean= 0.508
 gam= 0.885 g(H,U,f)=  0.144E-04 0.176E-04 0.609E-07 ort(H,U,f) =-0.725E-05 0.787E-05-0.490E-07
CGA: 113    -0.222510876699E+03   -0.84395E-05   -0.81171E-05  5760   0.320E-04 0.567E-06
 gam= 0.885 trial= 0.503  step= 0.603 mean= 0.503
 gam= 1.195 g(H,U,f)=  0.184E-04 0.198E-04 0.271E-07 ort(H,U,f) =-0.111E-04 0.746E-05-0.511E-08
CGA: 114    -0.222510886110E+03   -0.94113E-05   -0.98106E-05  5760   0.382E-04-0.365E-05
 gam= 1.195 trial= 0.508  step= 0.654 mean= 0.508
 gam= 0.952 g(H,U,f)=  0.213E-04 0.150E-04 0.399E-07 ort(H,U,f) =-0.133E-04 0.126E-04-0.264E-07
CGA: 115    -0.222510896959E+03   -0.10850E-04   -0.11076E-04  5760   0.364E-04-0.706E-06
 gam= 0.952 trial= 0.515  step= 0.474 mean= 0.515
 gam= 0.888 g(H,U,f)=  0.195E-04 0.128E-04 0.201E-07 ort(H,U,f) =-0.778E-05 0.899E-05-0.107E-07
CGA: 116    -0.222510905455E+03   -0.84959E-05   -0.84596E-05  5760   0.323E-04 0.120E-05
 gam= 0.888 trial= 0.513  step= 0.678 mean= 0.513
 gam= 1.311 g(H,U,f)=  0.199E-04 0.224E-04 0.402E-07 ort(H,U,f) =-0.675E-05 0.593E-05-0.692E-08
CGA: 117    -0.222510916348E+03   -0.10893E-04   -0.11311E-04  5760   0.424E-04-0.824E-06
 gam= 1.311 trial= 0.521  step= 0.442 mean= 0.521
 gam= 0.824 g(H,U,f)=  0.183E-04 0.166E-04 0.225E-07 ort(H,U,f) =-0.966E-05 0.869E-05-0.231E-07
CGA: 118    -0.222510925877E+03   -0.95291E-05   -0.91143E-05  5760   0.349E-04-0.992E-06
 gam= 0.824 trial= 0.517  step= 0.430 mean= 0.517
 gam= 0.658 g(H,U,f)=  0.140E-04 0.900E-05 0.425E-08 ort(H,U,f) =-0.667E-05 0.767E-05 0.656E-09
CGA: 119    -0.222510933207E+03   -0.73297E-05   -0.73338E-05  5760   0.230E-04 0.101E-05
 gam= 0.658 trial= 0.513  step= 0.661 mean= 0.513
 gam= 0.912 g(H,U,f)=  0.115E-04 0.944E-05 0.296E-07 ort(H,U,f) =-0.460E-05 0.561E-05-0.186E-08
CGA: 120    -0.222510941033E+03   -0.78262E-05   -0.78075E-05  5760   0.210E-04 0.101E-05
 gam= 0.912 trial= 0.521  step= 0.659 mean= 0.521
 gam= 0.723 g(H,U,f)=  0.102E-04 0.498E-05 0.180E-07 ort(H,U,f) =-0.592E-05 0.497E-05-0.152E-07
CGA: 121    -0.222510948174E+03   -0.71406E-05   -0.72045E-05  5760   0.151E-04-0.972E-06
 gam= 0.723 trial= 0.527  step= 0.657 mean= 0.527
 gam= 0.000 g(H,U,f)=  0.753E-05 0.543E-05 0.930E-08 ort(H,U,f) =-0.219E-05 0.233E-05-0.865E-08
SDA: 122    -0.222510952926E+03   -0.47519E-05   -0.47440E-05  5760   0.130E-04 0.133E-06
 gam= 0.000 trial= 0.534  step= 0.440 mean= 0.534
 gam= 0.498 g(H,U,f)=  0.265E-05 0.376E-05 0.454E-07 ort(H,U,f) = 0.136E-05-0.125E-05-0.155E-07
CGA: 123    -0.222510955770E+03   -0.28441E-05   -0.28505E-05  5760   0.645E-05 0.976E-07
 gam= 0.498 trial= 0.529  step= 0.659 mean= 0.529
 gam= 0.783 g(H,U,f)=  0.173E-05 0.328E-05 0.436E-07 ort(H,U,f) =-0.764E-06 0.544E-06-0.370E-07
CGA: 124    -0.222510957888E+03   -0.21183E-05   -0.21435E-05  5760   0.506E-05-0.258E-06
 gam= 0.783 trial= 0.536  step= 0.471 mean= 0.536
 gam= 0.837 g(H,U,f)=  0.173E-05 0.249E-05 0.495E-08 ort(H,U,f) =-0.948E-06 0.820E-06-0.268E-08
CGA: 125    -0.222510959050E+03   -0.11621E-05   -0.11434E-05  5760   0.423E-05-0.131E-06
 gam= 0.837 trial= 0.532  step= 0.451 mean= 0.532
 gam= 1.059 g(H,U,f)=  0.173E-05 0.273E-05 0.274E-07 ort(H,U,f) =-0.720E-06 0.845E-06-0.571E-08
CGA: 126    -0.222510960033E+03   -0.98310E-06   -0.92911E-06  5760   0.448E-05 0.119E-06
 gam= 1.059 trial= 0.528  step= 0.525 mean= 0.528
 gam= 0.724 g(H,U,f)=  0.164E-05 0.160E-05 0.671E-08 ort(H,U,f) =-0.110E-05 0.105E-05-0.108E-07
CGA: 127    -0.222510961243E+03   -0.12100E-05   -0.12098E-05  5760   0.325E-05-0.660E-07
 gam= 0.724 trial= 0.528  step= 0.873 mean= 0.528
 gam= 0.956 g(H,U,f)=  0.177E-05 0.134E-05 0.302E-08 ort(H,U,f) =-0.102E-05 0.680E-06 0.816E-09
CGA: 128    -0.222510962574E+03   -0.13306E-05   -0.13978E-05  5760   0.311E-05-0.338E-06
 gam= 0.956 trial= 0.545  step= 0.694 mean= 0.545
 gam= 0.903 g(H,U,f)=  0.149E-05 0.131E-05 0.178E-08 ort(H,U,f) =-0.501E-06 0.530E-06 0.101E-08
CGA: 129    -0.222510963543E+03   -0.96868E-06   -0.96639E-06  5760   0.280E-05 0.296E-07
 gam= 0.903 trial= 0.553  step= 0.615 mean= 0.553
 final diagonalization
   1 F= -.23358157E+03 E0= -.23357962E+03  d E =-.390542E-02  mag=     6.0000
