 running on   64 total cores
 distrk:  each k-point on   64 cores,    1 groups
 distr:  one band on    4 cores,   16 groups
 using from now: INCAR     
 vasp.5.4.4.18Apr17-6-g9f103f2a35 (build Nov 22 2021 14:44:17) complex          
  
 POSCAR found type information on POSCAR  Li Co O 
 POSCAR found :  3 types and      42 ions
 scaLAPACK will be used
 LDA part: xc-table for Pade appr. of Perdew
 generate k-points for:    6    6    2
 POSCAR, INCAR and KPOINTS ok, starting setup
 FFT: planning ...
 WAVECAR not read
 entering main loop
       N       E                     dE             d eps       ncg     rms          ort
DAV:   1     0.349711863495E+04    0.34971E+04   -0.14005E+05  5760   0.220E+03
DAV:   2     0.407111316415E+03   -0.30900E+04   -0.28464E+04  5760   0.535E+02
DAV:   3    -0.221716347331E+03   -0.62883E+03   -0.57439E+03  5760   0.254E+02
DAV:   4    -0.271589463130E+03   -0.49873E+02   -0.48833E+02  5760   0.738E+01
DAV:   5    -0.273281124747E+03   -0.16917E+01   -0.16885E+01  5760   0.136E+01
 gam= 0.000 g(H,U,f)=  0.179E+04 0.111E+04 0.304E+04 ort(H,U,f) = 0.000E+00 0.000E+00 0.000E+00
SDA:   6     0.111400036728E+03    0.38468E+03   -0.16885E+01  5760   0.594E+04 0.000E+00
 gam= 0.000 trial= 0.400  step= 0.082 mean= 0.400
 gam= 0.277 g(H,U,f)=  0.832E+03 0.626E+03 0.187E+03 ort(H,U,f) = 0.898E+03 0.398E+03-0.199E+03
CGA:   7    -0.136784749699E+02   -0.12508E+03   -0.24423E+03  5760   0.164E+04 0.110E+04
 gam= 0.277 trial= 0.384  step= 0.032 mean= 0.384
 gam= 0.000 g(H,U,f)=  0.595E+03 0.648E+03 0.510E+03 ort(H,U,f) = 0.908E+03 0.763E+03 0.412E+03
CGA:   8    -0.572858440332E+02   -0.43607E+02   -0.31008E+02  5760   0.175E+04 0.208E+04
 gam= 0.000 trial= 0.366  step= 0.022 mean= 0.366
 gam= 0.000 g(H,U,f)=  0.371E+03 0.481E+03 0.203E+03 ort(H,U,f) = 0.447E+03 0.999E+03 0.717E+03
CGA:   9    -0.118623783905E+03   -0.61338E+02   -0.19184E+02  5760   0.105E+04 0.216E+04
 gam= 0.000 trial= 0.349  step= 0.121 mean= 0.349
 gam= 3.753 g(H,U,f)=  0.224E+03 0.123E+04 0.250E+04 ort(H,U,f) = 0.104E+03-0.212E+02-0.401E+03
CGA:  10    -0.123606425167E+03   -0.49826E+01   -0.63880E+02  5760   0.396E+04-0.319E+03
 gam= 3.753 trial= 0.338  step= 0.042 mean= 0.338
 gam= 0.410 g(H,U,f)=  0.114E+03 0.702E+03 0.808E+03 ort(H,U,f) =-0.127E+03 0.335E+03 0.976E+02
CGA:  11    -0.177172640390E+03   -0.53566E+02   -0.58612E+02  5760   0.162E+04 0.305E+03
 gam= 0.410 trial= 0.323  step= 0.042 mean= 0.323
 gam= 0.261 g(H,U,f)=  0.119E+03 0.205E+03 0.988E+02 ort(H,U,f) =-0.215E+03-0.413E+03-0.120E+03
CGA:  12    -0.192593067394E+03   -0.15420E+02   -0.36461E+02  5760   0.423E+03-0.748E+03
 gam= 0.261 trial= 0.309  step= 0.076 mean= 0.309
 gam= 0.866 g(H,U,f)=  0.114E+03 0.165E+03 0.884E+02 ort(H,U,f) = 0.372E+02-0.135E+03-0.641E+02
CGA:  13    -0.196270445931E+03   -0.36774E+01   -0.86981E+01  5760   0.367E+03-0.162E+03
 gam= 0.866 trial= 0.297  step= 0.132 mean= 0.297
 gam= 0.834 g(H,U,f)=  0.508E+02 0.171E+03 0.842E+02 ort(H,U,f) = 0.548E+02-0.545E+02-0.191E+02
CGA:  14    -0.208084872619E+03   -0.11814E+02   -0.14892E+02  5760   0.306E+03-0.188E+02
 gam= 0.834 trial= 0.289  step= 0.064 mean= 0.289
 gam= 0.385 g(H,U,f)=  0.193E+02 0.715E+02 0.270E+02 ort(H,U,f) = 0.264E+02-0.620E+02-0.334E+02
CGA:  15    -0.215334642933E+03   -0.72498E+01   -0.93352E+01  5760   0.118E+03-0.690E+02
 gam= 0.385 trial= 0.278  step= 0.094 mean= 0.278
 gam= 0.109 g(H,U,f)=  0.536E+01 0.630E+01 0.121E+01 ort(H,U,f) =-0.204E+00-0.613E+01-0.316E+01
CGA:  16    -0.219207728775E+03   -0.38731E+01   -0.42934E+01  5760   0.129E+02-0.949E+01
 gam= 0.109 trial= 0.269  step= 0.154 mean= 0.269
 gam= 0.955 g(H,U,f)=  0.225E+01 0.676E+01 0.328E+01 ort(H,U,f) = 0.205E+01-0.899E+00-0.136E+01
CGA:  17    -0.220070810370E+03   -0.86308E+00   -0.91116E+00  5760   0.123E+02-0.214E+00
 gam= 0.955 trial= 0.263  step= 0.096 mean= 0.263
 gam= 0.420 g(H,U,f)=  0.123E+01 0.300E+01 0.919E+00 ort(H,U,f) = 0.105E+01-0.877E+00-0.864E+00
CGA:  18    -0.220609380214E+03   -0.53857E+00   -0.57846E+00  5760   0.516E+01-0.694E+00
 gam= 0.420 trial= 0.255  step= 0.153 mean= 0.255
 gam= 0.803 g(H,U,f)=  0.102E+01 0.225E+01 0.877E+00 ort(H,U,f) = 0.369E+00 0.598E-02-0.408E+00
CGA:  19    -0.220957497639E+03   -0.34812E+00   -0.37191E+00  5760   0.414E+01-0.334E-01
 gam= 0.803 trial= 0.250  step= 0.159 mean= 0.250
 gam= 0.718 g(H,U,f)=  0.658E+00 0.167E+01 0.647E+00 ort(H,U,f) =-0.579E-01 0.527E+00-0.490E+00
CGA:  20    -0.221282234191E+03   -0.32474E+00   -0.32834E+00  5760   0.297E+01-0.206E-01
 gam= 0.718 trial= 0.245  step= 0.185 mean= 0.245
 gam= 0.523 g(H,U,f)=  0.396E+00 0.801E+00 0.357E+00 ort(H,U,f) =-0.437E+00 0.544E+00-0.587E-01
CGA:  21    -0.221548016599E+03   -0.26578E+00   -0.27324E+00  5760   0.155E+01 0.474E-01
 gam= 0.523 trial= 0.242  step= 0.186 mean= 0.242
 gam= 1.423 g(H,U,f)=  0.478E+00 0.118E+01 0.555E+00 ort(H,U,f) =-0.123E+00 0.479E+00-0.325E+00
CGA:  22    -0.221689887642E+03   -0.14187E+00   -0.14673E+00  5760   0.221E+01 0.311E-01
 gam= 1.423 trial= 0.239  step= 0.233 mean= 0.239
 gam= 0.652 g(H,U,f)=  0.491E+00 0.734E+00 0.217E+00 ort(H,U,f) =-0.486E+00 0.516E+00-0.420E-01
CGA:  23    -0.221953305619E+03   -0.26342E+00   -0.26333E+00  5760   0.144E+01-0.124E-01
 gam= 0.652 trial= 0.239  step= 0.274 mean= 0.239
 gam= 1.022 g(H,U,f)=  0.376E+00 0.790E+00 0.306E+00 ort(H,U,f) =-0.160E+00 0.270E+00-0.433E-01
CGA:  24    -0.222151736651E+03   -0.19843E+00   -0.19637E+00  5760   0.147E+01 0.664E-01
 gam= 1.022 trial= 0.241  step= 0.281 mean= 0.241
 gam= 1.519 g(H,U,f)=  0.451E+00 0.114E+01 0.648E+00 ort(H,U,f) =-0.136E+00 0.424E+00-0.378E+00
CGA:  25    -0.222364818371E+03   -0.21308E+00   -0.21660E+00  5760   0.224E+01-0.894E-01
 gam= 1.519 trial= 0.243  step= 0.272 mean= 0.243
 gam= 1.021 g(H,U,f)=  0.734E+00 0.125E+01 0.297E+00 ort(H,U,f) =-0.471E+00 0.379E+00-0.257E-01
CGA:  26    -0.222647806936E+03   -0.28299E+00   -0.28553E+00  5760   0.228E+01-0.118E+00
 gam= 1.021 trial= 0.244  step= 0.335 mean= 0.244
 gam= 0.722 g(H,U,f)=  0.741E+00 0.871E+00 0.372E-01 ort(H,U,f) =-0.415E+00 0.292E+00-0.453E-01
CGA:  27    -0.222998345533E+03   -0.35054E+00   -0.36195E+00  5760   0.165E+01-0.168E+00
 gam= 0.722 trial= 0.249  step= 0.253 mean= 0.249
 gam= 1.115 g(H,U,f)=  0.559E+00 0.725E+00 0.555E+00 ort(H,U,f) =-0.111E+00 0.205E+00-0.151E+00
CGA:  28    -0.223191756661E+03   -0.19341E+00   -0.19342E+00  5760   0.184E+01-0.575E-01
 gam= 1.115 trial= 0.249  step= 0.165 mean= 0.249
 gam= 0.796 g(H,U,f)=  0.484E+00 0.664E+00 0.317E+00 ort(H,U,f) =-0.571E-02 0.301E+00-0.287E+00
CGA:  29    -0.223328134107E+03   -0.13638E+00   -0.14685E+00  5760   0.146E+01 0.774E-02
 gam= 0.796 trial= 0.245  step= 0.218 mean= 0.245
 gam= 1.087 g(H,U,f)=  0.410E+00 0.472E+00 0.710E+00 ort(H,U,f) =-0.133E+00 0.259E+00-0.200E+00
CGA:  30    -0.223489709421E+03   -0.16158E+00   -0.15994E+00  5760   0.159E+01-0.745E-01
 gam= 1.087 trial= 0.243  step= 0.173 mean= 0.243
 gam= 0.490 g(H,U,f)=  0.359E+00 0.309E+00 0.112E+00 ort(H,U,f) =-0.213E+00 0.395E+00-0.135E+00
CGA:  31    -0.223610587253E+03   -0.12088E+00   -0.13043E+00  5760   0.780E+00 0.474E-01
 gam= 0.490 trial= 0.240  step= 0.255 mean= 0.240
 gam= 1.930 g(H,U,f)=  0.229E+00 0.536E+00 0.740E+00 ort(H,U,f) =-0.561E-01 0.968E-01-0.179E+00
CGA:  32    -0.223711504431E+03   -0.10092E+00   -0.10243E+00  5760   0.150E+01-0.138E+00
 gam= 1.930 trial= 0.241  step= 0.106 mean= 0.241
 gam= 0.596 g(H,U,f)=  0.244E+00 0.317E+00 0.335E+00 ort(H,U,f) =-0.273E+00 0.239E+00 0.160E+00
CGA:  33    -0.223779730161E+03   -0.68226E-01   -0.65495E-01  5760   0.896E+00 0.126E+00
 gam= 0.596 trial= 0.234  step= 0.185 mean= 0.234
 gam= 1.016 g(H,U,f)=  0.292E+00 0.483E+00 0.135E+00 ort(H,U,f) =-0.126E+00 0.430E+00-0.140E+00
CGA:  34    -0.223854624707E+03   -0.74895E-01   -0.89723E-01  5760   0.910E+00 0.163E+00
 gam= 1.016 trial= 0.231  step= 0.026 mean= 0.231
 gam= 0.000 g(H,U,f)=  0.247E+00 0.361E+00 0.161E-01 ort(H,U,f) = 0.127E+00 0.757E+00-0.173E-01
CGA:  35    -0.223880593696E+03   -0.25969E-01   -0.13802E-01  5760   0.625E+00 0.866E+00
 gam= 0.000 trial= 0.221  step= 0.191 mean= 0.221
 gam= 1.237 g(H,U,f)=  0.906E-01 0.151E+00 0.531E+00 ort(H,U,f) = 0.531E-01 0.261E-01-0.990E-01
CGA:  36    -0.223940693279E+03   -0.60100E-01   -0.59670E-01  5760   0.773E+00-0.198E-01
 gam= 1.237 trial= 0.220  step= 0.144 mean= 0.220
 gam= 0.501 g(H,U,f)=  0.148E+00 0.160E+00 0.787E-01 ort(H,U,f) =-0.491E-01 0.169E-01 0.725E-01
CGA:  37    -0.223988076073E+03   -0.47383E-01   -0.53816E-01  5760   0.387E+00 0.402E-01
 gam= 0.501 trial= 0.216  step= 0.401 mean= 0.216
 gam= 0.482 g(H,U,f)=  0.787E-01 0.948E-01 0.133E-01 ort(H,U,f) =-0.142E-01 0.116E+00 0.200E-01
CGA:  38    -0.224085720878E+03   -0.97645E-01   -0.81641E-01  5760   0.187E+00 0.122E+00
 gam= 0.482 trial= 0.225  step= 0.353 mean= 0.225
 gam= 0.691 g(H,U,f)=  0.505E-01 0.772E-01 0.145E-02 ort(H,U,f) =-0.325E-01 0.680E-01 0.220E-02
CGA:  39    -0.224132203868E+03   -0.46483E-01   -0.43322E-01  5760   0.129E+00 0.377E-01
 gam= 0.691 trial= 0.231  step= 0.472 mean= 0.231
 gam= 1.839 g(H,U,f)=  0.770E-01 0.160E+00 0.426E-03 ort(H,U,f) =-0.383E-01 0.547E-01-0.499E-03
CGA:  40    -0.224169982249E+03   -0.37778E-01   -0.36635E-01  5760   0.237E+00 0.160E-01
 gam= 1.839 trial= 0.243  step= 0.251 mean= 0.243
 gam= 0.858 g(H,U,f)=  0.648E-01 0.138E+00 0.462E-03 ort(H,U,f) =-0.336E-01 0.110E-01-0.974E-03
CGA:  41    -0.224203197371E+03   -0.33215E-01   -0.33512E-01  5760   0.204E+00-0.236E-01
 gam= 0.858 trial= 0.244  step= 0.374 mean= 0.244
 gam= 0.596 g(H,U,f)=  0.633E-01 0.559E-01 0.196E-02 ort(H,U,f) =-0.351E-01 0.227E-01 0.310E-02
CGA:  42    -0.224236327018E+03   -0.33130E-01   -0.34279E-01  5760   0.121E+00-0.928E-02
 gam= 0.596 trial= 0.250  step= 0.339 mean= 0.250
 gam= 0.535 g(H,U,f)=  0.304E-01 0.343E-01 0.150E-03 ort(H,U,f) =-0.298E-02 0.914E-02 0.129E-02
CGA:  43    -0.224256365282E+03   -0.20038E-01   -0.19608E-01  5760   0.649E-01 0.744E-02
 gam= 0.535 trial= 0.255  step= 0.388 mean= 0.255
 gam= 1.414 g(H,U,f)=  0.242E-01 0.661E-01 0.146E-02 ort(H,U,f) =-0.455E-02 0.772E-02-0.275E-02
CGA:  44    -0.224269877265E+03   -0.13512E-01   -0.13361E-01  5760   0.917E-01 0.420E-03
 gam= 1.414 trial= 0.261  step= 0.288 mean= 0.261
 gam= 0.906 g(H,U,f)=  0.305E-01 0.526E-01 0.674E-04 ort(H,U,f) =-0.142E-01 0.110E-01-0.255E-03
CGA:  45    -0.224283021848E+03   -0.13145E-01   -0.13309E-01  5760   0.831E-01-0.348E-02
 gam= 0.906 trial= 0.263  step= 0.334 mean= 0.263
 gam= 0.625 g(H,U,f)=  0.304E-01 0.201E-01 0.150E-02 ort(H,U,f) =-0.235E-01 0.232E-01 0.203E-02
CGA:  46    -0.224296326902E+03   -0.13305E-01   -0.13331E-01  5760   0.519E-01 0.167E-02
 gam= 0.625 trial= 0.266  step= 0.420 mean= 0.266
 gam= 0.888 g(H,U,f)=  0.240E-01 0.216E-01 0.540E-03 ort(H,U,f) =-0.649E-02 0.125E-01 0.524E-03
CGA:  47    -0.224308128159E+03   -0.11801E-01   -0.11131E-01  5760   0.461E-01 0.654E-02
 gam= 0.888 trial= 0.274  step= 0.334 mean= 0.274
 gam= 0.894 g(H,U,f)=  0.123E-01 0.267E-01 0.225E-02 ort(H,U,f) =-0.631E-02 0.822E-02-0.133E-02
CGA:  48    -0.224316859169E+03   -0.87310E-02   -0.86829E-02  5760   0.413E-01 0.583E-03
 gam= 0.894 trial= 0.277  step= 0.280 mean= 0.277
 gam= 0.631 g(H,U,f)=  0.141E-01 0.118E-01 0.170E-03 ort(H,U,f) =-0.381E-02 0.348E-02-0.412E-03
CGA:  49    -0.224322699399E+03   -0.58402E-02   -0.58427E-02  5760   0.260E-01-0.742E-03
 gam= 0.631 trial= 0.277  step= 0.365 mean= 0.277
 gam= 0.566 g(H,U,f)=  0.919E-02 0.550E-02 0.388E-04 ort(H,U,f) =-0.986E-03 0.117E-02-0.391E-04
CGA:  50    -0.224327372634E+03   -0.46732E-02   -0.46648E-02  5760   0.147E-01 0.141E-03
 gam= 0.566 trial= 0.282  step= 0.458 mean= 0.282
 gam= 0.795 g(H,U,f)=  0.545E-02 0.621E-02 0.583E-04 ort(H,U,f) =-0.110E-02 0.112E-02-0.724E-05
CGA:  51    -0.224330763587E+03   -0.33910E-02   -0.33903E-02  5760   0.117E-01 0.157E-04
 gam= 0.795 trial= 0.290  step= 0.272 mean= 0.290
 gam= 0.732 g(H,U,f)=  0.289E-02 0.555E-02 0.139E-03 ort(H,U,f) =-0.624E-03 0.823E-03-0.676E-04
CGA:  52    -0.224332359861E+03   -0.15963E-02   -0.15961E-02  5760   0.857E-02 0.131E-03
 gam= 0.732 trial= 0.289  step= 0.351 mean= 0.289
 gam= 0.983 g(H,U,f)=  0.354E-02 0.480E-02 0.853E-04 ort(H,U,f) =-0.151E-02 0.147E-02-0.584E-04
CGA:  53    -0.224333865415E+03   -0.15056E-02   -0.15202E-02  5760   0.843E-02-0.102E-03
 gam= 0.983 trial= 0.293  step= 0.542 mean= 0.293
 gam= 0.985 g(H,U,f)=  0.446E-02 0.383E-02 0.849E-05 ort(H,U,f) =-0.340E-02 0.357E-02 0.103E-04
CGA:  54    -0.224336148946E+03   -0.22835E-02   -0.22572E-02  5760   0.830E-02 0.179E-03
 gam= 0.985 trial= 0.305  step= 0.491 mean= 0.305
 gam= 1.148 g(H,U,f)=  0.572E-02 0.377E-02 0.437E-04 ort(H,U,f) =-0.325E-02 0.324E-02-0.182E-04
CGA:  55    -0.224338230366E+03   -0.20814E-02   -0.20798E-02  5760   0.953E-02-0.247E-04
 gam= 1.148 trial= 0.314  step= 0.614 mean= 0.314
 gam= 1.830 g(H,U,f)=  0.647E-02 0.104E-01 0.613E-03 ort(H,U,f) =-0.243E-02 0.250E-02-0.799E-04
CGA:  56    -0.224341087232E+03   -0.28569E-02   -0.29164E-02  5760   0.174E-01-0.526E-05
 gam= 1.830 trial= 0.329  step= 0.270 mean= 0.329
 gam= 0.686 g(H,U,f)=  0.693E-02 0.481E-02 0.228E-03 ort(H,U,f) =-0.461E-02 0.478E-02-0.438E-03
CGA:  57    -0.224343432308E+03   -0.23451E-02   -0.23508E-02  5760   0.120E-01-0.264E-03
 gam= 0.686 trial= 0.326  step= 0.408 mean= 0.326
 gam= 0.943 g(H,U,f)=  0.605E-02 0.519E-02 0.439E-04 ort(H,U,f) =-0.163E-02 0.143E-02-0.433E-04
CGA:  58    -0.224345825169E+03   -0.23929E-02   -0.24061E-02  5760   0.113E-01-0.243E-03
 gam= 0.943 trial= 0.330  step= 0.448 mean= 0.330
 gam= 0.844 g(H,U,f)=  0.440E-02 0.464E-02 0.477E-03 ort(H,U,f) =-0.214E-02 0.209E-02-0.304E-03
CGA:  59    -0.224348297086E+03   -0.24719E-02   -0.24764E-02  5760   0.952E-02-0.351E-03
 gam= 0.844 trial= 0.336  step= 0.303 mean= 0.336
 gam= 1.014 g(H,U,f)=  0.365E-02 0.579E-02 0.211E-03 ort(H,U,f) =-0.863E-03 0.108E-02 0.131E-03
CGA:  60    -0.224349690932E+03   -0.13938E-02   -0.13967E-02  5760   0.965E-02 0.349E-03
 gam= 1.014 trial= 0.335  step= 0.366 mean= 0.335
 gam= 0.809 g(H,U,f)=  0.393E-02 0.386E-02 0.100E-04 ort(H,U,f) =-0.165E-02 0.193E-02 0.388E-04
CGA:  61    -0.224351527468E+03   -0.18365E-02   -0.18310E-02  5760   0.781E-02 0.317E-03
 gam= 0.809 trial= 0.336  step= 0.455 mean= 0.336
 gam= 0.816 g(H,U,f)=  0.323E-02 0.308E-02 0.520E-04 ort(H,U,f) =-0.173E-02 0.172E-02-0.443E-04
CGA:  62    -0.224353361335E+03   -0.18339E-02   -0.18357E-02  5760   0.637E-02-0.585E-04
 gam= 0.816 trial= 0.342  step= 0.494 mean= 0.342
 gam= 0.863 g(H,U,f)=  0.306E-02 0.237E-02 0.632E-04 ort(H,U,f) =-0.147E-02 0.152E-02 0.159E-03
CGA:  63    -0.224354927850E+03   -0.15665E-02   -0.15615E-02  5760   0.549E-02 0.202E-03
 gam= 0.863 trial= 0.350  step= 0.504 mean= 0.350
 gam= 0.913 g(H,U,f)=  0.256E-02 0.245E-02 0.692E-05 ort(H,U,f) =-0.808E-03 0.119E-02 0.318E-04
CGA:  64    -0.224356400865E+03   -0.14730E-02   -0.14281E-02  5760   0.501E-02 0.411E-03
 gam= 0.913 trial= 0.357  step= 0.527 mean= 0.357
 gam= 0.959 g(H,U,f)=  0.222E-02 0.255E-02 0.469E-04 ort(H,U,f) =-0.833E-03 0.955E-03-0.544E-04
CGA:  65    -0.224357828610E+03   -0.14277E-02   -0.14193E-02  5760   0.481E-02 0.674E-04
 gam= 0.959 trial= 0.366  step= 0.477 mean= 0.366
 gam= 0.000 g(H,U,f)=  0.216E-02 0.240E-02 0.189E-03 ort(H,U,f) =-0.120E-02 0.124E-02-0.189E-03
SDA:  66    -0.224358992507E+03   -0.11639E-02   -0.11639E-02  5760   0.475E-02-0.152E-03
 gam= 0.000 trial= 0.371  step= 0.280 mean= 0.371
 gam= 0.888 g(H,U,f)=  0.104E-02 0.282E-02 0.363E-03 ort(H,U,f) = 0.674E-03-0.461E-03-0.258E-03
CGA:  67    -0.224359652627E+03   -0.66012E-03   -0.66548E-03  5760   0.422E-02-0.450E-04
 gam= 0.888 trial= 0.367  step= 0.341 mean= 0.367
 gam= 0.700 g(H,U,f)=  0.102E-02 0.185E-02 0.790E-04 ort(H,U,f) =-0.315E-03 0.347E-03-0.532E-04
CGA:  68    -0.224360364885E+03   -0.71226E-03   -0.71141E-03  5760   0.295E-02-0.214E-04
 gam= 0.700 trial= 0.366  step= 0.555 mean= 0.366
 gam= 0.515 g(H,U,f)=  0.852E-03 0.660E-03 0.843E-05 ort(H,U,f) =-0.749E-03 0.798E-03-0.115E-04
CGA:  69    -0.224361187407E+03   -0.82252E-03   -0.81566E-03  5760   0.152E-02 0.376E-04
 gam= 0.515 trial= 0.375  step= 0.697 mean= 0.375
 gam= 1.052 g(H,U,f)=  0.638E-03 0.887E-03 0.745E-04 ort(H,U,f) =-0.233E-03 0.226E-03-0.413E-05
CGA:  70    -0.224361718010E+03   -0.53060E-03   -0.53643E-03  5760   0.160E-02-0.110E-04
 gam= 1.052 trial= 0.391  step= 0.400 mean= 0.391
 gam= 1.074 g(H,U,f)=  0.424E-03 0.112E-02 0.178E-03 ort(H,U,f) =-0.308E-04 0.114E-03-0.106E-03
CGA:  71    -0.224362035865E+03   -0.31786E-03   -0.31760E-03  5760   0.172E-02-0.228E-04
 gam= 1.074 trial= 0.392  step= 0.261 mean= 0.392
 gam= 0.411 g(H,U,f)=  0.289E-03 0.406E-03 0.995E-05 ort(H,U,f) =-0.174E-03 0.192E-03-0.146E-04
CGA:  72    -0.224362255992E+03   -0.22013E-03   -0.22098E-03  5760   0.706E-03 0.320E-05
 gam= 0.411 trial= 0.385  step= 0.560 mean= 0.385
 gam= 0.869 g(H,U,f)=  0.238E-03 0.369E-03 0.647E-05 ort(H,U,f) =-0.733E-04 0.886E-04-0.420E-05
CGA:  73    -0.224362455440E+03   -0.19945E-03   -0.19786E-03  5760   0.613E-03 0.111E-04
 gam= 0.869 trial= 0.394  step= 0.727 mean= 0.394
 gam= 0.915 g(H,U,f)=  0.205E-03 0.327E-03 0.284E-04 ort(H,U,f) =-0.137E-03 0.157E-03-0.744E-05
CGA:  74    -0.224362684668E+03   -0.22923E-03   -0.22637E-03  5760   0.561E-03 0.125E-04
 gam= 0.915 trial= 0.410  step= 0.342 mean= 0.410
 gam= 1.373 g(H,U,f)=  0.248E-03 0.444E-03 0.790E-04 ort(H,U,f) =-0.552E-04 0.882E-04-0.362E-04
CGA:  75    -0.224362782292E+03   -0.97624E-04   -0.97899E-04  5760   0.771E-03-0.320E-05
 gam= 1.373 trial= 0.407  step= 0.450 mean= 0.407
 gam= 0.526 g(H,U,f)=  0.195E-03 0.207E-03 0.393E-05 ort(H,U,f) =-0.142E-03 0.168E-03-0.654E-05
CGA:  76    -0.224362955526E+03   -0.17323E-03   -0.17238E-03  5760   0.406E-03 0.193E-04
 gam= 0.526 trial= 0.409  step= 0.718 mean= 0.409
 gam= 0.907 g(H,U,f)=  0.164E-03 0.191E-03 0.131E-04 ort(H,U,f) =-0.774E-04 0.748E-04 0.621E-06
CGA:  77    -0.224363104489E+03   -0.14896E-03   -0.14926E-03  5760   0.368E-03-0.202E-05
 gam= 0.907 trial= 0.425  step= 0.458 mean= 0.425
 gam= 1.697 g(H,U,f)=  0.144E-03 0.411E-03 0.700E-04 ort(H,U,f) = 0.164E-05 0.244E-04-0.300E-04
CGA:  78    -0.224363188531E+03   -0.84042E-04   -0.83876E-04  5760   0.625E-03-0.403E-05
 gam= 1.697 trial= 0.426  step= 0.310 mean= 0.426
 gam= 0.566 g(H,U,f)=  0.170E-03 0.179E-03 0.396E-05 ort(H,U,f) =-0.141E-03 0.140E-03-0.598E-05
CGA:  79    -0.224363284225E+03   -0.95694E-04   -0.95662E-04  5760   0.353E-03-0.710E-05
 gam= 0.566 trial= 0.420  step= 0.783 mean= 0.420
 gam= 1.007 g(H,U,f)=  0.177E-03 0.178E-03 0.308E-06 ort(H,U,f) =-0.109E-03 0.103E-03 0.306E-06
CGA:  80    -0.224363419877E+03   -0.13565E-03   -0.13684E-03  5760   0.356E-03-0.627E-05
 gam= 1.007 trial= 0.439  step= 0.847 mean= 0.439
 gam= 1.740 g(H,U,f)=  0.201E-03 0.371E-03 0.469E-04 ort(H,U,f) =-0.104E-03 0.107E-03-0.616E-05
CGA:  81    -0.224363567903E+03   -0.14803E-03   -0.14810E-03  5760   0.619E-03-0.278E-05
 gam= 1.740 trial= 0.459  step= 0.282 mean= 0.459
 gam= 1.047 g(H,U,f)=  0.236E-03 0.359E-03 0.535E-04 ort(H,U,f) =-0.730E-04 0.102E-03-0.370E-04
CGA:  82    -0.224363653840E+03   -0.85936E-04   -0.86491E-04  5760   0.648E-03-0.840E-05
 gam= 1.047 trial= 0.450  step= 0.625 mean= 0.450
 gam= 0.628 g(H,U,f)=  0.246E-03 0.160E-03 0.791E-06 ort(H,U,f) =-0.170E-03 0.198E-03-0.181E-05
CGA:  83    -0.224363857347E+03   -0.20351E-03   -0.19991E-03  5760   0.407E-03 0.255E-04
 gam= 0.628 trial= 0.459  step= 0.650 mean= 0.459
 gam= 1.431 g(H,U,f)=  0.204E-03 0.376E-03 0.303E-05 ort(H,U,f) =-0.491E-04 0.576E-04-0.171E-05
CGA:  84    -0.224363995379E+03   -0.13803E-03   -0.13769E-03  5760   0.583E-03 0.683E-05
 gam= 1.431 trial= 0.468  step= 0.274 mean= 0.468
 gam= 0.868 g(H,U,f)=  0.163E-03 0.336E-03 0.697E-05 ort(H,U,f) =-0.428E-04 0.670E-04-0.277E-05
CGA:  85    -0.224364078960E+03   -0.83581E-04   -0.81130E-04  5760   0.506E-03 0.215E-04
 gam= 0.868 trial= 0.459  step= 0.444 mean= 0.459
 gam= 0.519 g(H,U,f)=  0.144E-03 0.117E-03 0.944E-06 ort(H,U,f) =-0.946E-04 0.928E-04 0.165E-05
CGA:  86    -0.224364195522E+03   -0.11656E-03   -0.11651E-03  5760   0.262E-03-0.153E-06
 gam= 0.519 trial= 0.458  step= 0.650 mean= 0.458
 gam= 1.030 g(H,U,f)=  0.835E-04 0.186E-03 0.754E-06 ort(H,U,f) =-0.180E-04 0.219E-04 0.411E-06
CGA:  87    -0.224364281054E+03   -0.85532E-04   -0.85208E-04  5760   0.270E-03 0.434E-05
 gam= 1.030 trial= 0.468  step= 0.280 mean= 0.468
 gam= 0.804 g(H,U,f)=  0.756E-04 0.139E-03 0.213E-05 ort(H,U,f) =-0.266E-04 0.326E-04 0.200E-05
CGA:  88    -0.224364320150E+03   -0.39097E-04   -0.38515E-04  5760   0.217E-03 0.800E-05
 gam= 0.804 trial= 0.458  step= 0.332 mean= 0.458
 gam= 0.594 g(H,U,f)=  0.610E-04 0.663E-04 0.178E-05 ort(H,U,f) =-0.211E-04 0.213E-04 0.335E-05
CGA:  89    -0.224364357742E+03   -0.37591E-04   -0.37095E-04  5760   0.129E-03 0.350E-05
 gam= 0.594 trial= 0.452  step= 0.673 mean= 0.452
 gam= 0.699 g(H,U,f)=  0.412E-04 0.479E-04 0.105E-05 ort(H,U,f) =-0.161E-04 0.169E-04 0.279E-05
CGA:  90    -0.224364402331E+03   -0.44589E-04   -0.44122E-04  5760   0.901E-04 0.360E-05
 gam= 0.699 trial= 0.463  step= 0.489 mean= 0.463
 gam= 0.833 g(H,U,f)=  0.300E-04 0.446E-04 0.460E-06 ort(H,U,f) =-0.981E-05 0.980E-05 0.109E-05
CGA:  91    -0.224364425024E+03   -0.22693E-04   -0.22659E-04  5760   0.751E-04 0.108E-05
 gam= 0.833 trial= 0.464  step= 0.283 mean= 0.464
 gam= 0.948 g(H,U,f)=  0.253E-04 0.456E-04 0.246E-06 ort(H,U,f) =-0.255E-05 0.499E-05-0.362E-06
CGA:  92    -0.224364436110E+03   -0.11086E-04   -0.10755E-04  5760   0.711E-04 0.207E-05
 gam= 0.948 trial= 0.455  step= 0.500 mean= 0.455
 gam= 0.614 g(H,U,f)=  0.211E-04 0.223E-04 0.279E-06 ort(H,U,f) =-0.168E-04 0.145E-04 0.994E-06
CGA:  93    -0.224364454304E+03   -0.18194E-04   -0.18284E-04  5760   0.436E-04-0.131E-05
 gam= 0.614 trial= 0.457  step= 0.670 mean= 0.457
 gam= 0.812 g(H,U,f)=  0.206E-04 0.148E-04 0.363E-07 ort(H,U,f) =-0.107E-04 0.111E-04-0.288E-06
CGA:  94    -0.224364468714E+03   -0.14410E-04   -0.14346E-04  5760   0.354E-04 0.129E-06
 gam= 0.812 trial= 0.468  step= 0.705 mean= 0.468
 gam= 1.035 g(H,U,f)=  0.154E-04 0.211E-04 0.216E-06 ort(H,U,f) =-0.665E-05 0.724E-05-0.286E-06
CGA:  95    -0.224364481292E+03   -0.12578E-04   -0.12532E-04  5760   0.367E-04 0.309E-06
 gam= 1.035 trial= 0.480  step= 0.289 mean= 0.480
 gam= 0.915 g(H,U,f)=  0.121E-04 0.211E-04 0.323E-06 ort(H,U,f) = 0.779E-06 0.158E-05-0.598E-06
CGA:  96    -0.224364486754E+03   -0.54628E-05   -0.53465E-05  5760   0.336E-04 0.176E-05
 gam= 0.915 trial= 0.470  step= 0.417 mean= 0.470
 gam= 0.000 g(H,U,f)=  0.888E-05 0.962E-05 0.971E-07 ort(H,U,f) =-0.501E-05 0.558E-05-0.140E-06
SDA:  97    -0.224364494101E+03   -0.73461E-05   -0.73392E-05  5760   0.186E-04 0.429E-06
 gam= 0.000 trial= 0.468  step= 0.297 mean= 0.468
 gam= 0.583 g(H,U,f)=  0.304E-05 0.753E-05 0.270E-06 ort(H,U,f) = 0.172E-05-0.135E-05 0.849E-07
CGA:  98    -0.224364496877E+03   -0.27767E-05   -0.27628E-05  5760   0.108E-04 0.449E-06
 gam= 0.583 trial= 0.459  step= 0.338 mean= 0.459
 gam= 1.220 g(H,U,f)=  0.358E-05 0.947E-05 0.166E-06 ort(H,U,f) = 0.281E-06-0.804E-08 0.152E-06
CGA:  99    -0.224364498784E+03   -0.19064E-05   -0.18766E-05  5760   0.132E-04 0.426E-06
 gam= 1.220 trial= 0.453  step= 0.476 mean= 0.453
 gam= 0.575 g(H,U,f)=  0.399E-05 0.356E-05 0.447E-07 ort(H,U,f) =-0.401E-05 0.467E-05 0.207E-06
CGA: 100    -0.224364502070E+03   -0.32860E-05   -0.32735E-05  5760   0.760E-05 0.864E-06
 gam= 0.575 trial= 0.454  step= 0.728 mean= 0.454
 gam= 1.266 g(H,U,f)=  0.467E-05 0.491E-05 0.334E-07 ort(H,U,f) =-0.181E-05 0.254E-05 0.596E-07
CGA: 101    -0.224364505137E+03   -0.30676E-05   -0.29449E-05  5760   0.962E-05 0.793E-06
 gam= 1.266 trial= 0.468  step= 0.469 mean= 0.468
 gam= 1.614 g(H,U,f)=  0.455E-05 0.109E-04 0.124E-06 ort(H,U,f) =-0.235E-05 0.276E-05-0.771E-07
CGA: 102    -0.224364507628E+03   -0.24904E-05   -0.24904E-05  5760   0.155E-04 0.336E-06
 gam= 1.614 trial= 0.468  step= 0.283 mean= 0.468
 gam= 0.602 g(H,U,f)=  0.546E-05 0.387E-05 0.209E-07 ort(H,U,f) =-0.440E-05 0.458E-05 0.922E-07
CGA: 103    -0.224364509925E+03   -0.22974E-05   -0.22780E-05  5760   0.936E-05 0.277E-06
 gam= 0.602 trial= 0.459  step= 0.620 mean= 0.459
 gam= 0.891 g(H,U,f)=  0.426E-05 0.403E-05 0.428E-07 ort(H,U,f) =-0.191E-05 0.262E-05-0.160E-06
CGA: 104    -0.224364512940E+03   -0.30151E-05   -0.29499E-05  5760   0.833E-05 0.554E-06
 gam= 0.891 trial= 0.467  step= 0.380 mean= 0.467
 gam= 1.589 g(H,U,f)=  0.387E-05 0.910E-05 0.270E-06 ort(H,U,f) =-0.422E-06 0.877E-06-0.366E-06
CGA: 105    -0.224364514642E+03   -0.17019E-05   -0.16767E-05  5760   0.132E-04 0.890E-07
 gam= 1.589 trial= 0.463  step= 0.334 mean= 0.463
 gam= 0.555 g(H,U,f)=  0.391E-05 0.333E-05 0.104E-06 ort(H,U,f) =-0.329E-05 0.315E-05-0.349E-06
CGA: 106    -0.224364516917E+03   -0.22747E-05   -0.22346E-05  5760   0.735E-05-0.488E-06
 gam= 0.555 trial= 0.456  step= 0.559 mean= 0.456
 gam= 1.061 g(H,U,f)=  0.324E-05 0.446E-05 0.101E-06 ort(H,U,f) =-0.161E-05 0.159E-05-0.585E-07
CGA: 107    -0.224364518884E+03   -0.19673E-05   -0.19761E-05  5760   0.780E-05-0.804E-07
 gam= 1.061 trial= 0.461  step= 0.250 mean= 0.461
 gam= 0.894 g(H,U,f)=  0.269E-05 0.419E-05 0.964E-07 ort(H,U,f) =-0.369E-06 0.600E-06-0.829E-07
CGA: 108    -0.224364519908E+03   -0.10242E-05   -0.96428E-06  5760   0.697E-05 0.148E-06
 gam= 0.894 trial= 0.451  step= 0.475 mean= 0.451
 gam= 0.727 g(H,U,f)=  0.271E-05 0.231E-05 0.571E-07 ort(H,U,f) =-0.139E-05 0.123E-05 0.121E-07
CGA: 109    -0.224364521592E+03   -0.16836E-05   -0.16851E-05  5760   0.507E-05-0.148E-06
 gam= 0.727 trial= 0.452  step= 0.480 mean= 0.452
 gam= 1.290 g(H,U,f)=  0.213E-05 0.432E-05 0.881E-07 ort(H,U,f) =-0.704E-06 0.505E-06 0.108E-07
CGA: 110    -0.224364522776E+03   -0.11845E-05   -0.11900E-05  5760   0.654E-05-0.188E-06
 gam= 1.290 trial= 0.453  step= 0.220 mean= 0.453
 gam= 0.569 g(H,U,f)=  0.186E-05 0.183E-05 0.325E-07 ort(H,U,f) =-0.820E-06 0.618E-06 0.534E-07
CGA: 111    -0.224364523526E+03   -0.74963E-06   -0.69388E-06  5760   0.373E-05-0.149E-06
 gam= 0.569 trial= 0.442  step= 0.591 mean= 0.442
 gam= 0.957 g(H,U,f)=  0.144E-05 0.208E-05 0.389E-07 ort(H,U,f) =-0.721E-06 0.692E-06 0.415E-07
CGA: 112    -0.224364524603E+03   -0.10772E-05   -0.10764E-05  5760   0.356E-05 0.123E-07
 gam= 0.957 trial= 0.449  step= 0.249 mean= 0.449
 gam= 0.938 g(H,U,f)=  0.128E-05 0.203E-05 0.334E-07 ort(H,U,f) =-0.946E-07 0.248E-06-0.195E-07
CGA: 113    -0.224364525058E+03   -0.45501E-06   -0.44457E-06  5760   0.334E-05 0.134E-06
 gam= 0.938 trial= 0.439  step= 0.407 mean= 0.439
 final diagonalization
   1 F= -.23405643E+03 E0= -.23405504E+03  d E =-.278654E-02  mag=     6.0000
