 vasp.5.4.4.18Apr17-6-g9f103f2a35 (build Nov 22 2021 14:44:17) complex          
  
 executed on             LinuxIFC date 2022.08.08  11:34:01
 running on   64 total cores
 distrk:  each k-point on   64 cores,    1 groups
 distr:  one band on NCORES_PER_BAND=   4 cores,   16 groups


--------------------------------------------------------------------------------------------------------


 INCAR:
 POTCAR:    PAW_PBE Li 17Jan2003                  
 POTCAR:    PAW_PBE Co 02Aug2007                  
 POTCAR:    PAW_PBE O 08Apr2002                   
 POTCAR:    PAW_PBE Li 17Jan2003                  
   VRHFIN =Li: s1p0                                                             
   LEXCH  = PE                                                                  
   EATOM  =     5.3001 eV,    0.3895 Ry                                         
                                                                                
   TITEL  = PAW_PBE Li 17Jan2003                                                
   LULTRA =        F    use ultrasoft PP ?                                      
   IUNSCR =        1    unscreen: 0-lin 1-nonlin 2-no                           
   RPACOR =    1.500    partial core radius                                     
   POMASS =    7.010; ZVAL   =    1.000    mass and valenz                      
   RCORE  =    2.050    outmost cutoff radius                                   
   RWIGS  =    2.600; RWIGS  =    1.376    wigner-seitz radius (au A)           
   ENMAX  =  140.000; ENMIN  =  100.000 eV                                      
   ICORE  =        2    local potential                                         
   LCOR   =        T    correct aug charges                                     
   LPAW   =        T    paw PP                                                  
   EAUG   =  331.638                                                            
   DEXC   =    0.000                                                            
   RMAX   =    2.098    core radius for proj-oper                               
   RAUG   =    1.300    factor for augmentation sphere                          
   RDEP   =    2.094    radius for radial grids                                 
   RDEPT  =    1.810    core radius for aug-charge                              
                                                                                
   Atomic configuration                                                         
    4 entries                                                                   
     n  l   j            E        occ.                                          
     1  0  0.50       -51.8549   2.0000                                         
     2  0  0.50        -2.8742   1.0000                                         
     2  1  0.50        -1.3606   0.0000                                         
     3  2  1.50        -1.3606   0.0000                                         
   Description                                                                  
     l       E           TYP  RCUT    TYP  RCUT                                 
     0     -2.8742052     23  2.050                                             
     0     27.2116520     23  2.050                                             
     1     -1.3605826     23  2.050                                             
     2     -1.3605826     23  2.050                                             
  local pseudopotential read in
  partial core-charges read in
  partial kinetic energy density read in
  atomic valenz-charges read in
  non local Contribution for L=           0  read in
    real space projection operators read in
  non local Contribution for L=           0  read in
    real space projection operators read in
  non local Contribution for L=           1  read in
    real space projection operators read in
    PAW grid and wavefunctions read in
 
   number of l-projection  operators is LMAX  =           3
   number of lm-projection operators is LMMAX =           5
 
 POTCAR:    PAW_PBE Co 02Aug2007                  
   VRHFIN =Co: d8 s1                                                            
   LEXCH  = PE                                                                  
   EATOM  =   813.3670 eV,   59.7808 Ry                                         
                                                                                
   TITEL  = PAW_PBE Co 02Aug2007                                                
   LULTRA =        F    use ultrasoft PP ?                                      
   IUNSCR =        1    unscreen: 0-lin 1-nonlin 2-no                           
   RPACOR =    2.000    partial core radius                                     
   POMASS =   58.933; ZVAL   =    9.000    mass and valenz                      
   RCORE  =    2.300    outmost cutoff radius                                   
   RWIGS  =    2.460; RWIGS  =    1.302    wigner-seitz radius (au A)           
   ENMAX  =  267.968; ENMIN  =  200.976 eV                                      
   RCLOC  =    1.203    cutoff for local pot                                    
   LCOR   =        T    correct aug charges                                     
   LPAW   =        T    paw PP                                                  
   EAUG   =  477.818                                                            
   DEXC   =    0.000                                                            
   RMAX   =    2.360    core radius for proj-oper                               
   RAUG   =    1.300    factor for augmentation sphere                          
   RDEP   =    2.393    radius for radial grids                                 
   RDEPT  =    1.864    core radius for aug-charge                              
                                                                                
   Atomic configuration                                                         
    9 entries                                                                   
     n  l   j            E        occ.                                          
     1  0  0.50     -7587.6674   2.0000                                         
     2  0  0.50      -893.6084   2.0000                                         
     2  1  1.50      -764.5805   6.0000                                         
     3  0  0.50       -97.5973   2.0000                                         
     3  1  1.50       -60.9648   6.0000                                         
     3  2  2.50        -4.2382   8.0000                                         
     4  0  0.50        -4.3746   1.0000                                         
     4  1  1.50        -4.0817   0.0000                                         
     4  3  2.50        -1.3606   0.0000                                         
   Description                                                                  
     l       E           TYP  RCUT    TYP  RCUT                                 
     2     -4.2382362     23  2.300                                             
     2     -5.5988188     23  2.300                                             
     0     -4.3745797     23  2.300                                             
     0      5.7660125     23  2.300                                             
     1     -2.7211652     23  2.300                                             
     1     16.9860234     23  2.300                                             
  local pseudopotential read in
  partial core-charges read in
  partial kinetic energy density read in
  atomic valenz-charges read in
  non local Contribution for L=           2  read in
    real space projection operators read in
  non local Contribution for L=           2  read in
    real space projection operators read in
  non local Contribution for L=           0  read in
    real space projection operators read in
  non local Contribution for L=           0  read in
    real space projection operators read in
  non local Contribution for L=           1  read in
    real space projection operators read in
  non local Contribution for L=           1  read in
    real space projection operators read in
    PAW grid and wavefunctions read in
 
   number of l-projection  operators is LMAX  =           6
   number of lm-projection operators is LMMAX =          18
 
 POTCAR:    PAW_PBE O 08Apr2002                   
   VRHFIN =O: s2p4                                                              
   LEXCH  = PE                                                                  
   EATOM  =   432.3788 eV,   31.7789 Ry                                         
                                                                                
   TITEL  = PAW_PBE O 08Apr2002                                                 
   LULTRA =        F    use ultrasoft PP ?                                      
   IUNSCR =        1    unscreen: 0-lin 1-nonlin 2-no                           
   RPACOR =    1.200    partial core radius                                     
   POMASS =   16.000; ZVAL   =    6.000    mass and valenz                      
   RCORE  =    1.520    outmost cutoff radius                                   
   RWIGS  =    1.550; RWIGS  =    0.820    wigner-seitz radius (au A)           
   ENMAX  =  400.000; ENMIN  =  300.000 eV                                      
   ICORE  =        2    local potential                                         
   LCOR   =        T    correct aug charges                                     
   LPAW   =        T    paw PP                                                  
   EAUG   =  605.392                                                            
   DEXC   =    0.000                                                            
   RMAX   =    1.553    core radius for proj-oper                               
   RAUG   =    1.300    factor for augmentation sphere                          
   RDEP   =    1.550    radius for radial grids                                 
   RDEPT  =    1.329    core radius for aug-charge                              
                                                                                
   Atomic configuration                                                         
    4 entries                                                                   
     n  l   j            E        occ.                                          
     1  0  0.50      -514.6923   2.0000                                         
     2  0  0.50       -23.9615   2.0000                                         
     2  1  0.50        -9.0305   4.0000                                         
     3  2  1.50        -9.5241   0.0000                                         
   Description                                                                  
     l       E           TYP  RCUT    TYP  RCUT                                 
     0    -23.9615318     23  1.200                                             
     0     -9.5240782     23  1.200                                             
     1     -9.0304911     23  1.520                                             
     1      8.1634956     23  1.520                                             
     2     -9.5240782      7  1.500                                             
  local pseudopotential read in
  partial core-charges read in
  partial kinetic energy density read in
  kinetic energy density of atom read in
  atomic valenz-charges read in
  non local Contribution for L=           0  read in
    real space projection operators read in
  non local Contribution for L=           0  read in
    real space projection operators read in
  non local Contribution for L=           1  read in
    real space projection operators read in
  non local Contribution for L=           1  read in
    real space projection operators read in
    PAW grid and wavefunctions read in
 
   number of l-projection  operators is LMAX  =           4
   number of lm-projection operators is LMMAX =           8
 
 Optimization of the real space projectors (new method)

 maximal supplied QI-value         = 18.33
 optimisation between [QCUT,QGAM] = [ 12.46, 24.93] = [ 43.51,174.03] Ry 
 Optimized for a Real-space Cutoff    1.13 Angstroem

   l    n(q)    QCUT    max X(q) W(low)/X(q) W(high)/X(q)  e(spline) 
   0      8    12.465    33.825    0.12E-03    0.29E-03    0.99E-07
   0      8    12.465     8.944    0.86E-04    0.22E-03    0.72E-07
   1      8    12.465     4.214    0.27E-03    0.11E-03    0.82E-07
 Optimization of the real space projectors (new method)

 maximal supplied QI-value         = 16.25
 optimisation between [QCUT,QGAM] = [ 12.51, 25.03] = [ 43.85,175.40] Ry 
 Optimized for a Real-space Cutoff    1.31 Angstroem

   l    n(q)    QCUT    max X(q) W(low)/X(q) W(high)/X(q)  e(spline) 
   2      9    12.514    65.824    0.30E-03    0.46E-03    0.43E-06
   2      9    12.514    61.429    0.31E-03    0.46E-03    0.44E-06
   0     10    12.514    56.174    0.90E-04    0.33E-03    0.30E-06
   0     10    12.514    31.263    0.81E-04    0.30E-03    0.28E-06
   1      9    12.514    19.828    0.38E-03    0.65E-04    0.24E-06
   1      9    12.514    15.139    0.32E-03    0.60E-04    0.20E-06
 Optimization of the real space projectors (new method)

 maximal supplied QI-value         = 24.76
 optimisation between [QCUT,QGAM] = [ 12.38, 25.00] = [ 42.90,175.06] Ry 
 Optimized for a Real-space Cutoff    1.13 Angstroem

   l    n(q)    QCUT    max X(q) W(low)/X(q) W(high)/X(q)  e(spline) 
   0      8    12.378    20.381    0.16E-03    0.54E-05    0.27E-06
   0      8    12.378    15.268    0.17E-03    0.61E-05    0.29E-06
   1      8    12.378     5.964    0.38E-03    0.23E-03    0.28E-06
   1      8    12.378     5.382    0.33E-03    0.20E-03    0.25E-06
  PAW_PBE Li 17Jan2003                  :
 energy of atom  1       EATOM=   -5.3001
 kinetic energy error for atom=    0.0000 (will be added to EATOM!!)
  PAW_PBE Co 02Aug2007                  :
 energy of atom  2       EATOM= -813.3670
 kinetic energy error for atom=    0.0018 (will be added to EATOM!!)
  PAW_PBE O 08Apr2002                   :
 energy of atom  3       EATOM= -432.3788
 kinetic energy error for atom=    0.0168 (will be added to EATOM!!)
 
 
 POSCAR: Li6 Co12 O24                            
  positions in cartesian coordinates
  No initial velocities read in
 exchange correlation table for  LEXCH =        8
   RHO(1)=    0.500       N(1)  =     2000
   RHO(2)=  100.500       N(2)  =     4000
 


--------------------------------------------------------------------------------------------------------


 ion  position               nearest neighbor table
   1  0.205  0.745  0.000-  26 1.89  36 1.97  38 2.19  25 2.26  24 2.33  37 2.46  16 2.68   8 2.83
                             9 2.84  15 2.97  17 3.15
   2  0.196  0.539  0.342-  34 1.85  21 1.94  33 2.09  31 2.14  20 2.18  19 2.27  13 2.59  12 2.74
                             3 2.83  11 2.84   9 2.85   3 2.87  10 2.94   7 2.95
   3  0.270  0.073  0.343-  33 1.98  32 2.01  34 2.05  20 2.08  19 2.12  22 2.12  11 2.69  12 2.74
                             8 2.81  14 2.82   2 2.83   2 2.87   9 2.94  10 3.06
   4  0.763  0.938  0.659-  28 1.95  39 2.08  27 2.10  29 2.14  42 2.21  40 2.23   6 2.68  14 2.71
                             5 2.77  12 2.78  17 2.86  11 2.89  15 2.89   5 2.89   6 2.90  16 3.02
   5  0.758  0.448  0.666-  41 1.99  27 2.03  40 2.08  39 2.11  30 2.16  28 2.27   4 2.77   6 2.79
                            18 2.83  11 2.85  13 2.85  15 2.88   6 2.88  16 2.89   4 2.89  12 3.06
   6  0.276  0.469  0.663-  29 1.88  39 2.02  42 2.09  41 2.09  28 2.17  30 2.21   4 2.68  13 2.77
                             5 2.79  11 2.83  17 2.84   5 2.88   4 2.90  18 2.92  16 2.94  14 3.02
   7  0.503  0.647  0.182-  24 1.84  19 1.87  20 1.89  23 1.92  25 1.93  22 1.94  10 2.77   8 2.81
                             9 2.81  10 2.83   9 2.85   8 2.86   2 2.95
   8  0.482  0.129  0.173-  24 1.84  23 1.84  26 1.89  19 1.89  20 1.95  21 2.00   9 2.72  10 2.77
                             7 2.81   3 2.81   1 2.83   9 2.86   7 2.86  10 2.89
   9  0.998  0.636  0.172-  20 1.81  21 1.85  25 1.87  23 1.88  26 1.91  22 2.00   8 2.72   7 2.81
                            10 2.83  10 2.84   1 2.84   2 2.85   7 2.85   8 2.86   3 2.94
  10  0.992  0.130  0.164-  26 1.87  24 1.89  22 1.94  25 1.95  21 1.96  19 1.98   8 2.77   7 2.77
                             7 2.83   9 2.83   9 2.84   8 2.89   2 2.94   3 3.06
  11  0.506  0.490  0.495-  31 1.70  32 1.74  30 1.82  34 1.83  29 1.85  27 1.88   3 2.69  14 2.69
                            12 2.74  13 2.80   6 2.83   2 2.84   5 2.85  13 2.86  14 2.89   4 2.89
  12  0.482  0.961  0.497-  33 1.83  29 1.84  31 1.94  32 1.99  30 2.01  28 2.02  13 2.67  11 2.74
                             2 2.74   3 2.74   4 2.78  14 2.81  14 2.85  13 2.90  11 2.93   5 3.06
  13  1.000  0.486  0.499-  32 1.88  28 1.90  29 1.90  34 1.94  27 1.94  33 2.00   2 2.59  12 2.67
                             6 2.77  11 2.80  14 2.82  14 2.85   5 2.85  11 2.86  12 2.90
  14  0.988  0.977  0.499-  33 1.78  27 1.83  28 1.88  30 1.96  31 1.99  34 2.06  11 2.69   4 2.71
                            12 2.81  13 2.82   3 2.82  13 2.85  12 2.85  11 2.89   6 3.02
  15  0.025  0.892  0.829-  36 1.86  37 1.93  41 1.96  35 1.97  42 1.97  39 2.00  18 2.74  17 2.82
                            16 2.83  16 2.84  18 2.84  17 2.84   5 2.88   4 2.89   1 2.97
  16  0.021  0.391  0.834-  38 1.81  42 1.84  41 1.85  35 1.85  36 1.89  40 1.93   1 2.68  17 2.76
                            17 2.82  18 2.83  15 2.83  18 2.83  15 2.84   5 2.89   6 2.94   4 3.02
  17  0.527  0.891  0.828-  35 1.76  40 1.84  39 1.89  38 1.91  37 1.95  41 2.08  16 2.76  15 2.82
                            18 2.82  16 2.82   6 2.84  15 2.84  18 2.84   4 2.86   1 3.15
  18  0.517  0.385  0.832-  37 1.84  36 1.89  42 1.89  38 1.90  39 1.94  40 1.94  15 2.74  17 2.82
                            16 2.83   5 2.83  16 2.83  15 2.84  17 2.84   6 2.92
  19  0.366  0.342  0.244-   7 1.87   8 1.89  10 1.98   3 2.12   2 2.27
  20  0.342  0.828  0.245-   9 1.81   7 1.89   8 1.95   3 2.08   2 2.18
  21  0.876  0.351  0.241-   9 1.85   2 1.94  10 1.96   8 2.00
  22  0.884  0.866  0.250-  10 1.94   7 1.94   9 2.00   3 2.12
  23  0.623  0.429  0.112-   8 1.84   9 1.88   7 1.92
  24  0.608  0.923  0.111-   8 1.84   7 1.84  10 1.89   1 2.33
  25  0.141  0.454  0.102-   9 1.87   7 1.93  10 1.95   1 2.26
  26  0.121  0.925  0.099-  10 1.87   8 1.89   1 1.89   9 1.91
  27  0.867  0.698  0.568-  14 1.83  11 1.88  13 1.94   5 2.03   4 2.10
  28  0.877  0.194  0.570-  14 1.88  13 1.90   4 1.95  12 2.02   6 2.17   5 2.27
  29  0.373  0.678  0.566-  12 1.84  11 1.85   6 1.88  13 1.90   4 2.14
  30  0.375  0.214  0.565-  11 1.82  14 1.96  12 2.01   5 2.16   6 2.21
  31  0.601  0.737  0.427-  11 1.70  12 1.94  14 1.99   2 2.14
  32  0.627  0.296  0.437-  11 1.74  13 1.88  12 1.99   3 2.01
  33  0.129  0.810  0.432-  14 1.78  12 1.83   3 1.98  13 2.00   2 2.09
  34  0.155  0.303  0.426-  11 1.83   2 1.85  13 1.94   3 2.05  14 2.06
  35  0.867  0.090  0.895-  17 1.76  16 1.85  15 1.97
  36  0.889  0.601  0.897-  15 1.86  18 1.89  16 1.89   1 1.97
  37  0.398  0.104  0.901-  18 1.84  15 1.93  17 1.95   1 2.46
  38  0.377  0.589  0.896-  16 1.81  18 1.90  17 1.91   1 2.19
  39  0.636  0.673  0.756-  17 1.89  18 1.94  15 2.00   6 2.02   4 2.08   5 2.11
  40  0.649  0.176  0.761-  17 1.84  16 1.93  18 1.94   5 2.08   4 2.23
  41  0.120  0.648  0.754-  16 1.85  15 1.96   5 1.99  17 2.08   6 2.09
  42  0.152  0.207  0.762-  16 1.84  18 1.89  15 1.97   6 2.09   4 2.21
 

IMPORTANT INFORMATION: All symmetrisations will be switched off!
NOSYMM: (Re-)initialisation of all symmetry stuff for point group C_1.

 
 

Automatic generation of k-mesh.
 generate k-points for:    6    6    2
Space group operators:
 irot       det(A)        alpha          n_x          n_y          n_z        tau_x        tau_y        tau_z
    1     1.000000     0.000000     1.000000     0.000000     0.000000     0.000000     0.000000     0.000000
 
 Subroutine IBZKPT returns following result:
 ===========================================
 
 Found     36 irreducible k-points:
 
 Following reciprocal coordinates:
            Coordinates               Weight
  0.083333  0.083333  0.250000      2.000000
  0.250000  0.083333  0.250000      2.000000
  0.416667  0.083333  0.250000      2.000000
 -0.416667  0.083333  0.250000      2.000000
 -0.250000  0.083333  0.250000      2.000000
 -0.083333  0.083333  0.250000      2.000000
  0.083333  0.250000  0.250000      2.000000
  0.250000  0.250000  0.250000      2.000000
  0.416667  0.250000  0.250000      2.000000
 -0.416667  0.250000  0.250000      2.000000
 -0.250000  0.250000  0.250000      2.000000
 -0.083333  0.250000  0.250000      2.000000
  0.083333  0.416667  0.250000      2.000000
  0.250000  0.416667  0.250000      2.000000
  0.416667  0.416667  0.250000      2.000000
 -0.416667  0.416667  0.250000      2.000000
 -0.250000  0.416667  0.250000      2.000000
 -0.083333  0.416667  0.250000      2.000000
  0.083333 -0.416667  0.250000      2.000000
  0.250000 -0.416667  0.250000      2.000000
  0.416667 -0.416667  0.250000      2.000000
 -0.416667 -0.416667  0.250000      2.000000
 -0.250000 -0.416667  0.250000      2.000000
 -0.083333 -0.416667  0.250000      2.000000
  0.083333 -0.250000  0.250000      2.000000
  0.250000 -0.250000  0.250000      2.000000
  0.416667 -0.250000  0.250000      2.000000
 -0.416667 -0.250000  0.250000      2.000000
 -0.250000 -0.250000  0.250000      2.000000
 -0.083333 -0.250000  0.250000      2.000000
  0.083333 -0.083333  0.250000      2.000000
  0.250000 -0.083333  0.250000      2.000000
  0.416667 -0.083333  0.250000      2.000000
 -0.416667 -0.083333  0.250000      2.000000
 -0.250000 -0.083333  0.250000      2.000000
 -0.083333 -0.083333  0.250000      2.000000
 
 Following cartesian coordinates:
            Coordinates               Weight
  0.014730  0.026000  0.023880      2.000000
  0.044189  0.043675  0.029731      2.000000
  0.073649  0.061350  0.035583      2.000000
 -0.073649 -0.027026  0.006326      2.000000
 -0.044189 -0.009351  0.012178      2.000000
 -0.014730  0.008324  0.018029      2.000000
  0.014730  0.060324  0.030538      2.000000
  0.044189  0.077999  0.036389      2.000000
  0.073649  0.095674  0.042241      2.000000
 -0.073649  0.007298  0.012984      2.000000
 -0.044189  0.024973  0.018835      2.000000
 -0.014730  0.042648  0.024687      2.000000
  0.014730  0.094648  0.037196      2.000000
  0.044189  0.112323  0.043047      2.000000
  0.073649  0.129998  0.048898      2.000000
 -0.073649  0.041622  0.019642      2.000000
 -0.044189  0.059297  0.025493      2.000000
 -0.014730  0.076972  0.031345      2.000000
  0.014730 -0.076972  0.003907      2.000000
  0.044189 -0.059297  0.009758      2.000000
  0.073649 -0.041622  0.015609      2.000000
 -0.073649 -0.129998 -0.013647      2.000000
 -0.044189 -0.112323 -0.007796      2.000000
 -0.014730 -0.094648 -0.001945      2.000000
  0.014730 -0.042648  0.010564      2.000000
  0.044189 -0.024973  0.016416      2.000000
  0.073649 -0.007298  0.022267      2.000000
 -0.073649 -0.095674 -0.006989      2.000000
 -0.044189 -0.077999 -0.001138      2.000000
 -0.014730 -0.060324  0.004713      2.000000
  0.014730 -0.008324  0.017222      2.000000
  0.044189  0.009351  0.023074      2.000000
  0.073649  0.027026  0.028925      2.000000
 -0.073649 -0.061350 -0.000332      2.000000
 -0.044189 -0.043675  0.005520      2.000000
 -0.014730 -0.026000  0.011371      2.000000
 


--------------------------------------------------------------------------------------------------------




 Dimension of arrays:
   k-points           NKPTS =     36   k-points in BZ     NKDIM =     36   number of bands    NBANDS=    160
   number of dos      NEDOS =    301   number of ions     NIONS =     42
   non local maximal  LDIM  =      6   non local SUM 2l+1 LMDIM =     18
   total plane-waves  NPLWV = 116640
   max r-space proj   IRMAX =   2847   max aug-charges    IRDMAX=  12004
   dimension x,y,z NGX =    36 NGY =   36 NGZ =   90
   dimension x,y,z NGXF=    72 NGYF=   72 NGZF=  180
   support grid    NGXF=    72 NGYF=   72 NGZF=  180
   ions per type =               6  12  24
   NGX,Y,Z   is equivalent  to a cutoff of  10.58, 10.57, 10.32 a.u.
   NGXF,Y,Z  is equivalent  to a cutoff of  21.16, 21.14, 20.64 a.u.

 SYSTEM =  LiCoO2                                  
 POSCAR =  Li6 Co12 O24                            

 Startparameter for this run:
   NWRITE =      2    write-flag & timer
   PREC   = normal    normal or accurate (medium, high low for compatibility)
   ISTART =      0    job   : 0-new  1-cont  2-samecut
   ICHARG =      2    charge: 1-file 2-atom 10-const
   ISPIN  =      2    spin polarized calculation?
   LNONCOLLINEAR =      F non collinear calculations
   LSORBIT =      F    spin-orbit coupling
   INIWAV =      1    electr: 0-lowe 1-rand  2-diag
   LASPH  =      F    aspherical Exc in radial PAW
   METAGGA=      F    non-selfconsistent MetaGGA calc.

 Electronic Relaxation 1
   ENCUT  =  600.0 eV  44.10 Ry    6.64 a.u.  11.30 11.31 28.95*2*pi/ulx,y,z
   ENINI  =  600.0     initial cutoff
   ENAUG  =  605.4 eV  augmentation charge cutoff
   NELM   =    600;   NELMIN=  2; NELMDL= -5     # of ELM steps 
   EDIFF  = 0.1E-05   stopping-criterion for ELM
   LREAL  =      T    real-space projection
   NLSPLINE    = F    spline interpolate recip. space projectors
   LCOMPAT=      F    compatible to vasp.4.4
   GGA_COMPAT  = T    GGA compatible to vasp.4.4-vasp.4.6
   LMAXPAW     = -100 max onsite density
   LMAXMIX     =    2 max onsite mixed and CHGCAR
   VOSKOWN=      0    Vosko Wilk Nusair interpolation
   ROPT   =   -0.00050  -0.00050  -0.00050
 Ionic relaxation
   EDIFFG = 0.1E-04   stopping-criterion for IOM
   NSW    =      0    number of steps for IOM
   NBLOCK =      1;   KBLOCK =      1    inner block; outer block 
   IBRION =     -1    ionic relax: 0-MD 1-quasi-New 2-CG
   NFREE  =      0    steps in history (QN), initial steepest desc. (CG)
   ISIF   =      2    stress and relaxation
   IWAVPR =     10    prediction:  0-non 1-charg 2-wave 3-comb
   ISYM   =      0    0-nonsym 1-usesym 2-fastsym
   LCORR  =      T    Harris-Foulkes like correction to forces

   POTIM  = 0.5000    time-step for ionic-motion
   TEIN   =    0.0    initial temperature
   TEBEG  =    0.0;   TEEND  =   0.0 temperature during run
   SMASS  =  -3.00    Nose mass-parameter (am)
   estimated Nose-frequenzy (Omega)   =  0.10E-29 period in steps =****** mass=  -0.731E-27a.u.
   SCALEE = 1.0000    scale energy and forces
   NPACO  =    256;   APACO  = 16.0  distance and # of slots for P.C.
   PSTRESS=    0.0 pullay stress

  Mass of Ions in am
   POMASS =   7.01 58.93 16.00
  Ionic Valenz
   ZVAL   =   1.00  9.00  6.00
  Atomic Wigner-Seitz radii
   RWIGS  =  -1.00 -1.00 -1.00
  virtual crystal weights 
   VCA    =   1.00  1.00  1.00
   NELECT =     258.0000    total number of electrons
   NUPDOWN=       6.0000    fix difference up-down

 DOS related values:
   EMIN   =  10.00;   EMAX   =-10.00  energy-range for DOS
   EFERMI =   0.00
   ISMEAR =     0;   SIGMA  =   0.05  broadening in eV -4-tet -1-fermi 0-gaus

 Electronic relaxation 2 (details)
   IALGO  =     58    algorithm
   LDIAG  =      T    sub-space diagonalisation (order eigenvalues)
   LSUBROT=      F    optimize rotation matrix (better conditioning)
   TURBO    =      0    0=normal 1=particle mesh
   IRESTART =      0    0=no restart 2=restart with 2 vectors
   NREBOOT  =      0    no. of reboots
   NMIN     =      0    reboot dimension
   EREF     =   0.00    reference energy to select bands
   IMIX   =      4    mixing-type and parameters
     AMIX     =   0.40;   BMIX     =  1.00
     AMIX_MAG =   1.60;   BMIX_MAG =  1.00
     AMIN     =   0.10
     WC   =   100.;   INIMIX=   1;  MIXPRE=   1;  MAXMIX= -45

 Intra band minimization:
   WEIMIN = 0.0000     energy-eigenvalue tresh-hold
   EBREAK =  0.16E-08  absolut break condition
   DEPER  =   0.30     relativ break condition  

   TIME   =   0.40     timestep for ELM

  volume/ion in A,a.u.               =       9.28        62.61
  Fermi-wavevector in a.u.,A,eV,Ry     =   1.426892  2.696435 27.701750  2.036021
  Thomas-Fermi vector in A             =   2.547120
 
 Write flags
   LWAVE        =      F    write WAVECAR
   LDOWNSAMPLE  =      F    k-point downsampling of WAVECAR
   LCHARG       =      F    write CHGCAR
   LVTOT        =      F    write LOCPOT, total local potential
   LVHAR        =      F    write LOCPOT, Hartree potential only
   LELF         =      F    write electronic localiz. function (ELF)
   LORBIT       =     11    0 simple, 1 ext, 2 COOP (PROOUT), +10 PAW based schemes


 Dipole corrections
   LMONO  =      F    monopole corrections only (constant potential shift)
   LDIPOL =      F    correct potential (dipole corrections)
   IDIPOL =      0    1-x, 2-y, 3-z, 4-all directions 
   EPSILON=  1.0000000 bulk dielectric constant

 LDA+U is selected, type is set to LDAUTYPE =  2
   angular momentum for each species LDAUL =    -1    2   -1
   U (eV)           for each species LDAUU =   0.0  5.1  0.0
   J (eV)           for each species LDAUJ =   0.0  0.0  0.0
 Exchange correlation treatment:
   GGA     =    --    GGA type
   LEXCH   =     8    internal setting for exchange type
   VOSKOWN=      0    Vosko Wilk Nusair interpolation
   LHFCALC =     F    Hartree Fock is set to
   LHFONE  =     F    Hartree Fock one center treatment
   AEXX    =    0.0000 exact exchange contribution

 Linear response parameters
   LEPSILON=     F    determine dielectric tensor
   LRPA    =     F    only Hartree local field effects (RPA)
   LNABLA  =     F    use nabla operator in PAW spheres
   LVEL    =     F    velocity operator in full k-point grid
   LINTERFAST=   F  fast interpolation
   KINTER  =     0    interpolate to denser k-point grid
   CSHIFT  =0.1000    complex shift for real part using Kramers Kronig
   OMEGAMAX=  -1.0    maximum frequency
   DEG_THRESHOLD= 0.2000000E-02 threshold for treating states as degnerate
   RTIME   =   -0.100 relaxation time in fs
  (WPLASMAI=    0.000 imaginary part of plasma frequency in eV, 0.658/RTIME)
   DFIELD  = 0.0000000 0.0000000 0.0000000 field for delta impulse in time
 
 Orbital magnetization related:
   ORBITALMAG=     F  switch on orbital magnetization
   LCHIMAG   =     F  perturbation theory with respect to B field
   DQ        =  0.001000  dq finite difference perturbation B field
   LLRAUG    =     F  two centre corrections for induced B field



--------------------------------------------------------------------------------------------------------


 Static calculation
 charge density and potential will be updated during run
 spin polarized calculation
 Conjugate gradient for all bands (Freysoldt, et al. PRB 79, 241103 (2009))
 preconditioned conjugated gradient                                        
 perform sub-space diagonalisation
    before iterative eigenvector-optimisation
 modified Broyden-mixing scheme, WC =      100.0
 initial mixing is a Kerker type mixing with AMIX =  0.4000 and BMIX =      1.0000
 Hartree-type preconditioning will be used
 using additional bands           31
 real space projection scheme for non local part
 use partial core corrections
 no Harris-corrections to forces 
 use gradient corrections 
 use of overlap-Matrix (Vanderbilt PP)
 Gauss-broadening in eV      SIGMA  =   0.05


--------------------------------------------------------------------------------------------------------


  energy-cutoff  :      600.00
  volume of cell :      389.65
      direct lattice vectors                 reciprocal lattice vectors
     5.657479286  0.000000000  0.000000000     0.176757165  0.106051168  0.035107640
    -2.913324833  4.855684757  0.000000000     0.000000000  0.205944177  0.039947190
    -1.166511059 -2.751275063 14.183953285     0.000000000  0.000000000  0.070502206

  length of vectors
     5.657479286  5.662608590 14.495336951     0.209099239  0.209782702  0.070502206


 
 k-points in units of 2pi/SCALE and weight: read from INCAR                         
   0.01472976  0.02599961  0.02388012       0.028
   0.04418929  0.04367481  0.02973139       0.028
   0.07364882  0.06135000  0.03558267       0.028
  -0.07364882 -0.02702597  0.00632630       0.028
  -0.04418929 -0.00935078  0.01217757       0.028
  -0.01472976  0.00832442  0.01802885       0.028
   0.01472976  0.06032364  0.03053799       0.028
   0.04418929  0.07799884  0.03638926       0.028
   0.07364882  0.09567403  0.04224053       0.028
  -0.07364882  0.00729806  0.01298417       0.028
  -0.04418929  0.02497325  0.01883544       0.028
  -0.01472976  0.04264845  0.02468671       0.028
   0.01472976  0.09464767  0.03719585       0.028
   0.04418929  0.11232287  0.04304712       0.028
   0.07364882  0.12999806  0.04889840       0.028
  -0.07364882  0.04162209  0.01964203       0.028
  -0.04418929  0.05929728  0.02549330       0.028
  -0.01472976  0.07697248  0.03134458       0.028
   0.01472976 -0.07697248  0.00390653       0.028
   0.04418929 -0.05929728  0.00975780       0.028
   0.07364882 -0.04162209  0.01560907       0.028
  -0.07364882 -0.12999806 -0.01364729       0.028
  -0.04418929 -0.11232287 -0.00779602       0.028
  -0.01472976 -0.09464767 -0.00194475       0.028
   0.01472976 -0.04264845  0.01056439       0.028
   0.04418929 -0.02497325  0.01641566       0.028
   0.07364882 -0.00729806  0.02226694       0.028
  -0.07364882 -0.09567403 -0.00698943       0.028
  -0.04418929 -0.07799884 -0.00113816       0.028
  -0.01472976 -0.06032364  0.00471312       0.028
   0.01472976 -0.00832442  0.01722226       0.028
   0.04418929  0.00935078  0.02307353       0.028
   0.07364882  0.02702597  0.02892480       0.028
  -0.07364882 -0.06135000 -0.00033156       0.028
  -0.04418929 -0.04367481  0.00551971       0.028
  -0.01472976 -0.02599961  0.01137098       0.028
 
 k-points in reciprocal lattice and weights: read from INCAR                         
   0.08333333  0.08333333  0.25000000       0.028
   0.25000000  0.08333333  0.25000000       0.028
   0.41666667  0.08333333  0.25000000       0.028
  -0.41666667  0.08333333  0.25000000       0.028
  -0.25000000  0.08333333  0.25000000       0.028
  -0.08333333  0.08333333  0.25000000       0.028
   0.08333333  0.25000000  0.25000000       0.028
   0.25000000  0.25000000  0.25000000       0.028
   0.41666667  0.25000000  0.25000000       0.028
  -0.41666667  0.25000000  0.25000000       0.028
  -0.25000000  0.25000000  0.25000000       0.028
  -0.08333333  0.25000000  0.25000000       0.028
   0.08333333  0.41666667  0.25000000       0.028
   0.25000000  0.41666667  0.25000000       0.028
   0.41666667  0.41666667  0.25000000       0.028
  -0.41666667  0.41666667  0.25000000       0.028
  -0.25000000  0.41666667  0.25000000       0.028
  -0.08333333  0.41666667  0.25000000       0.028
   0.08333333 -0.41666667  0.25000000       0.028
   0.25000000 -0.41666667  0.25000000       0.028
   0.41666667 -0.41666667  0.25000000       0.028
  -0.41666667 -0.41666667  0.25000000       0.028
  -0.25000000 -0.41666667  0.25000000       0.028
  -0.08333333 -0.41666667  0.25000000       0.028
   0.08333333 -0.25000000  0.25000000       0.028
   0.25000000 -0.25000000  0.25000000       0.028
   0.41666667 -0.25000000  0.25000000       0.028
  -0.41666667 -0.25000000  0.25000000       0.028
  -0.25000000 -0.25000000  0.25000000       0.028
  -0.08333333 -0.25000000  0.25000000       0.028
   0.08333333 -0.08333333  0.25000000       0.028
   0.25000000 -0.08333333  0.25000000       0.028
   0.41666667 -0.08333333  0.25000000       0.028
  -0.41666667 -0.08333333  0.25000000       0.028
  -0.25000000 -0.08333333  0.25000000       0.028
  -0.08333333 -0.08333333  0.25000000       0.028
 
 position of ions in fractional coordinates (direct lattice) 
   0.20516581  0.74510573  0.00013395
   0.19608104  0.53862291  0.34247503
   0.27030196  0.07348050  0.34332741
   0.76305117  0.93812239  0.65875149
   0.75772052  0.44826935  0.66592929
   0.27594765  0.46936762  0.66255504
   0.50265087  0.64718293  0.18209239
   0.48171329  0.12880796  0.17289468
   0.99849712  0.63554503  0.17240963
   0.99156017  0.13020395  0.16446895
   0.50620476  0.48989000  0.49547259
   0.48215835  0.96059067  0.49699333
   0.99978359  0.48618732  0.49896951
   0.98775696  0.97730847  0.49918735
   0.02512747  0.89153536  0.82938445
   0.02066688  0.39125929  0.83362867
   0.52671986  0.89077249  0.82803079
   0.51681843  0.38496798  0.83185908
   0.36590028  0.34198662  0.24398840
   0.34213952  0.82846406  0.24481751
   0.87631118  0.35135552  0.24122330
   0.88398105  0.86645926  0.24951084
   0.62340419  0.42935191  0.11196174
   0.60817853  0.92320191  0.11104943
   0.14140703  0.45374369  0.10206041
   0.12114314  0.92496262  0.09929461
   0.86687239  0.69761774  0.56836621
   0.87689325  0.19365196  0.56961694
   0.37295867  0.67783850  0.56550875
   0.37488716  0.21431963  0.56466130
   0.60147555  0.73686185  0.42702340
   0.62738151  0.29641832  0.43713693
   0.12863281  0.80953730  0.43182813
   0.15486764  0.30344234  0.42642060
   0.86658083  0.09004359  0.89488806
   0.88858136  0.60075213  0.89664352
   0.39837158  0.10352377  0.90066922
   0.37692666  0.58894623  0.89577638
   0.63628962  0.67311670  0.75609033
   0.64945613  0.17569315  0.76067295
   0.11951023  0.64832254  0.75448285
   0.15227843  0.20719491  0.76169527
 
 position of ions in cartesian coordinates  (Angst):
  -1.01016998  3.61763000  0.00190000
  -0.85935998  1.67314005  4.85764980
   0.91465998 -0.58779001  4.86974001
   0.81545001  2.74282002  9.34370041
   2.20402002  0.34450001  9.44550991
  -0.57912999  0.45623001  9.39764976
   0.74586999  2.64153004  2.58278990
   2.14833999  0.14977001  2.45233011
   3.59630990  2.61166000  2.44545007
   5.03854990  0.17973000  2.33281994
   0.85865998  1.01557004  7.02776003
  -0.65046000  3.29696012  7.04933023
   3.65777993  0.98796999  7.07736015
   2.15868998  3.37210011  7.08045006
  -3.42266011  2.04714990 11.76395035
  -1.99538004 -0.39370999 11.82415009
  -0.58111000  2.04716992 11.74475002
   0.83197999 -0.41938999 11.79905033
   0.78913999  0.98930001  3.46072006
  -0.76352000  3.34920001  3.47248006
   3.65270996  1.04240000  3.42149997
   2.18577003  3.52078009  3.53905010
   2.14545012  1.77675998  1.58806002
   0.62163001  4.17724991  1.57511997
  -0.64095002  1.92244005  1.44762003
  -2.12518001  4.21814013  1.40839005
   2.20892000  1.82368004  8.06167984
   3.73236990 -0.62686002  8.07942009
  -0.52442998  1.73549998  8.02114964
   0.83784997 -0.51287001  8.00912952
   0.75799000  2.40311003  6.05688000
   2.17591000  0.23662999  6.20032978
  -2.13443995  2.74277997  6.12503004
  -0.50528997  0.30022001  6.04832983
   3.59644008 -2.02485991 12.69305038
   2.23099995  0.45015001 12.71794987
   0.90153998 -1.97530997 12.77505016
  -0.62826997  0.39521000 12.70565033
   0.75680000  1.18823004 10.72434998
   2.27509999 -1.23970997 10.78934956
  -2.09276009  1.07226002 10.70154953
  -0.63063997 -1.08956003 10.80385017
 


--------------------------------------------------------------------------------------------------------


 k-point  1 :   0.0833 0.0833 0.2500  plane waves:   13002
 k-point  2 :   0.2500 0.0833 0.2500  plane waves:   13000
 k-point  3 :   0.4167 0.0833 0.2500  plane waves:   13016
 k-point  4 :  -0.4167 0.0833 0.2500  plane waves:   13020
 k-point  5 :  -0.2500 0.0833 0.2500  plane waves:   12998
 k-point  6 :  -0.0833 0.0833 0.2500  plane waves:   13017
 k-point  7 :   0.0833 0.2500 0.2500  plane waves:   12998
 k-point  8 :   0.2500 0.2500 0.2500  plane waves:   13003
 k-point  9 :   0.4167 0.2500 0.2500  plane waves:   13006
 k-point 10 :  -0.4167 0.2500 0.2500  plane waves:   12989
 k-point 11 :  -0.2500 0.2500 0.2500  plane waves:   13008
 k-point 12 :  -0.0833 0.2500 0.2500  plane waves:   13005
 k-point 13 :   0.0833 0.4167 0.2500  plane waves:   13017
 k-point 14 :   0.2500 0.4167 0.2500  plane waves:   13002
 k-point 15 :   0.4167 0.4167 0.2500  plane waves:   13012
 k-point 16 :  -0.4167 0.4167 0.2500  plane waves:   12987
 k-point 17 :  -0.2500 0.4167 0.2500  plane waves:   13002
 k-point 18 :  -0.0833 0.4167 0.2500  plane waves:   13024
 k-point 19 :   0.0833-0.4167 0.2500  plane waves:   13008
 k-point 20 :   0.2500-0.4167 0.2500  plane waves:   12992
 k-point 21 :   0.4167-0.4167 0.2500  plane waves:   12981
 k-point 22 :  -0.4167-0.4167 0.2500  plane waves:   12991
 k-point 23 :  -0.2500-0.4167 0.2500  plane waves:   13016
 k-point 24 :  -0.0833-0.4167 0.2500  plane waves:   13000
 k-point 25 :   0.0833-0.2500 0.2500  plane waves:   13012
 k-point 26 :   0.2500-0.2500 0.2500  plane waves:   12993
 k-point 27 :   0.4167-0.2500 0.2500  plane waves:   12986
 k-point 28 :  -0.4167-0.2500 0.2500  plane waves:   13022
 k-point 29 :  -0.2500-0.2500 0.2500  plane waves:   13021
 k-point 30 :  -0.0833-0.2500 0.2500  plane waves:   13003
 k-point 31 :   0.0833-0.0833 0.2500  plane waves:   13023
 k-point 32 :   0.2500-0.0833 0.2500  plane waves:   13007
 k-point 33 :   0.4167-0.0833 0.2500  plane waves:   13011
 k-point 34 :  -0.4167-0.0833 0.2500  plane waves:   13005
 k-point 35 :  -0.2500-0.0833 0.2500  plane waves:   12998
 k-point 36 :  -0.0833-0.0833 0.2500  plane waves:   13002

 maximum and minimum number of plane-waves per node :      3275     3229

 maximum number of plane-waves:     13024
 maximum index in each direction: 
   IXMAX=   11   IYMAX=   11   IZMAX=   28
   IXMIN=  -11   IYMIN=  -11   IZMIN=  -29


 real space projection operators:
  total allocation   :       7600.64 KBytes
  max/ min on nodes  :       1902.18       1898.84


 parallel 3D FFT for wavefunctions:
    minimum data exchange during FFTs selected (reduces bandwidth)
 parallel 3D FFT for charge:
    minimum data exchange during FFTs selected (reduces bandwidth)


 total amount of memory used by VASP MPI-rank0   158249. kBytes
=======================================================================

   base      :      30000. kBytes
   nonlr-proj:       4349. kBytes
   fftplans  :       1689. kBytes
   grid      :       4644. kBytes
   one-center:        342. kBytes
   wavefun   :     117225. kBytes
 
     INWAV:  cpu time    0.0000: real time    0.0002
 Broyden mixing: mesh for mixing (old mesh)
   NGX = 23   NGY = 23   NGZ = 57
  (NGX  = 72   NGY  = 72   NGZ  =180)
  gives a total of  30153 points

 initial charge density was supplied:
 charge density of overlapping atoms calculated
 number of electron     258.0000000 magnetization       6.0000000
 keeping initial charge density in first step


--------------------------------------------------------------------------------------------------------


 Maximum index for non-local projection operator          695
 Maximum index for augmentation-charges          978 (set IRDMAX)


--------------------------------------------------------------------------------------------------------


 First call to EWALD:  gamma=   0.243
 Maximum number of real-space cells 4x 4x 2
 Maximum number of reciprocal cells 2x 2x 5

    FEWALD:  cpu time    0.0037: real time    0.0037


--------------------------------------- Iteration      1(   1)  ---------------------------------------


    POTLOK:  cpu time    0.0657: real time    0.0786
    SETDIJ:  cpu time    0.0195: real time    0.0208
    TRIAL :  cpu time   21.7294: real time   21.8185
    CORREC:  cpu time    0.0039: real time    0.0039
    --------------------------------------------
      LOOP:  cpu time   22.0213: real time   22.1261

 eigenvalue-minimisations  : 23040
 total energy-change (2. order) : 0.3497119E+04  (-0.1400463E+05)
 number of electron     258.0000000 magnetization       6.0000000
 augmentation part      258.0000000 magnetization       6.0000000

 Free energy of the ion-electron system (eV)
  ---------------------------------------------------
  alpha Z        PSCENC =       752.39163687
  Ewald energy   TEWEN  =    -13855.26699051
  -Hartree energ DENC   =     -7173.97269869
  -exchange      EXHF   =         0.00000000
  -V(xc)+E(xc)   XCENC  =       843.96812452
  PAW double counting   =     17015.18481625   -17491.61297812
  entropy T*S    EENTRO =        -0.00741938
  eigenvalues    EBANDS =      3237.56320114
  atomic energy  EATOM  =     20168.87094289
  ---------------------------------------------------
  free energy    TOTEN  =      3497.11863495 eV

  energy without entropy =     3497.12605433  energy(sigma->0) =     3497.12234464


--------------------------------------------------------------------------------------------------------




--------------------------------------- Iteration      1(   2)  ---------------------------------------


    TRIAL :  cpu time   22.7710: real time   22.8301
    CORREC:  cpu time    0.0042: real time    0.0042
    --------------------------------------------
      LOOP:  cpu time   22.7793: real time   22.8383

 eigenvalue-minimisations  : 24912
 total energy-change (2. order) :-0.3090007E+04  (-0.2846388E+04)
 number of electron     258.0000000 magnetization       6.0000000
 augmentation part      258.0000000 magnetization       6.0000000

 Free energy of the ion-electron system (eV)
  ---------------------------------------------------
  alpha Z        PSCENC =       752.39163687
  Ewald energy   TEWEN  =    -13855.26699051
  -Hartree energ DENC   =     -7173.97269869
  -exchange      EXHF   =         0.00000000
  -V(xc)+E(xc)   XCENC  =       843.96812452
  PAW double counting   =     17015.18481625   -17491.61297812
  entropy T*S    EENTRO =        -0.02298234
  eigenvalues    EBANDS =       147.57144556
  atomic energy  EATOM  =     20168.87094289
  ---------------------------------------------------
  free energy    TOTEN  =       407.11131642 eV

  energy without entropy =      407.13429875  energy(sigma->0) =      407.12280758


--------------------------------------------------------------------------------------------------------




--------------------------------------- Iteration      1(   3)  ---------------------------------------


    TRIAL :  cpu time   23.4779: real time   23.6331
    CORREC:  cpu time    0.0043: real time    0.0043
    --------------------------------------------
      LOOP:  cpu time   23.4868: real time   23.6421

 eigenvalue-minimisations  : 25728
 total energy-change (2. order) :-0.6288277E+03  (-0.5743946E+03)
 number of electron     258.0000000 magnetization       6.0000000
 augmentation part      258.0000000 magnetization       6.0000000

 Free energy of the ion-electron system (eV)
  ---------------------------------------------------
  alpha Z        PSCENC =       752.39163687
  Ewald energy   TEWEN  =    -13855.26699051
  -Hartree energ DENC   =     -7173.97269869
  -exchange      EXHF   =         0.00000000
  -V(xc)+E(xc)   XCENC  =       843.96812452
  PAW double counting   =     17015.18481625   -17491.61297812
  entropy T*S    EENTRO =        -0.04010126
  eigenvalues    EBANDS =      -481.23909927
  atomic energy  EATOM  =     20168.87094289
  ---------------------------------------------------
  free energy    TOTEN  =      -221.71634733 eV

  energy without entropy =     -221.67624607  energy(sigma->0) =     -221.69629670


--------------------------------------------------------------------------------------------------------




--------------------------------------- Iteration      1(   4)  ---------------------------------------


    TRIAL :  cpu time   23.1420: real time   23.1795
    CORREC:  cpu time    0.0040: real time    0.0040
    --------------------------------------------
      LOOP:  cpu time   23.1507: real time   23.1883

 eigenvalue-minimisations  : 25296
 total energy-change (2. order) :-0.4987312E+02  (-0.4883259E+02)
 number of electron     258.0000000 magnetization       6.0000000
 augmentation part      258.0000000 magnetization       6.0000000

 Free energy of the ion-electron system (eV)
  ---------------------------------------------------
  alpha Z        PSCENC =       752.39163687
  Ewald energy   TEWEN  =    -13855.26699051
  -Hartree energ DENC   =     -7173.97269869
  -exchange      EXHF   =         0.00000000
  -V(xc)+E(xc)   XCENC  =       843.96812452
  PAW double counting   =     17015.18481625   -17491.61297812
  entropy T*S    EENTRO =        -0.04097685
  eigenvalues    EBANDS =      -531.11133948
  atomic energy  EATOM  =     20168.87094289
  ---------------------------------------------------
  free energy    TOTEN  =      -271.58946313 eV

  energy without entropy =     -271.54848628  energy(sigma->0) =     -271.56897471


--------------------------------------------------------------------------------------------------------




--------------------------------------- Iteration      1(   5)  ---------------------------------------


    TRIAL :  cpu time   25.4841: real time   25.5233
    CORREC:  cpu time    0.0038: real time    0.0038
    CHARGE:  cpu time    0.4411: real time    0.4415
    --------------------------------------------
      LOOP:  cpu time   25.9341: real time   25.9737

 eigenvalue-minimisations  : 28112
 total energy-change (2. order) :-0.1691662E+01  (-0.1688466E+01)
 number of electron     258.0000081 magnetization       6.0000005
 augmentation part       68.0869602 magnetization       4.3191474

 Free energy of the ion-electron system (eV)
  ---------------------------------------------------
  alpha Z        PSCENC =       752.39163687
  Ewald energy   TEWEN  =    -13855.26699051
  -Hartree energ DENC   =     -7173.97269869
  -exchange      EXHF   =         0.00000000
  -V(xc)+E(xc)   XCENC  =       843.96812452
  PAW double counting   =     17015.18481625   -17491.61297812
  entropy T*S    EENTRO =        -0.04090804
  eigenvalues    EBANDS =      -532.80306990
  atomic energy  EATOM  =     20168.87094289
  ---------------------------------------------------
  free energy    TOTEN  =      -273.28112475 eV

  energy without entropy =     -273.24021671  energy(sigma->0) =     -273.26067073


--------------------------------------------------------------------------------------------------------




--------------------------------------- Iteration      1(   6)  ---------------------------------------


    POTLOK:  cpu time    0.0450: real time    0.0450
    SETDIJ:  cpu time    0.0132: real time    0.0132
    TRIAL :  cpu time   11.9495: real time   12.2766
    CORREC:  cpu time    4.0611: real time    4.0754
    CHARGE:  cpu time    0.4407: real time    0.4414
    --------------------------------------------
      LOOP:  cpu time   16.5134: real time   16.8556

 eigenvalue-minimisations  :     0
 total energy-change (2. order) : 0.3846812E+03  (-0.2442283E+03)
 number of electron     258.0000081 magnetization       6.0000005
 augmentation part       70.4536319 magnetization       4.3918897

 Free energy of the ion-electron system (eV)
  ---------------------------------------------------
  alpha Z        PSCENC =       752.39163687
  Ewald energy   TEWEN  =    -13855.26699051
  -Hartree energ DENC   =     -6948.39915395
  -exchange      EXHF   =         0.00000000
  -V(xc)+E(xc)   XCENC  =       878.48997907
  PAW double counting   =     23977.42481501   -24187.38999149
  entropy T*S    EENTRO =        -0.03603271
  eigenvalues    EBANDS =      -674.68029312
  atomic energy  EATOM  =     20168.87094289
  ---------------------------------------------------
  free energy    TOTEN  =       111.40003673 eV

  energy without entropy =      111.43606944  energy(sigma->0) =      111.41805308


--------------------------------------------------------------------------------------------------------




--------------------------------------- Iteration      1(   7)  ---------------------------------------


    POTLOK:  cpu time    0.0442: real time    0.0442
    SETDIJ:  cpu time    0.0131: real time    0.0131
    TRIAL :  cpu time   12.0397: real time   12.0583
    CORREC:  cpu time    4.0739: real time    4.0801
    CHARGE:  cpu time    0.4443: real time    0.4446
    --------------------------------------------
      LOOP:  cpu time   16.6190: real time   16.6442

 eigenvalue-minimisations  :     0
 total energy-change (2. order) :-0.1250785E+03  (-0.3100846E+02)
 number of electron     258.0000079 magnetization       6.0000006
 augmentation part       71.1518927 magnetization       4.3656030

 Free energy of the ion-electron system (eV)
  ---------------------------------------------------
  alpha Z        PSCENC =       752.39163687
  Ewald energy   TEWEN  =    -13855.26699051
  -Hartree energ DENC   =     -6845.73229698
  -exchange      EXHF   =         0.00000000
  -V(xc)+E(xc)   XCENC  =       868.90545092
  PAW double counting   =     23893.50687828   -24194.94311335
  entropy T*S    EENTRO =        -0.03266375
  eigenvalues    EBANDS =      -801.37495036
  atomic energy  EATOM  =     20168.87094289
  ---------------------------------------------------
  free energy    TOTEN  =       -13.67847497 eV

  energy without entropy =      -13.64581122  energy(sigma->0) =      -13.66214310


--------------------------------------------------------------------------------------------------------




--------------------------------------- Iteration      1(   8)  ---------------------------------------


    POTLOK:  cpu time    0.0452: real time    0.0455
    SETDIJ:  cpu time    0.0133: real time    0.0133
    TRIAL :  cpu time   12.4038: real time   12.4200
    CORREC:  cpu time    4.1094: real time    4.1148
    CHARGE:  cpu time    0.4496: real time    0.4502
    --------------------------------------------
      LOOP:  cpu time   17.0253: real time   17.0479

 eigenvalue-minimisations  :     0
 total energy-change (2. order) :-0.4360737E+02  (-0.1918371E+02)
 number of electron     258.0000076 magnetization       6.0000009
 augmentation part       71.5196043 magnetization       4.3369760

 Free energy of the ion-electron system (eV)
  ---------------------------------------------------
  alpha Z        PSCENC =       752.39163687
  Ewald energy   TEWEN  =    -13855.26699051
  -Hartree energ DENC   =     -6854.27388917
  -exchange      EXHF   =         0.00000000
  -V(xc)+E(xc)   XCENC  =       865.51410606
  PAW double counting   =     23842.31324879   -24171.18666949
  entropy T*S    EENTRO =        -0.05242949
  eigenvalues    EBANDS =      -805.61556571
  atomic energy  EATOM  =     20168.87094289
  ---------------------------------------------------
  free energy    TOTEN  =       -57.28584403 eV

  energy without entropy =      -57.23341454  energy(sigma->0) =      -57.25962929


--------------------------------------------------------------------------------------------------------




--------------------------------------- Iteration      1(   9)  ---------------------------------------


    POTLOK:  cpu time    0.0451: real time    0.0452
    SETDIJ:  cpu time    0.0132: real time    0.0132
    TRIAL :  cpu time   12.1129: real time   12.1364
    CORREC:  cpu time    4.2089: real time    4.2146
    CHARGE:  cpu time    0.4426: real time    0.4429
    --------------------------------------------
      LOOP:  cpu time   16.8268: real time   16.8564

 eigenvalue-minimisations  :     0
 total energy-change (2. order) :-0.6133794E+02  (-0.6387957E+02)
 number of electron     258.0000073 magnetization       6.0000012
 augmentation part       73.5624591 magnetization       4.3716023

 Free energy of the ion-electron system (eV)
  ---------------------------------------------------
  alpha Z        PSCENC =       752.39163687
  Ewald energy   TEWEN  =    -13855.26699051
  -Hartree energ DENC   =     -6840.14583936
  -exchange      EXHF   =         0.00000000
  -V(xc)+E(xc)   XCENC  =       863.59057688
  PAW double counting   =     23832.28088368   -24173.71848715
  entropy T*S    EENTRO =        -0.02751821
  eigenvalues    EBANDS =      -866.57407771
  atomic energy  EATOM  =     20168.87094289
  ---------------------------------------------------
  free energy    TOTEN  =      -118.62378390 eV

  energy without entropy =     -118.59626570  energy(sigma->0) =     -118.61002480


--------------------------------------------------------------------------------------------------------




--------------------------------------- Iteration      1(  10)  ---------------------------------------


    POTLOK:  cpu time    0.0447: real time    0.0447
    SETDIJ:  cpu time    0.0131: real time    0.0131
    TRIAL :  cpu time   12.5440: real time   12.5622
    CORREC:  cpu time    4.7328: real time    4.7407
    CHARGE:  cpu time    0.4488: real time    0.4491
    --------------------------------------------
      LOOP:  cpu time   17.7872: real time   17.8137

 eigenvalue-minimisations  :     0
 total energy-change (2. order) :-0.4982641E+01  (-0.5861166E+02)
 number of electron     258.0000071 magnetization       6.0000010
 augmentation part       76.0547471 magnetization       3.9125414

 Free energy of the ion-electron system (eV)
  ---------------------------------------------------
  alpha Z        PSCENC =       752.39163687
  Ewald energy   TEWEN  =    -13855.26699051
  -Hartree energ DENC   =     -7033.60298164
  -exchange      EXHF   =         0.00000000
  -V(xc)+E(xc)   XCENC  =       859.32035964
  PAW double counting   =     24198.61282047   -24626.98313777
  entropy T*S    EENTRO =        -0.02530844
  eigenvalues    EBANDS =      -586.92155691
  atomic energy  EATOM  =     20168.87094289
  ---------------------------------------------------
  free energy    TOTEN  =      -123.60642517 eV

  energy without entropy =     -123.58111673  energy(sigma->0) =     -123.59377095


--------------------------------------------------------------------------------------------------------




--------------------------------------- Iteration      1(  11)  ---------------------------------------


    POTLOK:  cpu time    0.0507: real time    0.0507
    SETDIJ:  cpu time    0.0131: real time    0.0132
    TRIAL :  cpu time   12.3074: real time   12.3322
    CORREC:  cpu time    4.0851: real time    4.0907
    CHARGE:  cpu time    0.4511: real time    0.4515
    --------------------------------------------
      LOOP:  cpu time   16.9113: real time   16.9422

 eigenvalue-minimisations  :     0
 total energy-change (2. order) :-0.5356622E+02  (-0.3646104E+02)
 number of electron     258.0000071 magnetization       6.0000009
 augmentation part       77.6201333 magnetization       3.7787790

 Free energy of the ion-electron system (eV)
  ---------------------------------------------------
  alpha Z        PSCENC =       752.39163687
  Ewald energy   TEWEN  =    -13855.26699051
  -Hartree energ DENC   =     -7130.26486526
  -exchange      EXHF   =         0.00000000
  -V(xc)+E(xc)   XCENC  =       852.90834902
  PAW double counting   =     23990.86575472   -24511.60042343
  entropy T*S    EENTRO =        -0.02612814
  eigenvalues    EBANDS =      -445.05173625
  atomic energy  EATOM  =     20168.87094289
  ---------------------------------------------------
  free energy    TOTEN  =      -177.17264039 eV

  energy without entropy =     -177.14651225  energy(sigma->0) =     -177.15957632


--------------------------------------------------------------------------------------------------------




--------------------------------------- Iteration      1(  12)  ---------------------------------------


    POTLOK:  cpu time    0.0446: real time    0.0447
    SETDIJ:  cpu time    0.0134: real time    0.0134
    TRIAL :  cpu time   12.1648: real time   12.1911
    CORREC:  cpu time    4.0893: real time    4.0954
    CHARGE:  cpu time    0.4459: real time    0.4467
    --------------------------------------------
      LOOP:  cpu time   16.7619: real time   16.7952

 eigenvalue-minimisations  :     0
 total energy-change (2. order) :-0.1542043E+02  (-0.8698076E+01)
 number of electron     258.0000070 magnetization       6.0000009
 augmentation part       77.6968599 magnetization       3.7427835

 Free energy of the ion-electron system (eV)
  ---------------------------------------------------
  alpha Z        PSCENC =       752.39163687
  Ewald energy   TEWEN  =    -13855.26699051
  -Hartree energ DENC   =     -7176.01082438
  -exchange      EXHF   =         0.00000000
  -V(xc)+E(xc)   XCENC  =       850.41631988
  PAW double counting   =     24247.60805863   -24832.22110246
  entropy T*S    EENTRO =        -0.02787396
  eigenvalues    EBANDS =      -348.35498016
  atomic energy  EATOM  =     20168.87094289
  ---------------------------------------------------
  free energy    TOTEN  =      -192.59306739 eV

  energy without entropy =     -192.56519343  energy(sigma->0) =     -192.57913041


--------------------------------------------------------------------------------------------------------




--------------------------------------- Iteration      1(  13)  ---------------------------------------


    POTLOK:  cpu time    0.0445: real time    0.0445
    SETDIJ:  cpu time    0.0131: real time    0.0131
    TRIAL :  cpu time   12.0645: real time   12.0814
    CORREC:  cpu time    4.0612: real time    4.0979
    CHARGE:  cpu time    0.4304: real time    0.4444
    --------------------------------------------
      LOOP:  cpu time   16.6177: real time   16.6852

 eigenvalue-minimisations  :     0
 total energy-change (2. order) :-0.3677379E+01  (-0.1489182E+02)
 number of electron     258.0000070 magnetization       6.0000011
 augmentation part       76.4237235 magnetization       3.7946296

 Free energy of the ion-electron system (eV)
  ---------------------------------------------------
  alpha Z        PSCENC =       752.39163687
  Ewald energy   TEWEN  =    -13855.26699051
  -Hartree energ DENC   =     -7164.29925713
  -exchange      EXHF   =         0.00000000
  -V(xc)+E(xc)   XCENC  =       849.73090366
  PAW double counting   =     24261.56450712   -24846.31339766
  entropy T*S    EENTRO =        -0.02546427
  eigenvalues    EBANDS =      -362.92091720
  atomic energy  EATOM  =     20168.87094289
  ---------------------------------------------------
  free energy    TOTEN  =      -196.27044593 eV

  energy without entropy =     -196.24498166  energy(sigma->0) =     -196.25771379


--------------------------------------------------------------------------------------------------------




--------------------------------------- Iteration      1(  14)  ---------------------------------------


    POTLOK:  cpu time    0.0443: real time    0.0449
    SETDIJ:  cpu time    0.0130: real time    0.0131
    TRIAL :  cpu time   11.9314: real time   12.1361
    CORREC:  cpu time    4.0036: real time    4.1011
    CHARGE:  cpu time    0.4415: real time    0.4474
    --------------------------------------------
      LOOP:  cpu time   16.4343: real time   16.7470

 eigenvalue-minimisations  :     0
 total energy-change (2. order) :-0.1181443E+02  (-0.9335184E+01)
 number of electron     258.0000070 magnetization       6.0000011
 augmentation part       75.6163799 magnetization       3.8383189

 Free energy of the ion-electron system (eV)
  ---------------------------------------------------
  alpha Z        PSCENC =       752.39163687
  Ewald energy   TEWEN  =    -13855.26699051
  -Hartree energ DENC   =     -7145.11556855
  -exchange      EXHF   =         0.00000000
  -V(xc)+E(xc)   XCENC  =       849.45127019
  PAW double counting   =     24086.72437547   -24609.21178597
  entropy T*S    EENTRO =        -0.02419350
  eigenvalues    EBANDS =      -455.90328873
  atomic energy  EATOM  =     20168.87094289
  ---------------------------------------------------
  free energy    TOTEN  =      -208.08487262 eV

  energy without entropy =     -208.06067912  energy(sigma->0) =     -208.07277587


--------------------------------------------------------------------------------------------------------




--------------------------------------- Iteration      1(  15)  ---------------------------------------


    POTLOK:  cpu time    0.0451: real time    0.0451
    SETDIJ:  cpu time    0.0132: real time    0.0132
    TRIAL :  cpu time   12.0135: real time   12.1447
    CORREC:  cpu time    4.1450: real time    4.1851
    CHARGE:  cpu time    0.4352: real time    0.4480
    --------------------------------------------
      LOOP:  cpu time   16.6558: real time   16.8398

 eigenvalue-minimisations  :     0
 total energy-change (2. order) :-0.7249770E+01  (-0.4293351E+01)
 number of electron     258.0000069 magnetization       6.0000011
 augmentation part       75.1163549 magnetization       3.8618734

 Free energy of the ion-electron system (eV)
  ---------------------------------------------------
  alpha Z        PSCENC =       752.39163687
  Ewald energy   TEWEN  =    -13855.26699051
  -Hartree energ DENC   =     -7121.70097773
  -exchange      EXHF   =         0.00000000
  -V(xc)+E(xc)   XCENC  =       849.63951641
  PAW double counting   =     24013.91840444   -24497.06158478
  entropy T*S    EENTRO =        -0.02274956
  eigenvalues    EBANDS =      -526.10139701
  atomic energy  EATOM  =     20168.87094289
  ---------------------------------------------------
  free energy    TOTEN  =      -215.33464293 eV

  energy without entropy =     -215.31189338  energy(sigma->0) =     -215.32326816


--------------------------------------------------------------------------------------------------------




--------------------------------------- Iteration      1(  16)  ---------------------------------------


    POTLOK:  cpu time    0.0458: real time    0.0458
    SETDIJ:  cpu time    0.0133: real time    0.0134
    TRIAL :  cpu time   12.0649: real time   12.2264
    CORREC:  cpu time    4.0852: real time    4.0911
    CHARGE:  cpu time    0.4454: real time    0.4461
    --------------------------------------------
      LOOP:  cpu time   16.6551: real time   16.8233

 eigenvalue-minimisations  :     0
 total energy-change (2. order) :-0.3873086E+01  (-0.9111556E+00)
 number of electron     258.0000068 magnetization       6.0000012
 augmentation part       75.3863008 magnetization       3.8517763

 Free energy of the ion-electron system (eV)
  ---------------------------------------------------
  alpha Z        PSCENC =       752.39163687
  Ewald energy   TEWEN  =    -13855.26699051
  -Hartree energ DENC   =     -7089.99241823
  -exchange      EXHF   =         0.00000000
  -V(xc)+E(xc)   XCENC  =       850.32814502
  PAW double counting   =     23980.86910912   -24436.59072288
  entropy T*S    EENTRO =        -0.02096573
  eigenvalues    EBANDS =      -589.79468149
  atomic energy  EATOM  =     20168.87094289
  ---------------------------------------------------
  free energy    TOTEN  =      -219.20772878 eV

  energy without entropy =     -219.18676305  energy(sigma->0) =     -219.19724591


--------------------------------------------------------------------------------------------------------




--------------------------------------- Iteration      1(  17)  ---------------------------------------


    POTLOK:  cpu time    0.0446: real time    0.0446
    SETDIJ:  cpu time    0.0132: real time    0.0132
    TRIAL :  cpu time   12.0649: real time   12.0832
    CORREC:  cpu time    4.1897: real time    4.1963
    CHARGE:  cpu time    0.4464: real time    0.4471
    --------------------------------------------
      LOOP:  cpu time   16.7626: real time   16.7884

 eigenvalue-minimisations  :     0
 total energy-change (2. order) :-0.8630816E+00  (-0.5784638E+00)
 number of electron     258.0000068 magnetization       6.0000012
 augmentation part       75.6888855 magnetization       3.8385273

 Free energy of the ion-electron system (eV)
  ---------------------------------------------------
  alpha Z        PSCENC =       752.39163687
  Ewald energy   TEWEN  =    -13855.26699051
  -Hartree energ DENC   =     -7116.51972573
  -exchange      EXHF   =         0.00000000
  -V(xc)+E(xc)   XCENC  =       851.27159684
  PAW double counting   =     24003.45275754   -24463.77979661
  entropy T*S    EENTRO =        -0.02175017
  eigenvalues    EBANDS =      -560.47026593
  atomic energy  EATOM  =     20168.87094289
  ---------------------------------------------------
  free energy    TOTEN  =      -220.07081037 eV

  energy without entropy =     -220.04906020  energy(sigma->0) =     -220.05993529


--------------------------------------------------------------------------------------------------------




--------------------------------------- Iteration      1(  18)  ---------------------------------------


    POTLOK:  cpu time    0.0448: real time    0.0448
    SETDIJ:  cpu time    0.0132: real time    0.0132
    TRIAL :  cpu time   11.9409: real time   11.9610
    CORREC:  cpu time    4.0998: real time    4.1088
    CHARGE:  cpu time    0.4444: real time    0.4448
    --------------------------------------------
      LOOP:  cpu time   16.5470: real time   16.5765

 eigenvalue-minimisations  :     0
 total energy-change (2. order) :-0.5385698E+00  (-0.3719116E+00)
 number of electron     258.0000068 magnetization       6.0000012
 augmentation part       75.9460952 magnetization       3.8291731

 Free energy of the ion-electron system (eV)
  ---------------------------------------------------
  alpha Z        PSCENC =       752.39163687
  Ewald energy   TEWEN  =    -13855.26699051
  -Hartree energ DENC   =     -7132.67351782
  -exchange      EXHF   =         0.00000000
  -V(xc)+E(xc)   XCENC  =       852.13877385
  PAW double counting   =     24025.77522545   -24492.37877460
  entropy T*S    EENTRO =        -0.01997292
  eigenvalues    EBANDS =      -539.44492616
  atomic energy  EATOM  =     20168.87094289
  ---------------------------------------------------
  free energy    TOTEN  =      -220.60938021 eV

  energy without entropy =     -220.58940729  energy(sigma->0) =     -220.59939375


--------------------------------------------------------------------------------------------------------




--------------------------------------- Iteration      1(  19)  ---------------------------------------


    POTLOK:  cpu time    0.0448: real time    0.0448
    SETDIJ:  cpu time    0.0133: real time    0.0133
    TRIAL :  cpu time   12.0995: real time   12.1170
    CORREC:  cpu time    4.1297: real time    4.1355
    CHARGE:  cpu time    0.4474: real time    0.4478
    --------------------------------------------
      LOOP:  cpu time   16.7384: real time   16.7623

 eigenvalue-minimisations  :     0
 total energy-change (2. order) :-0.3481174E+00  (-0.3283444E+00)
 number of electron     258.0000067 magnetization       6.0000013
 augmentation part       76.0927859 magnetization       3.8297372

 Free energy of the ion-electron system (eV)
  ---------------------------------------------------
  alpha Z        PSCENC =       752.39163687
  Ewald energy   TEWEN  =    -13855.26699051
  -Hartree energ DENC   =     -7142.93809860
  -exchange      EXHF   =         0.00000000
  -V(xc)+E(xc)   XCENC  =       852.89010047
  PAW double counting   =     24032.75029881   -24503.83927356
  entropy T*S    EENTRO =        -0.01934626
  eigenvalues    EBANDS =      -525.79614108
  atomic energy  EATOM  =     20168.87094289
  ---------------------------------------------------
  free energy    TOTEN  =      -220.95749764 eV

  energy without entropy =     -220.93815138  energy(sigma->0) =     -220.94782451


--------------------------------------------------------------------------------------------------------




--------------------------------------- Iteration      1(  20)  ---------------------------------------


    POTLOK:  cpu time    0.0446: real time    0.0446
    SETDIJ:  cpu time    0.0130: real time    0.0130
    TRIAL :  cpu time   12.0586: real time   12.0813
    CORREC:  cpu time    4.0546: real time    4.0608
    CHARGE:  cpu time    0.4431: real time    0.4438
    --------------------------------------------
      LOOP:  cpu time   16.6180: real time   16.6474

 eigenvalue-minimisations  :     0
 total energy-change (2. order) :-0.3247366E+00  (-0.2732410E+00)
 number of electron     258.0000066 magnetization       6.0000014
 augmentation part       76.1049233 magnetization       3.8400335

 Free energy of the ion-electron system (eV)
  ---------------------------------------------------
  alpha Z        PSCENC =       752.39163687
  Ewald energy   TEWEN  =    -13855.26699051
  -Hartree energ DENC   =     -7149.52692811
  -exchange      EXHF   =         0.00000000
  -V(xc)+E(xc)   XCENC  =       853.47570713
  PAW double counting   =     24018.27588898   -24489.56653208
  entropy T*S    EENTRO =        -0.01763976
  eigenvalues    EBANDS =      -519.91661309
  atomic energy  EATOM  =     20168.87094289
  ---------------------------------------------------
  free energy    TOTEN  =      -221.28223419 eV

  energy without entropy =     -221.26459443  energy(sigma->0) =     -221.27341431


--------------------------------------------------------------------------------------------------------




--------------------------------------- Iteration      1(  21)  ---------------------------------------


    POTLOK:  cpu time    0.0449: real time    0.0450
    SETDIJ:  cpu time    0.0130: real time    0.0130
    TRIAL :  cpu time   12.0898: real time   12.1090
    CORREC:  cpu time    4.0552: real time    4.0612
    CHARGE:  cpu time    0.4412: real time    0.4415
    --------------------------------------------
      LOOP:  cpu time   16.6481: real time   16.6738

 eigenvalue-minimisations  :     0
 total energy-change (2. order) :-0.2657824E+00  (-0.1467290E+00)
 number of electron     258.0000066 magnetization       6.0000015
 augmentation part       76.0645551 magnetization       3.8527625

 Free energy of the ion-electron system (eV)
  ---------------------------------------------------
  alpha Z        PSCENC =       752.39163687
  Ewald energy   TEWEN  =    -13855.26699051
  -Hartree energ DENC   =     -7141.21419413
  -exchange      EXHF   =         0.00000000
  -V(xc)+E(xc)   XCENC  =       853.69445180
  PAW double counting   =     23981.96392298   -24449.31026327
  entropy T*S    EENTRO =        -0.01647515
  eigenvalues    EBANDS =      -532.65988346
  atomic energy  EATOM  =     20168.87094289
  ---------------------------------------------------
  free energy    TOTEN  =      -221.54801660 eV

  energy without entropy =     -221.53154145  energy(sigma->0) =     -221.53977902


--------------------------------------------------------------------------------------------------------




--------------------------------------- Iteration      1(  22)  ---------------------------------------


    POTLOK:  cpu time    0.0446: real time    0.0446
    SETDIJ:  cpu time    0.0131: real time    0.0131
    TRIAL :  cpu time   12.1368: real time   12.1559
    CORREC:  cpu time    4.0904: real time    4.0958
    CHARGE:  cpu time    0.4465: real time    0.4468
    --------------------------------------------
      LOOP:  cpu time   16.7353: real time   16.7601

 eigenvalue-minimisations  :     0
 total energy-change (2. order) :-0.1418710E+00  (-0.2633294E+00)
 number of electron     258.0000064 magnetization       6.0000016
 augmentation part       75.9995389 magnetization       3.8789152

 Free energy of the ion-electron system (eV)
  ---------------------------------------------------
  alpha Z        PSCENC =       752.39163687
  Ewald energy   TEWEN  =    -13855.26699051
  -Hartree energ DENC   =     -7137.39029228
  -exchange      EXHF   =         0.00000000
  -V(xc)+E(xc)   XCENC  =       853.56758991
  PAW double counting   =     23960.87281258   -24425.12122997
  entropy T*S    EENTRO =        -0.01472750
  eigenvalues    EBANDS =      -539.59788198
  atomic energy  EATOM  =     20168.87094289
  ---------------------------------------------------
  free energy    TOTEN  =      -221.68988764 eV

  energy without entropy =     -221.67516014  energy(sigma->0) =     -221.68252389


--------------------------------------------------------------------------------------------------------




--------------------------------------- Iteration      1(  23)  ---------------------------------------


    POTLOK:  cpu time    0.0443: real time    0.0443
    SETDIJ:  cpu time    0.0131: real time    0.0131
    TRIAL :  cpu time   12.0793: real time   12.0982
    CORREC:  cpu time    4.0650: real time    4.0710
    CHARGE:  cpu time    0.4428: real time    0.4435
    --------------------------------------------
      LOOP:  cpu time   16.6484: real time   16.6742

 eigenvalue-minimisations  :     0
 total energy-change (2. order) :-0.2634180E+00  (-0.1963726E+00)
 number of electron     258.0000063 magnetization       6.0000017
 augmentation part       76.0119665 magnetization       3.9259711

 Free energy of the ion-electron system (eV)
  ---------------------------------------------------
  alpha Z        PSCENC =       752.39163687
  Ewald energy   TEWEN  =    -13855.26699051
  -Hartree energ DENC   =     -7136.36653919
  -exchange      EXHF   =         0.00000000
  -V(xc)+E(xc)   XCENC  =       853.12143793
  PAW double counting   =     23932.32239268   -24392.51911444
  entropy T*S    EENTRO =        -0.01330773
  eigenvalues    EBANDS =      -544.49234435
  atomic energy  EATOM  =     20168.87094289
  ---------------------------------------------------
  free energy    TOTEN  =      -221.95330562 eV

  energy without entropy =     -221.93999789  energy(sigma->0) =     -221.94665175


--------------------------------------------------------------------------------------------------------




--------------------------------------- Iteration      1(  24)  ---------------------------------------


    POTLOK:  cpu time    0.0451: real time    0.0451
    SETDIJ:  cpu time    0.0133: real time    0.0133
    TRIAL :  cpu time   12.0349: real time   12.0517
    CORREC:  cpu time    4.0807: real time    4.0861
    CHARGE:  cpu time    0.4432: real time    0.4438
    --------------------------------------------
      LOOP:  cpu time   16.6212: real time   16.6439

 eigenvalue-minimisations  :     0
 total energy-change (2. order) :-0.1984310E+00  (-0.2166009E+00)
 number of electron     258.0000061 magnetization       6.0000019
 augmentation part       75.9967335 magnetization       4.0421268

 Free energy of the ion-electron system (eV)
  ---------------------------------------------------
  alpha Z        PSCENC =       752.39163687
  Ewald energy   TEWEN  =    -13855.26699051
  -Hartree energ DENC   =     -7136.95576497
  -exchange      EXHF   =         0.00000000
  -V(xc)+E(xc)   XCENC  =       852.92012828
  PAW double counting   =     23926.45513117   -24387.32076839
  entropy T*S    EENTRO =        -0.01312136
  eigenvalues    EBANDS =      -543.23274424
  atomic energy  EATOM  =     20168.87094289
  ---------------------------------------------------
  free energy    TOTEN  =      -222.15173665 eV

  energy without entropy =     -222.13861529  energy(sigma->0) =     -222.14517597


--------------------------------------------------------------------------------------------------------




--------------------------------------- Iteration      1(  25)  ---------------------------------------


    POTLOK:  cpu time    0.0452: real time    0.0452
    SETDIJ:  cpu time    0.0133: real time    0.0133
    TRIAL :  cpu time   12.0650: real time   12.0833
    CORREC:  cpu time    4.0719: real time    4.0781
    CHARGE:  cpu time    0.6037: real time    0.6041
    --------------------------------------------
      LOOP:  cpu time   16.8032: real time   16.8279

 eigenvalue-minimisations  :     0
 total energy-change (2. order) :-0.2130817E+00  (-0.2855298E+00)
[...]
   20        1.570   3.447   0.000   5.016
   21        1.576   3.383   0.000   4.959
   22        1.582   3.336   0.000   4.918
   23        1.582   3.360   0.000   4.942
   24        1.576   3.413   0.000   4.989
   25        1.580   3.359   0.000   4.939
   26        1.571   3.425   0.000   4.996
   27        1.561   3.467   0.000   5.028
   28        1.554   3.470   0.000   5.024
   29        1.561   3.498   0.000   5.059
   30        1.564   3.435   0.000   4.998
   31        1.575   3.440   0.000   5.015
   32        1.568   3.455   0.000   5.022
   33        1.561   3.483   0.000   5.044
   34        1.563   3.458   0.000   5.021
   35        1.581   3.387   0.000   4.969
   36        1.567   3.438   0.000   5.005
   37        1.575   3.369   0.000   4.944
   38        1.572   3.412   0.000   4.984
   39        1.557   3.468   0.000   5.025
   40        1.567   3.434   0.000   5.001
   41        1.567   3.421   0.000   4.988
   42        1.565   3.445   0.000   5.010
--------------------------------------------------
tot         43.658  91.998  87.703 223.359
 


 magnetization (x)
 
# of ion       s       p       d       tot
------------------------------------------
    1        0.001  -0.001   0.000   0.000
    2        0.001   0.001   0.000   0.002
    3        0.001  -0.000   0.000   0.001
    4        0.000   0.000   0.000   0.000
    5        0.000  -0.001   0.000  -0.001
    6        0.001   0.000   0.000   0.001
    7        0.014   0.018   1.433   1.464
    8        0.005   0.008  -0.026  -0.012
    9        0.012   0.017   1.291   1.320
   10        0.016   0.020   1.713   1.749
   11        0.006   0.008   1.023   1.037
   12        0.005   0.001  -0.008  -0.002
   13        0.001   0.000  -0.035  -0.034
   14        0.001   0.000  -0.049  -0.048
   15        0.004   0.005   0.008   0.017
   16        0.010   0.014   1.192   1.216
   17        0.011   0.011   1.335   1.358
   18        0.003   0.004  -0.011  -0.004
   19        0.001  -0.125   0.000  -0.124
   20        0.001  -0.063   0.000  -0.062
   21        0.000  -0.168   0.000  -0.168
   22        0.002  -0.210   0.000  -0.209
   23        0.001  -0.161   0.000  -0.160
   24        0.002  -0.115   0.000  -0.113
   25        0.002  -0.176   0.000  -0.175
   26        0.001  -0.088   0.000  -0.087
   27       -0.000  -0.028   0.000  -0.028
   28       -0.001  -0.022   0.000  -0.022
   29       -0.000  -0.025   0.000  -0.025
   30        0.000  -0.023   0.000  -0.022
   31        0.001  -0.002   0.000  -0.001
   32       -0.000  -0.035   0.000  -0.036
   33       -0.001  -0.028   0.000  -0.029
   34       -0.000  -0.037   0.000  -0.037
   35        0.001  -0.090   0.000  -0.089
   36        0.000  -0.031   0.000  -0.031
   37       -0.000  -0.103   0.000  -0.104
   38        0.000  -0.088   0.000  -0.088
   39        0.001  -0.030   0.000  -0.030
   40        0.000  -0.075   0.000  -0.074
   41        0.001  -0.061   0.000  -0.061
   42        0.000  -0.043   0.000  -0.043
--------------------------------------------------
tot          0.103  -1.722   7.865   6.246
 
    FORLOC:  cpu time    0.0087: real time    0.0087
    FORNL :  cpu time    4.2426: real time    4.2467
    STRESS:  cpu time   12.8527: real time   12.8729
    FORCOR:  cpu time    0.0484: real time    0.0484
    OFIELD:  cpu time    0.0003: real time    0.0003

  DFT-D2 method for vdW energy calculation
  -------------------------------------------------------------------

  Parameters of vdW forcefield:
         C6(Jnm^6/mol)     R0(A)
   -----------------------------
   Li       1.610          0.825
   Co      10.800          1.562
   O        0.700          1.342

  IVDW =   1
  VDW_RADIUS =    50.000 A
  VDW_S6 =     0.750
  VDW_SR =     1.000
  VDW_D =    20.000
  LVDW_EWALD = F

  Number of pair interactions contributing to vdW energy: 1213441
  Edisp (eV):   -9.69190
    FORVDW:  cpu time    0.1793: real time    0.1801

  FORCE on cell =-STRESS in cart. coord.  units (eV):
  Direction    XX          YY          ZZ          XY          YZ          ZX
  --------------------------------------------------------------------------------------
  Alpha Z   752.39164   752.39164   752.39164
  Ewald   -1580.72259 -1494.93713-10779.67462   -69.56682   -89.27569    17.22056
  Hartree  4659.99142  4691.76142 -2219.70653   -22.82730   -31.00229     2.40672
  E(xc)   -1286.35826 -1286.25614 -1287.72780    -0.04960    -0.01762     0.14168
  Local   -8040.22868 -8146.92408  7999.24890    88.38091   113.66156   -15.56080
  n-local  -593.19845  -587.91702  -598.97088    -1.06152    -2.94620    -0.28913
  augment  2023.45195  2016.50085  2002.42546     0.07935     2.64299    -1.68251
  Kinetic  4070.68205  4069.98964  4148.30999     8.46826     2.54338    -5.84646
  Fock        0.00000     0.00000     0.00000     0.00000     0.00000     0.00000
  vdW        -5.81649    -6.13045   -13.37223    -0.02122     0.02599     0.14129
  -------------------------------------------------------------------------------------
  Total       0.19257     8.47873     2.92391     3.40205    -4.36788    -3.46865
  in kB       0.79182    34.86348    12.02274    13.98882   -17.96015   -14.26264
  external pressure =       15.89 kB  Pullay stress =        0.00 kB


 VOLUME and BASIS-vectors are now :
 -----------------------------------------------------------------------------
  energy-cutoff  :      600.00
  volume of cell :      389.65
      direct lattice vectors                 reciprocal lattice vectors
     5.657479286  0.000000000  0.000000000     0.176757165  0.106051168  0.035107640
    -2.913324833  4.855684757  0.000000000     0.000000000  0.205944177  0.039947190
    -1.166511059 -2.751275063 14.183953285     0.000000000  0.000000000  0.070502206

  length of vectors
     5.657479286  5.662608590 14.495336951     0.209099239  0.209782702  0.070502206


 FORCES acting on ions:
    Electron-Ion                     Ewald-Force                    Non-Local-Force
 -----------------------------------------------------------------------------------------------
   -.612E+01 -.104E+01 0.148E+01   0.548E+01 0.109E+01 -.161E+01   0.111E+01 0.308E-01 -.152E+00
   0.270E+01 -.299E+01 0.154E+02   -.280E+01 0.233E+01 -.151E+02   0.243E+00 0.107E+01 -.606E+00
   -.208E+01 0.260E+00 0.159E+02   0.195E+01 -.312E+00 -.154E+02   -.149E-01 0.190E+00 -.610E+00
   0.442E+00 -.490E+00 -.151E+02   -.292E+00 0.725E+00 0.148E+02   -.440E-01 -.140E+00 0.501E+00
   0.868E+00 0.350E+01 -.425E+01   -.718E+00 -.333E+01 0.416E+01   -.157E+00 -.425E+00 -.274E+00
   0.725E+00 0.326E+01 -.945E+01   -.758E+00 -.320E+01 0.933E+01   -.155E+00 -.757E+00 0.240E+00
   -.384E+02 0.274E+01 0.663E+02   0.393E+02 -.332E+01 -.668E+02   -.234E+00 -.105E+00 -.397E-01
   -.233E+02 -.171E+02 0.998E+02   0.242E+02 0.189E+02 -.996E+02   0.374E-01 -.809E+00 0.137E+01
   0.569E+02 0.824E+01 0.149E+03   -.586E+02 -.895E+01 -.150E+03   -.162E+00 0.754E+00 0.855E-01
   0.171E+02 -.974E+01 0.201E+03   -.177E+02 0.993E+01 -.200E+03   0.285E-01 0.669E+00 0.596E+00
   -.961E+01 0.265E+02 -.416E+02   0.905E+01 -.286E+02 0.427E+02   -.400E+00 0.313E+00 0.896E+00
   -.252E+02 -.599E+02 -.203E+02   0.249E+02 0.627E+02 0.211E+02   0.835E+00 0.100E+01 0.160E+00
   0.672E+01 0.164E+02 0.103E+00   -.753E+01 -.174E+02 -.195E+00   0.392E+00 0.132E+01 -.136E+00
   0.347E+02 -.511E+02 -.559E+01   -.342E+02 0.528E+02 0.562E+01   -.823E+00 0.996E+00 -.703E+00
   -.968E+01 -.255E+02 -.916E+02   0.973E+01 0.255E+02 0.923E+02   -.852E+00 0.265E+00 -.125E+01
   0.171E+02 0.433E+01 -.157E+03   -.178E+02 -.445E+01 0.156E+03   -.618E+00 -.181E+00 -.872E-01
   0.574E+02 0.309E+02 -.843E+02   -.589E+02 -.317E+02 0.851E+02   -.121E+01 -.593E+00 -.756E+00
   -.101E+02 0.180E+01 -.118E+03   0.997E+01 -.166E+01 0.119E+03   0.132E+00 0.639E+00 -.155E+01
   0.151E+00 0.765E+01 -.219E+03   0.475E-01 -.888E+01 0.239E+03   -.821E+00 0.103E+01 -.197E+02
   -.205E+02 -.250E+02 -.252E+03   0.231E+02 0.280E+02 0.272E+03   -.228E+01 -.232E+01 -.194E+02
   0.126E+02 0.354E+02 -.228E+03   -.156E+02 -.405E+02 0.247E+03   0.292E+01 0.432E+01 -.200E+02
   0.697E+01 0.845E+00 -.224E+03   -.717E+01 -.423E+00 0.245E+03   0.249E+00 -.112E+01 -.224E+02
   0.751E+01 -.166E+02 0.393E+03   -.980E+01 0.179E+02 -.418E+03   0.235E+01 -.333E+00 0.247E+02
   -.224E+02 -.987E+01 0.395E+03   0.233E+02 0.968E+01 -.418E+03   -.393E+00 0.102E+00 0.222E+02
   -.129E+02 0.236E+02 0.402E+03   0.159E+02 -.248E+02 -.425E+03   -.289E+01 0.700E+00 0.225E+02
   0.208E+02 -.415E+01 0.401E+03   -.228E+02 0.492E+01 -.422E+03   0.203E+01 -.112E+01 0.216E+02
   -.352E+02 -.141E+01 -.359E+03   0.389E+02 0.108E+01 0.377E+03   -.348E+01 -.305E+00 -.171E+02
   0.238E+02 0.167E+01 -.309E+03   -.255E+02 -.115E+01 0.323E+03   0.855E+00 -.794E+00 -.139E+02
   0.313E+02 -.147E+02 -.359E+03   -.336E+02 0.148E+02 0.376E+03   0.160E+01 0.369E+00 -.163E+02
   -.139E+02 0.487E+02 -.345E+03   0.145E+02 -.536E+02 0.361E+03   -.438E+00 0.354E+01 -.150E+02
   -.776E+01 -.935E+02 0.345E+03   0.108E+02 0.101E+03 -.369E+03   -.287E+01 -.358E+01 0.232E+02
   -.662E+02 0.461E+02 0.317E+03   0.722E+02 -.487E+02 -.337E+03   -.417E+01 0.108E+01 0.178E+02
   -.811E+00 0.206E+02 0.315E+03   -.220E+01 -.229E+02 -.334E+03   0.441E+01 0.544E-01 0.171E+02
   0.601E+02 0.498E+02 0.312E+03   -.634E+02 -.550E+02 -.328E+03   0.218E+01 0.361E+01 0.156E+02
   -.322E+02 0.160E+02 -.405E+03   0.362E+02 -.173E+02 0.432E+03   -.237E+01 0.132E+01 -.254E+02
   0.159E+02 -.698E+01 -.386E+03   -.204E+02 0.630E+01 0.406E+03   0.506E+01 0.331E+00 -.192E+02
   0.465E+01 0.183E+02 -.385E+03   -.364E+01 -.182E+02 0.409E+03   -.999E+00 -.149E+01 -.243E+02
   -.222E+02 -.154E+02 -.399E+03   0.275E+02 0.161E+02 0.421E+03   -.516E+01 0.164E+00 -.210E+02
   -.177E+02 -.293E+01 0.234E+03   0.197E+02 0.139E+01 -.248E+03   -.143E+01 0.205E+01 0.130E+02
   0.276E+02 -.143E+01 0.262E+03   -.302E+02 0.324E+01 -.280E+03   0.271E+01 -.132E+01 0.184E+02
   -.788E+00 -.498E+02 0.243E+03   0.121E+01 0.540E+02 -.260E+03   0.403E+00 -.274E+01 0.176E+02
   -.231E+02 0.362E+02 0.252E+03   0.256E+02 -.376E+02 -.270E+03   -.219E+01 0.799E-02 0.183E+02
 -----------------------------------------------------------------------------------------------
   0.658E+01 -.777E+01 0.409E+01   0.355E-14 0.497E-13 -.125E-11   -.660E+01 0.778E+01 -.409E+01
 
 
 POSITION                                       TOTAL-FORCE (eV/Angst)
 -----------------------------------------------------------------------------------
     -1.01017      3.61763      0.00190         0.382889      0.140792     -0.216364
     -0.85936      1.67314      4.85765         0.183935      0.237702     -0.192559
      0.91466     -0.58779      4.86974        -0.107356      0.091024      0.090266
      0.81545      2.74282      9.34370         0.082158      0.132106      0.175023
      2.20402      0.34450      9.44551         0.043700     -0.202075     -0.380432
     -0.57913      0.45623      9.39765        -0.114332     -0.531148     -0.012718
      0.74587      2.64153      2.58279         0.453415     -0.629717     -0.464772
      2.14834      0.14977      2.45233         0.722997      0.852189      1.382948
      3.59631      2.61166      2.44545        -1.544083      0.007348     -0.056092
      5.03855      0.17973      2.33282        -0.496779      0.764977      1.046149
      0.85866      1.01557      7.02776        -0.952660     -1.703496      1.748742
     -0.65046      3.29696      7.04933         0.364662      3.317284      0.788894
      3.65778      0.98797      7.07736        -0.372376      0.200292     -0.043026
      2.15869      3.37210      7.08045        -0.125626      2.405212     -0.485776
     -3.42266      2.04715     11.76395        -0.734607      0.065538     -0.521038
     -1.99538     -0.39371     11.82415        -1.161948     -0.173267     -1.027609
     -0.58111      2.04717     11.74475        -2.266019     -1.057499      0.044569
      0.83198     -0.41939     11.79905        -0.089281      0.726977     -0.473515
      0.78914      0.98930      3.46072        -0.610993     -0.119906     -0.350022
     -0.76352      3.34920      3.47248         0.471134      0.696805      0.360737
      3.65271      1.04240      3.42150        -0.093251     -0.749466     -0.679239
      2.18577      3.52078      3.53905        -0.033555     -0.749606     -1.358451
      2.14545      1.77676      1.58806         0.081265      0.971091     -0.281185
      0.62163      4.17725      1.57512         0.509068     -0.078773     -0.878340
     -0.64095      1.92244      1.44762         0.150567     -0.523472      0.272474
     -2.12518      4.21814      1.40839        -0.031516     -0.311752      0.605678
      2.20892      1.82368      8.06168         0.253468     -0.597719      0.718090
      3.73237     -0.62686      8.07942        -0.897314     -0.242844     -0.005114
     -0.52443      1.73550      8.02115        -0.707546      0.400629      0.839312
      0.83785     -0.51287      8.00913         0.127846     -1.495060      1.110967
      0.75799      2.40311      6.05688         0.205878      3.646225     -0.899279
      2.17591      0.23663      6.20033         1.904786     -1.522992     -1.713149
     -2.13444      2.74278      6.12503         1.337984     -2.284151     -1.166889
     -0.50529      0.30022      6.04833        -1.232873     -1.648477      0.066278
      3.59644     -2.02486     12.69305         1.679720      0.052963      0.806673
      2.23100      0.45015     12.71795         0.535802     -0.366170      0.457500
      0.90154     -1.97531     12.77505        -0.014936     -1.472469     -0.544652
     -0.62827      0.39521     12.70565         0.249242      0.849044      0.819683
      0.75680      1.18823     10.72435         0.630998      0.524913      0.070553
      2.27510     -1.23971     10.78935         0.092172      0.393647     -0.183875
     -2.09276      1.07226     10.70155         0.812136      1.516686      0.801875
     -0.63064     -1.08956     10.80385         0.311229     -1.533383     -0.272314
 -----------------------------------------------------------------------------------
    total drift:                               -0.023675      0.014556     -0.000289


--------------------------------------------------------------------------------------------------------



  FREE ENERGIE OF THE ION-ELECTRON SYSTEM (eV)
  ---------------------------------------------------
  free  energy   TOTEN  =      -234.05642918 eV

  energy  without entropy=     -234.05364264  energy(sigma->0) =     -234.05503591
 


--------------------------------------------------------------------------------------------------------


    POTLOK:  cpu time    0.0714: real time    0.0715


--------------------------------------------------------------------------------------------------------


     LOOP+:  cpu time 1942.3749: real time 1948.9372
    4ORBIT:  cpu time    0.0000: real time    0.0000
 


 total charge     
 
# of ion       s       p       d       tot
------------------------------------------
    1        0.082   0.166   0.000   0.247
    2        0.103   0.221   0.000   0.324
    3        0.095   0.200   0.000   0.295
    4        0.088   0.183   0.000   0.272
    5        0.089   0.183   0.000   0.271
    6        0.099   0.210   0.000   0.309
    7        0.452   0.720   7.193   8.365
    8        0.442   0.698   7.389   8.529
    9        0.472   0.766   7.242   8.481
   10        0.429   0.656   7.169   8.254
   11        0.557   0.987   7.442   8.987
   12        0.421   0.629   7.360   8.409
   13        0.420   0.641   7.333   8.394
   14        0.437   0.683   7.372   8.493
   15        0.406   0.606   7.315   8.328
   16        0.494   0.821   7.288   8.603
   17        0.466   0.728   7.233   8.427
   18        0.436   0.687   7.367   8.491
   19        1.573   3.410   0.000   4.983
   20        1.570   3.447   0.000   5.016
   21        1.576   3.383   0.000   4.959
   22        1.582   3.336   0.000   4.918
   23        1.582   3.360   0.000   4.942
   24        1.576   3.413   0.000   4.989
   25        1.580   3.359   0.000   4.939
   26        1.571   3.425   0.000   4.996
   27        1.561   3.467   0.000   5.028
   28        1.554   3.470   0.000   5.024
   29        1.561   3.498   0.000   5.059
   30        1.564   3.435   0.000   4.998
   31        1.575   3.440   0.000   5.015
   32        1.568   3.455   0.000   5.022
   33        1.561   3.483   0.000   5.044
   34        1.563   3.458   0.000   5.021
   35        1.581   3.387   0.000   4.969
   36        1.567   3.438   0.000   5.005
   37        1.575   3.369   0.000   4.944
   38        1.572   3.412   0.000   4.984
   39        1.557   3.468   0.000   5.025
   40        1.567   3.434   0.000   5.001
   41        1.567   3.421   0.000   4.988
   42        1.565   3.445   0.000   5.010
--------------------------------------------------
tot         43.658  91.998  87.703 223.359
 


 magnetization (x)
 
# of ion       s       p       d       tot
------------------------------------------
    1        0.001  -0.001   0.000   0.000
    2        0.001   0.001   0.000   0.002
    3        0.001  -0.000   0.000   0.001
    4        0.000   0.000   0.000   0.000
    5        0.000  -0.001   0.000  -0.001
    6        0.001   0.000   0.000   0.001
    7        0.014   0.018   1.433   1.464
    8        0.005   0.008  -0.026  -0.012
    9        0.012   0.017   1.291   1.320
   10        0.016   0.020   1.713   1.749
   11        0.006   0.008   1.023   1.037
   12        0.005   0.001  -0.008  -0.002
   13        0.001   0.000  -0.035  -0.034
   14        0.001   0.000  -0.049  -0.048
   15        0.004   0.005   0.008   0.017
   16        0.010   0.014   1.192   1.216
   17        0.011   0.011   1.335   1.358
   18        0.003   0.004  -0.011  -0.004
   19        0.001  -0.125   0.000  -0.124
   20        0.001  -0.063   0.000  -0.062
   21        0.000  -0.168   0.000  -0.168
   22        0.002  -0.210   0.000  -0.209
   23        0.001  -0.161   0.000  -0.160
   24        0.002  -0.115   0.000  -0.113
   25        0.002  -0.176   0.000  -0.175
   26        0.001  -0.088   0.000  -0.087
   27       -0.000  -0.028   0.000  -0.028
   28       -0.001  -0.022   0.000  -0.022
   29       -0.000  -0.025   0.000  -0.025
   30        0.000  -0.023   0.000  -0.022
   31        0.001  -0.002   0.000  -0.001
   32       -0.000  -0.035   0.000  -0.036
   33       -0.001  -0.028   0.000  -0.029
   34       -0.000  -0.037   0.000  -0.037
   35        0.001  -0.090   0.000  -0.089
   36        0.000  -0.031   0.000  -0.031
   37       -0.000  -0.103   0.000  -0.104
   38        0.000  -0.088   0.000  -0.088
   39        0.001  -0.030   0.000  -0.030
   40        0.000  -0.075   0.000  -0.074
   41        0.001  -0.061   0.000  -0.061
   42        0.000  -0.043   0.000  -0.043
--------------------------------------------------
tot          0.103  -1.722   7.865   6.246
 

 total amount of memory used by VASP MPI-rank0   158249. kBytes
=======================================================================

   base      :      30000. kBytes
   nonlr-proj:       4349. kBytes
   fftplans  :       1689. kBytes
   grid      :       4644. kBytes
   one-center:        342. kBytes
   wavefun   :     117225. kBytes
 
  
  
 General timing and accounting informations for this job:
 ========================================================
  
                  Total CPU time used (sec):     1965.419
                            User time (sec):     1710.232
                          System time (sec):      255.187
                         Elapsed time (sec):     1972.479
  
                   Maximum memory used (kb):      659056.
                   Average memory used (kb):           0.
  
                          Minor page faults:        70668
                          Major page faults:           78
                 Voluntary context switches:          613
