       N       E                     dE             d eps       ncg     rms          ort
DAV:   1     0.345762980372E+04    0.34576E+04   -0.13896E+05  5760   0.214E+03
DAV:   2     0.413697366954E+03   -0.30439E+04   -0.28077E+04  5760   0.522E+02
DAV:   3    -0.218105480112E+03   -0.63180E+03   -0.58046E+03  5760   0.251E+02
DAV:   4    -0.269559428780E+03   -0.51454E+02   -0.50240E+02  5760   0.738E+01
DAV:   5    -0.271484016079E+03   -0.19246E+01   -0.19208E+01  5760   0.142E+01
SDA:   6     0.153926027361E+03    0.42541E+03   -0.19208E+01  5760   0.310E+04 0.000E+00
CGA:   7     0.550355884828E+02   -0.98890E+02   -0.88505E+02  5760   0.205E+04 0.165E+04
CGA:   8    -0.461108897916E+01   -0.59647E+02   -0.18490E+02  5760   0.434E+04 0.561E+04
CGA:   9    -0.288391293561E+02   -0.24228E+02   -0.10344E+03  5760   0.683E+04-0.295E+04
CGA:  10    -0.650430790725E+02   -0.36204E+02   -0.26071E+03  5760   0.104E+04 0.176E+03
CGA:  11    -0.756405614191E+02   -0.10597E+02   -0.61339E+01  5760   0.826E+03 0.927E+03
CGA:  12    -0.815377594298E+02   -0.58972E+01   -0.30817E+01  5760   0.797E+03 0.831E+03
CGA:  13    -0.950398109738E+02   -0.13502E+02   -0.28800E+01  5760   0.498E+04 0.535E+04
CGA:  14    -0.169364583358E+03   -0.74325E+02   -0.93096E+02  5760   0.787E+03-0.138E+04
CGA:  15    -0.188188039262E+03   -0.18823E+02   -0.35698E+02  5760   0.109E+04-0.128E+03
CGA:  16    -0.204853089907E+03   -0.16665E+02   -0.35422E+02  5760   0.209E+03-0.287E+03
CGA:  17    -0.209682757784E+03   -0.48297E+01   -0.44475E+01  5760   0.505E+02 0.179E+02
CGA:  18    -0.212501335255E+03   -0.28186E+01   -0.35353E+01  5760   0.136E+03-0.566E+01
CGA:  19    -0.215816448913E+03   -0.33151E+01   -0.37200E+01  5760   0.508E+02-0.120E+02
CGA:  20    -0.217086999606E+03   -0.12706E+01   -0.13756E+01  5760   0.200E+02-0.357E+01
CGA:  21    -0.218384518641E+03   -0.12975E+01   -0.13703E+01  5760   0.354E+02-0.243E-01
CGA:  22    -0.219794101983E+03   -0.14096E+01   -0.13714E+01  5760   0.911E+01 0.102E+01
CGA:  23    -0.220186733956E+03   -0.39263E+00   -0.41454E+00  5760   0.519E+01-0.193E+00
CGA:  24    -0.220458369388E+03   -0.27164E+00   -0.28312E+00  5760   0.330E+01-0.455E-01
CGA:  25    -0.220729042357E+03   -0.27067E+00   -0.26926E+00  5760   0.361E+01-0.131E-01
CGA:  26    -0.220891284096E+03   -0.16224E+00   -0.16473E+00  5760   0.205E+01-0.422E-01
CGA:  27    -0.221033765103E+03   -0.14248E+00   -0.14532E+00  5760   0.212E+01 0.153E-01
CGA:  28    -0.221207534756E+03   -0.17377E+00   -0.17707E+00  5760   0.177E+01 0.887E-01
CGA:  29    -0.221336231695E+03   -0.12870E+00   -0.12157E+00  5760   0.113E+01 0.989E-03
CGA:  30    -0.221488739330E+03   -0.15251E+00   -0.15279E+00  5760   0.289E+01-0.105E-01
CGA:  31    -0.221708307096E+03   -0.21957E+00   -0.22586E+00  5760   0.182E+01 0.112E+00
CGA:  32    -0.221922614964E+03   -0.21431E+00   -0.21411E+00  5760   0.281E+01 0.149E-02
CGA:  33    -0.222135773633E+03   -0.21316E+00   -0.20545E+00  5760   0.176E+01-0.699E-01
CGA:  34    -0.222275550765E+03   -0.13978E+00   -0.13867E+00  5760   0.315E+01-0.232E-01
CGA:  35    -0.222491145572E+03   -0.21559E+00   -0.21322E+00  5760   0.219E+01 0.531E-02
CGA:  36    -0.222585385264E+03   -0.94240E-01   -0.93357E-01  5760   0.196E+01 0.647E-02
CGA:  37    -0.222726391938E+03   -0.14101E+00   -0.14441E+00  5760   0.188E+01 0.595E-01
CGA:  38    -0.222795762287E+03   -0.69370E-01   -0.68715E-01  5760   0.737E+00 0.311E-02
CGA:  39    -0.222891920890E+03   -0.96159E-01   -0.95294E-01  5760   0.146E+01 0.170E-01
CGA:  40    -0.222951552084E+03   -0.59631E-01   -0.57592E-01  5760   0.607E+00 0.297E-01
CGA:  41    -0.223025585127E+03   -0.74033E-01   -0.74709E-01  5760   0.126E+01-0.155E-01
CGA:  42    -0.223070230695E+03   -0.44646E-01   -0.44063E-01  5760   0.409E+00 0.987E-02
CGA:  43    -0.223099860719E+03   -0.29630E-01   -0.29754E-01  5760   0.791E+00 0.309E-02
SDA:  44    -0.223142468739E+03   -0.42608E-01   -0.42034E-01  5760   0.286E+00-0.438E-02
CGA:  45    -0.223169495603E+03   -0.27027E-01   -0.27017E-01  5760   0.356E+00 0.527E-03
CGA:  46    -0.223187078195E+03   -0.17583E-01   -0.17531E-01  5760   0.111E+00 0.199E-03
CGA:  47    -0.223230682732E+03   -0.43605E-01   -0.43245E-01  5760   0.604E-01 0.100E-02
CGA:  48    -0.223249886053E+03   -0.19203E-01   -0.18912E-01  5760   0.108E+00 0.125E-02
CGA:  49    -0.223255488545E+03   -0.56025E-02   -0.56290E-02  5760   0.842E-01-0.376E-03
CGA:  50    -0.223269154455E+03   -0.13666E-01   -0.13649E-01  5760   0.443E-01 0.237E-03
CGA:  51    -0.223281019660E+03   -0.11865E-01   -0.11781E-01  5760   0.347E-01 0.296E-03
CGA:  52    -0.223283713631E+03   -0.26940E-02   -0.26972E-02  5760   0.551E-01-0.142E-04
CGA:  53    -0.223289801285E+03   -0.60877E-02   -0.60893E-02  5760   0.205E-01 0.377E-03
CGA:  54    -0.223295443965E+03   -0.56427E-02   -0.55384E-02  5760   0.247E-01 0.506E-03
CGA:  55    -0.223297334695E+03   -0.18907E-02   -0.18916E-02  5760   0.430E-01-0.530E-04
CGA:  56    -0.223305984940E+03   -0.86502E-02   -0.86894E-02  5760   0.232E-01-0.434E-03
CGA:  57    -0.223312414090E+03   -0.64291E-02   -0.64585E-02  5760   0.343E-01-0.196E-03
CGA:  58    -0.223314048116E+03   -0.16340E-02   -0.16404E-02  5760   0.269E-01-0.149E-03
CGA:  59    -0.223319489034E+03   -0.54409E-02   -0.54497E-02  5760   0.938E-02-0.110E-03
CGA:  60    -0.223322306299E+03   -0.28173E-02   -0.28043E-02  5760   0.741E-02 0.778E-04
CGA:  61    -0.223324732990E+03   -0.24267E-02   -0.24168E-02  5760   0.100E-01 0.561E-04
CGA:  62    -0.223325562137E+03   -0.82915E-03   -0.83538E-03  5760   0.196E-01 0.543E-05
CGA:  63    -0.223328374522E+03   -0.28124E-02   -0.28124E-02  5760   0.784E-02-0.105E-03
CGA:  64    -0.223331865100E+03   -0.34906E-02   -0.35347E-02  5760   0.116E-01-0.332E-03
CGA:  65    -0.223336007322E+03   -0.41422E-02   -0.40238E-02  5760   0.236E-01 0.516E-03
CGA:  66    -0.223337111893E+03   -0.11046E-02   -0.11562E-02  5760   0.146E-01-0.611E-03
CGA:  67    -0.223339984443E+03   -0.28725E-02   -0.28686E-02  5760   0.957E-02 0.318E-04
CGA:  68    -0.223341209982E+03   -0.12255E-02   -0.12283E-02  5760   0.229E-01-0.311E-05
CGA:  69    -0.223342924237E+03   -0.17143E-02   -0.17093E-02  5760   0.466E-02-0.579E-05
CGA:  70    -0.223343994703E+03   -0.10705E-02   -0.10689E-02  5760   0.115E-01 0.117E-04
CGA:  71    -0.223344547709E+03   -0.55301E-03   -0.54570E-03  5760   0.364E-02 0.950E-04
CGA:  72    -0.223345414809E+03   -0.86710E-03   -0.86680E-03  5760   0.316E-02 0.188E-05
CGA:  73    -0.223345643598E+03   -0.22879E-03   -0.22836E-03  5760   0.429E-02 0.138E-04
CGA:  74    -0.223346255331E+03   -0.61173E-03   -0.61223E-03  5760   0.131E-02 0.270E-04
SDA:  75    -0.223346509583E+03   -0.25425E-03   -0.25423E-03  5760   0.438E-02 0.178E-05
CGA:  76    -0.223346635643E+03   -0.12606E-03   -0.12706E-03  5760   0.706E-03-0.312E-04
CGA:  77    -0.223346927896E+03   -0.29225E-03   -0.28981E-03  5760   0.756E-03 0.934E-05
CGA:  78    -0.223347097346E+03   -0.16945E-03   -0.16947E-03  5760   0.234E-02-0.160E-06
CGA:  79    -0.223347212989E+03   -0.11564E-03   -0.11574E-03  5760   0.744E-03 0.377E-05
CGA:  80    -0.223347462986E+03   -0.25000E-03   -0.24799E-03  5760   0.620E-03 0.118E-04
CGA:  81    -0.223347663514E+03   -0.20053E-03   -0.20009E-03  5760   0.979E-03 0.291E-05
CGA:  82    -0.223347727351E+03   -0.63837E-04   -0.63828E-04  5760   0.121E-02 0.138E-05
CGA:  83    -0.223347909906E+03   -0.18256E-03   -0.18265E-03  5760   0.490E-03 0.404E-05
CGA:  84    -0.223348076174E+03   -0.16627E-03   -0.16610E-03  5760   0.461E-03 0.104E-05
CGA:  85    -0.223348129633E+03   -0.53459E-04   -0.53301E-04  5760   0.120E-02-0.233E-05
CGA:  86    -0.223348234520E+03   -0.10489E-03   -0.10430E-03  5760   0.271E-03-0.447E-05
CGA:  87    -0.223348327816E+03   -0.93296E-04   -0.94243E-04  5760   0.420E-03-0.535E-05
CGA:  88    -0.223348355321E+03   -0.27505E-04   -0.27374E-04  5760   0.581E-03-0.771E-06
CGA:  89    -0.223348448715E+03   -0.93394E-04   -0.93396E-04  5760   0.295E-03-0.431E-06
CGA:  90    -0.223348536631E+03   -0.87916E-04   -0.88300E-04  5760   0.667E-03-0.311E-05
CGA:  91    -0.223348565296E+03   -0.28665E-04   -0.28449E-04  5760   0.356E-03 0.165E-05
CGA:  92    -0.223348672150E+03   -0.10685E-03   -0.10623E-03  5760   0.338E-03 0.504E-05
CGA:  93    -0.223348712537E+03   -0.40388E-04   -0.40513E-04  5760   0.837E-03 0.177E-05
CGA:  94    -0.223348768447E+03   -0.55910E-04   -0.55748E-04  5760   0.175E-03 0.530E-05
CGA:  95    -0.223348828427E+03   -0.59980E-04   -0.59748E-04  5760   0.611E-03 0.140E-05
CGA:  96    -0.223348851453E+03   -0.23026E-04   -0.23105E-04  5760   0.147E-03 0.196E-05
CGA:  97    -0.223348884448E+03   -0.32996E-04   -0.32966E-04  5760   0.118E-03 0.578E-06
CGA:  98    -0.223348895246E+03   -0.10797E-04   -0.10735E-04  5760   0.267E-03-0.794E-06
CGA:  99    -0.223348928535E+03   -0.33289E-04   -0.33121E-04  5760   0.965E-04-0.343E-05
CGA: 100    -0.223348949026E+03   -0.20491E-04   -0.20777E-04  5760   0.333E-03-0.569E-05
CGA: 101    -0.223348963489E+03   -0.14463E-04   -0.14087E-04  5760   0.109E-03-0.485E-05
CGA: 102    -0.223348988270E+03   -0.24781E-04   -0.24730E-04  5760   0.299E-03 0.709E-06
CGA: 103    -0.223348999715E+03   -0.11445E-04   -0.11446E-04  5760   0.943E-04 0.264E-05
CGA: 104    -0.223349024616E+03   -0.24901E-04   -0.24886E-04  5760   0.227E-03 0.189E-06
CGA: 105    -0.223349033103E+03   -0.84869E-05   -0.85286E-05  5760   0.868E-04-0.138E-05
SDA: 106    -0.223349055337E+03   -0.22234E-04   -0.22249E-04  5760   0.154E-03-0.170E-06
CGA: 107    -0.223349061121E+03   -0.57843E-05   -0.58355E-05  5760   0.706E-04 0.549E-06
CGA: 108    -0.223349070593E+03   -0.94720E-05   -0.95049E-05  5760   0.325E-04 0.134E-05
CGA: 109    -0.223349082816E+03   -0.12223E-04   -0.12108E-04  5760   0.352E-04 0.553E-06
CGA: 110    -0.223349087925E+03   -0.51088E-05   -0.50944E-05  5760   0.114E-03-0.563E-06
CGA: 111    -0.223349096383E+03   -0.84577E-05   -0.83592E-05  5760   0.295E-04-0.115E-05
CGA: 112    -0.223349103860E+03   -0.74770E-05   -0.72256E-05  5760   0.584E-04 0.295E-05
CGA: 113    -0.223349106555E+03   -0.26953E-05   -0.28158E-05  5760   0.290E-04 0.101E-05
CGA: 114    -0.223349115055E+03   -0.85004E-05   -0.84277E-05  5760   0.226E-04 0.576E-06
CGA: 115    -0.223349117316E+03   -0.22604E-05   -0.22292E-05  5760   0.494E-04-0.442E-06
CGA: 116    -0.223349123369E+03   -0.60533E-05   -0.59793E-05  5760   0.232E-04-0.191E-05
CGA: 117    -0.223349130907E+03   -0.75379E-05   -0.74248E-05  5760   0.257E-04 0.658E-06
CGA: 118    -0.223349132438E+03   -0.15312E-05   -0.15269E-05  5760   0.277E-04-0.678E-07
CGA: 119    -0.223349137742E+03   -0.53039E-05   -0.53183E-05  5760   0.177E-04-0.503E-06
CGA: 120    -0.223349142324E+03   -0.45818E-05   -0.47042E-05  5760   0.306E-04-0.116E-05
CGA: 121    -0.223349143562E+03   -0.12378E-05   -0.12120E-05  5760   0.153E-04-0.185E-06
CGA: 122    -0.223349147417E+03   -0.38555E-05   -0.38820E-05  5760   0.119E-04-0.295E-06
CGA: 123    -0.223349148771E+03   -0.13539E-05   -0.13560E-05  5760   0.300E-04 0.370E-07
CGA: 124    -0.223349151000E+03   -0.22289E-05   -0.22458E-05  5760   0.797E-05 0.202E-06
CGA: 125    -0.223349153655E+03   -0.26553E-05   -0.27531E-05  5760   0.127E-04-0.542E-06
CGA: 126    -0.223349154209E+03   -0.55401E-06   -0.55553E-06  5760   0.972E-05 0.324E-08
CGA: 127    -0.223349156216E+03   -0.20072E-05   -0.19740E-05  5760   0.619E-05 0.864E-06
CGA: 128    -0.223349156969E+03   -0.75270E-06   -0.75795E-06  5760   0.176E-04 0.998E-07
CGA: 129    -0.223349158552E+03   -0.15825E-05   -0.15744E-05  5760   0.586E-05-0.104E-06
CGA: 130    -0.223349159280E+03   -0.72797E-06   -0.71792E-06  5760   0.188E-04-0.282E-06
CGA: 131    -0.223349160574E+03   -0.12945E-05   -0.12561E-05  5760   0.543E-05-0.437E-06
CGA: 132    -0.223349160955E+03   -0.38082E-06   -0.38728E-06  5760   0.105E-04 0.802E-07
CGA: 133    -0.223349161988E+03   -0.10333E-05   -0.10483E-05  5760   0.411E-05 0.296E-06
CGA: 134    -0.223349162255E+03   -0.26638E-06   -0.25930E-06  5760   0.654E-05-0.852E-07
   1 F= -.23254314E+03 E0= -.23253775E+03  d E =-.107880E-01  mag=     6.0000
