       N       E                     dE             d eps       ncg     rms          ort
DAV:   1     0.358213105861E+04    0.35821E+04   -0.14094E+05  5760   0.228E+03
DAV:   2     0.403906666818E+03   -0.31782E+04   -0.29240E+04  5760   0.562E+02
DAV:   3    -0.220961086850E+03   -0.62487E+03   -0.56179E+03  5760   0.260E+02
DAV:   4    -0.270255186252E+03   -0.49294E+02   -0.48393E+02  5760   0.754E+01
DAV:   5    -0.271727323340E+03   -0.14721E+01   -0.14698E+01  5760   0.129E+01
SDA:   6     0.107655255089E+03    0.37938E+03   -0.14698E+01  5760   0.532E+04 0.000E+00
CGA:   7     0.449329673460E+01   -0.10316E+03   -0.22740E+03  5760   0.244E+04 0.925E+03
CGA:   8    -0.103826775716E+03   -0.10832E+03   -0.64838E+02  5760   0.295E+04 0.279E+04
CGA:   9    -0.114126488544E+03   -0.10300E+02   -0.83810E+02  5760   0.231E+04-0.643E+03
CGA:  10    -0.166753535524E+03   -0.52627E+02   -0.10734E+03  5760   0.197E+04-0.805E+03
CGA:  11    -0.182035828226E+03   -0.15282E+02   -0.47806E+02  5760   0.682E+03-0.808E+03
CGA:  12    -0.190466123508E+03   -0.84303E+01   -0.28045E+02  5760   0.384E+03-0.106E+03
CGA:  13    -0.199319688403E+03   -0.88536E+01   -0.21162E+02  5760   0.513E+03-0.107E+03
CGA:  14    -0.213729650163E+03   -0.14410E+02   -0.16312E+02  5760   0.335E+02-0.396E+02
CGA:  15    -0.214651869464E+03   -0.92222E+00   -0.14652E+01  5760   0.401E+02-0.718E+01
CGA:  16    -0.216298585326E+03   -0.16467E+01   -0.16137E+01  5760   0.116E+02 0.367E+00
CGA:  17    -0.216613946295E+03   -0.31536E+00   -0.34616E+00  5760   0.568E+01-0.141E+01
CGA:  18    -0.217032978136E+03   -0.41903E+00   -0.42894E+00  5760   0.425E+01-0.702E-02
CGA:  19    -0.217233929372E+03   -0.20095E+00   -0.23233E+00  5760   0.472E+01-0.347E+00
CGA:  20    -0.217482404778E+03   -0.24848E+00   -0.25893E+00  5760   0.150E+01-0.874E-01
CGA:  21    -0.217589536426E+03   -0.10713E+00   -0.11158E+00  5760   0.221E+01-0.945E-02
CGA:  22    -0.217709157734E+03   -0.11962E+00   -0.12007E+00  5760   0.688E+00 0.413E-03
CGA:  23    -0.217766777350E+03   -0.57620E-01   -0.58781E-01  5760   0.132E+01 0.305E-02
CGA:  24    -0.217913048339E+03   -0.14627E+00   -0.14638E+00  5760   0.137E+01 0.773E-02
CGA:  25    -0.218046100841E+03   -0.13305E+00   -0.13584E+00  5760   0.193E+01 0.522E-01
CGA:  26    -0.218246065408E+03   -0.19996E+00   -0.19773E+00  5760   0.142E+01-0.497E-01
CGA:  27    -0.218449919134E+03   -0.20385E+00   -0.20125E+00  5760   0.203E+01 0.540E-01
CGA:  28    -0.218685544115E+03   -0.23562E+00   -0.23637E+00  5760   0.160E+01 0.971E-01
CGA:  29    -0.218928311850E+03   -0.24277E+00   -0.24140E+00  5760   0.976E+00 0.305E-01
CGA:  30    -0.219088741999E+03   -0.16043E+00   -0.15840E+00  5760   0.127E+01 0.328E-01
CGA:  31    -0.219255398586E+03   -0.16666E+00   -0.16646E+00  5760   0.897E+00 0.150E-01
CGA:  32    -0.219403264977E+03   -0.14787E+00   -0.14907E+00  5760   0.647E+00-0.214E-01
CGA:  33    -0.219509684306E+03   -0.10642E+00   -0.10771E+00  5760   0.913E+00-0.242E-01
CGA:  34    -0.219610621351E+03   -0.10094E+00   -0.10106E+00  5760   0.779E+00 0.550E-01
CGA:  35    -0.219711864838E+03   -0.10124E+00   -0.10121E+00  5760   0.700E+00-0.220E+00
CGA:  36    -0.219771962509E+03   -0.60098E-01   -0.59479E-01  5760   0.477E+00-0.684E-01
CGA:  37    -0.219847978514E+03   -0.76016E-01   -0.77918E-01  5760   0.528E+00-0.322E-01
CGA:  38    -0.219898055555E+03   -0.50077E-01   -0.52524E-01  5760   0.393E+00 0.833E-01
SDA:  39    -0.219950906027E+03   -0.52850E-01   -0.53645E-01  5760   0.272E+00 0.543E-01
CGA:  40    -0.220001872066E+03   -0.50966E-01   -0.49437E-01  5760   0.193E+00 0.200E-01
CGA:  41    -0.220085429534E+03   -0.83557E-01   -0.82801E-01  5760   0.139E+00 0.309E-02
CGA:  42    -0.220116130444E+03   -0.30701E-01   -0.30613E-01  5760   0.722E-01 0.918E-03
CGA:  43    -0.220137280612E+03   -0.21150E-01   -0.21120E-01  5760   0.350E-01 0.182E-03
CGA:  44    -0.220149385291E+03   -0.12105E-01   -0.12084E-01  5760   0.241E-01 0.106E-03
CGA:  45    -0.220156451698E+03   -0.70664E-02   -0.70483E-02  5760   0.218E-01 0.132E-03
CGA:  46    -0.220164949210E+03   -0.84975E-02   -0.85152E-02  5760   0.204E-01-0.908E-04
CGA:  47    -0.220171737903E+03   -0.67887E-02   -0.67948E-02  5760   0.232E-01-0.384E-04
CGA:  48    -0.220183481594E+03   -0.11744E-01   -0.11812E-01  5760   0.246E-01-0.242E-03
CGA:  49    -0.220190851497E+03   -0.73699E-02   -0.73805E-02  5760   0.183E-01-0.905E-04
CGA:  50    -0.220198214565E+03   -0.73631E-02   -0.73985E-02  5760   0.190E-01-0.198E-03
CGA:  51    -0.220203544339E+03   -0.53298E-02   -0.53387E-02  5760   0.143E-01-0.109E-03
CGA:  52    -0.220210903842E+03   -0.73595E-02   -0.73650E-02  5760   0.195E-01-0.165E-04
CGA:  53    -0.220217301388E+03   -0.63975E-02   -0.63968E-02  5760   0.158E-01 0.158E-04
CGA:  54    -0.220224383345E+03   -0.70820E-02   -0.70524E-02  5760   0.188E-01 0.139E-03
CGA:  55    -0.220230385863E+03   -0.60025E-02   -0.59974E-02  5760   0.166E-01 0.750E-04
CGA:  56    -0.220237047227E+03   -0.66614E-02   -0.66629E-02  5760   0.139E-01-0.339E-05
CGA:  57    -0.220242269989E+03   -0.52228E-02   -0.52217E-02  5760   0.117E-01 0.304E-05
CGA:  58    -0.220245786360E+03   -0.35164E-02   -0.35173E-02  5760   0.716E-02-0.235E-04
CGA:  59    -0.220247687852E+03   -0.19015E-02   -0.19014E-02  5760   0.413E-02-0.161E-04
CGA:  60    -0.220249139043E+03   -0.14512E-02   -0.14548E-02  5760   0.244E-02-0.427E-04
CGA:  61    -0.220249867454E+03   -0.72841E-03   -0.72866E-03  5760   0.204E-02-0.816E-05
CGA:  62    -0.220250764829E+03   -0.89737E-03   -0.89897E-03  5760   0.210E-02-0.955E-05
CGA:  63    -0.220251404235E+03   -0.63941E-03   -0.63955E-03  5760   0.186E-02-0.617E-05
CGA:  64    -0.220252370430E+03   -0.96619E-03   -0.96312E-03  5760   0.210E-02 0.131E-04
CGA:  65    -0.220253055458E+03   -0.68503E-03   -0.68462E-03  5760   0.179E-02 0.160E-04
CGA:  66    -0.220253859930E+03   -0.80447E-03   -0.80427E-03  5760   0.225E-02 0.858E-06
CGA:  67    -0.220254545600E+03   -0.68567E-03   -0.68567E-03  5760   0.164E-02 0.179E-05
CGA:  68    -0.220255326870E+03   -0.78127E-03   -0.78219E-03  5760   0.192E-02-0.535E-05
CGA:  69    -0.220256011533E+03   -0.68466E-03   -0.68540E-03  5760   0.164E-02-0.149E-04
SDA:  70    -0.220256599668E+03   -0.58814E-03   -0.58861E-03  5760   0.143E-02-0.110E-04
CGA:  71    -0.220256852188E+03   -0.25252E-03   -0.25326E-03  5760   0.843E-03 0.778E-05
CGA:  72    -0.220257246738E+03   -0.39455E-03   -0.39311E-03  5760   0.643E-03 0.963E-05
CGA:  73    -0.220257449169E+03   -0.20243E-03   -0.20243E-03  5760   0.455E-03-0.108E-06
CGA:  74    -0.220257643383E+03   -0.19421E-03   -0.19355E-03  5760   0.388E-03 0.633E-05
CGA:  75    -0.220257768776E+03   -0.12539E-03   -0.12540E-03  5760   0.313E-03 0.219E-05
CGA:  76    -0.220257887809E+03   -0.11903E-03   -0.11929E-03  5760   0.355E-03-0.464E-05
CGA:  77    -0.220258019877E+03   -0.13207E-03   -0.13227E-03  5760   0.264E-03-0.368E-05
CGA:  78    -0.220258148014E+03   -0.12814E-03   -0.12767E-03  5760   0.231E-03 0.292E-05
CGA:  79    -0.220258240645E+03   -0.92631E-04   -0.93009E-04  5760   0.246E-03-0.615E-05
CGA:  80    -0.220258339246E+03   -0.98601E-04   -0.98287E-04  5760   0.224E-03 0.443E-05
CGA:  81    -0.220258412481E+03   -0.73235E-04   -0.73310E-04  5760   0.295E-03 0.356E-05
CGA:  82    -0.220258548385E+03   -0.13590E-03   -0.13592E-03  5760   0.223E-03-0.111E-06
CGA:  83    -0.220258650536E+03   -0.10215E-03   -0.10227E-03  5760   0.259E-03-0.102E-05
CGA:  84    -0.220258747696E+03   -0.97160E-04   -0.97098E-04  5760   0.171E-03 0.296E-05
CGA:  85    -0.220258809206E+03   -0.61510E-04   -0.61511E-04  5760   0.145E-03-0.230E-05
CGA:  86    -0.220258854011E+03   -0.44806E-04   -0.44704E-04  5760   0.110E-03-0.210E-05
CGA:  87    -0.220258882963E+03   -0.28952E-04   -0.28936E-04  5760   0.584E-04-0.231E-06
CGA:  88    -0.220258908282E+03   -0.25319E-04   -0.25256E-04  5760   0.476E-04 0.775E-06
CGA:  89    -0.220258925169E+03   -0.16887E-04   -0.16885E-04  5760   0.490E-04-0.108E-05
CGA:  90    -0.220258941199E+03   -0.16030E-04   -0.16048E-04  5760   0.411E-04 0.105E-05
CGA:  91    -0.220258957970E+03   -0.16770E-04   -0.16675E-04  5760   0.433E-04 0.207E-05
CGA:  92    -0.220258980283E+03   -0.22314E-04   -0.22579E-04  5760   0.457E-04-0.183E-05
CGA:  93    -0.220259000428E+03   -0.20144E-04   -0.20145E-04  5760   0.490E-04-0.100E-07
CGA:  94    -0.220259019903E+03   -0.19476E-04   -0.19467E-04  5760   0.364E-04 0.287E-06
CGA:  95    -0.220259031163E+03   -0.11260E-04   -0.11173E-04  5760   0.403E-04-0.137E-05
CGA:  96    -0.220259046564E+03   -0.15401E-04   -0.15416E-04  5760   0.301E-04-0.413E-06
CGA:  97    -0.220259056736E+03   -0.10172E-04   -0.10204E-04  5760   0.273E-04 0.141E-05
CGA:  98    -0.220259073559E+03   -0.16823E-04   -0.16873E-04  5760   0.344E-04-0.220E-06
CGA:  99    -0.220259084741E+03   -0.11182E-04   -0.11203E-04  5760   0.344E-04 0.452E-06
CGA: 100    -0.220259097056E+03   -0.12315E-04   -0.12335E-04  5760   0.286E-04 0.101E-05
SDA: 101    -0.220259110326E+03   -0.13270E-04   -0.13299E-04  5760   0.218E-04-0.363E-06
CGA: 102    -0.220259116042E+03   -0.57158E-05   -0.56783E-05  5760   0.126E-04-0.324E-06
CGA: 103    -0.220259120848E+03   -0.48060E-05   -0.48174E-05  5760   0.112E-04-0.632E-06
CGA: 104    -0.220259124174E+03   -0.33266E-05   -0.32898E-05  5760   0.100E-04-0.585E-06
CGA: 105    -0.220259127310E+03   -0.31361E-05   -0.31324E-05  5760   0.713E-05-0.883E-07
CGA: 106    -0.220259129803E+03   -0.24931E-05   -0.24921E-05  5760   0.525E-05-0.913E-07
CGA: 107    -0.220259131957E+03   -0.21537E-05   -0.21450E-05  5760   0.493E-05 0.182E-06
CGA: 108    -0.220259133366E+03   -0.14085E-05   -0.14375E-05  5760   0.356E-05 0.334E-06
CGA: 109    -0.220259134844E+03   -0.14789E-05   -0.14747E-05  5760   0.280E-05 0.177E-06
CGA: 110    -0.220259136036E+03   -0.11915E-05   -0.11901E-05  5760   0.255E-05 0.373E-07
CGA: 111    -0.220259137098E+03   -0.10616E-05   -0.10577E-05  5760   0.197E-05 0.953E-07
CGA: 112    -0.220259137734E+03   -0.63625E-06   -0.63077E-06  5760   0.204E-05-0.912E-07
   1 F= -.23147103E+03 E0= -.23147101E+03  d E =-.352686E-04  mag=     6.0000
