       N       E                     dE             d eps       ncg     rms          ort
DAV:   1     0.345482435543E+04    0.34548E+04   -0.13903E+05  5760   0.216E+03
DAV:   2     0.414241561766E+03   -0.30406E+04   -0.28068E+04  5760   0.525E+02
DAV:   3    -0.218439460370E+03   -0.63268E+03   -0.58084E+03  5760   0.252E+02
DAV:   4    -0.269959251595E+03   -0.51520E+02   -0.50212E+02  5760   0.734E+01
DAV:   5    -0.271788649374E+03   -0.18294E+01   -0.18255E+01  5760   0.140E+01
SDA:   6     0.840181635333E+02    0.35581E+03   -0.18255E+01  5760   0.433E+04 0.000E+00
CGA:   7     0.940414206809E+02    0.10023E+02   -0.27329E+03  5760   0.116E+05-0.153E+04
CGA:   8     0.552634546299E+02   -0.38778E+02   -0.23204E+03  5760   0.672E+04 0.350E+04
CGA:   9     0.440075856668E+02   -0.11256E+02   -0.29625E+03  5760   0.412E+04-0.717E+03
CGA:  10     0.814082919405E+02    0.37401E+02   -0.82890E+02  5760   0.170E+04 0.501E+03
CGA:  11     0.663382242457E+02   -0.15070E+02   -0.40643E+02  5760   0.157E+04 0.782E+03
CGA:  12     0.261070518191E+02   -0.40231E+02   -0.94073E+02  5760   0.313E+04 0.736E+03
CGA:  13     0.601793716401E+02    0.34072E+02   -0.23678E+03  5760   0.294E+04 0.249E+03
CGA:  14     0.446179843146E+02   -0.15561E+02   -0.12676E+03  5760   0.130E+04 0.235E+03
CGA:  15    -0.358943457517E+02   -0.80512E+02   -0.80001E+02  5760   0.182E+04-0.108E+03
CGA:  16    -0.272654425696E+02    0.86289E+01   -0.59937E+02  5760   0.116E+04-0.402E+03
CGA:  17    -0.444413437638E+02   -0.17176E+02   -0.45289E+02  5760   0.143E+04-0.116E+03
CGA:  18    -0.625379640395E+02   -0.18097E+02   -0.45992E+02  5760   0.771E+03-0.568E+02
CGA:  19    -0.797441140826E+02   -0.17206E+02   -0.29263E+02  5760   0.676E+03-0.515E+02
CGA:  20    -0.957049165368E+02   -0.15961E+02   -0.27129E+02  5760   0.581E+03-0.578E+02
CGA:  21    -0.119693890570E+03   -0.23989E+02   -0.31509E+02  5760   0.333E+03 0.343E+02
CGA:  22    -0.138146670635E+03   -0.18453E+02   -0.19567E+02  5760   0.208E+03 0.294E+02
CGA:  23    -0.152021238492E+03   -0.13875E+02   -0.15562E+02  5760   0.143E+03 0.195E+02
CGA:  24    -0.167631324236E+03   -0.15610E+02   -0.15649E+02  5760   0.113E+03 0.641E+01
CGA:  25    -0.176441811426E+03   -0.88105E+01   -0.94239E+01  5760   0.505E+02 0.671E+01
CGA:  26    -0.185366984297E+03   -0.89252E+01   -0.85421E+01  5760   0.402E+02 0.635E+01
CGA:  27    -0.191817878744E+03   -0.64509E+01   -0.64114E+01  5760   0.456E+02 0.229E+00
CGA:  28    -0.197100946242E+03   -0.52831E+01   -0.53119E+01  5760   0.537E+02-0.679E+01
CGA:  29    -0.199740018638E+03   -0.26391E+01   -0.14848E+01  5760   0.587E+02 0.257E+02
CGA:  30    -0.202136821364E+03   -0.23968E+01   -0.14175E+01  5760   0.437E+02 0.557E+02
CGA:  31    -0.205276716611E+03   -0.31399E+01   -0.30711E+01  5760   0.538E+02 0.217E+00
CGA:  32    -0.210255463670E+03   -0.49787E+01   -0.49443E+01  5760   0.305E+02-0.118E+01
CGA:  33    -0.213945719415E+03   -0.36903E+01   -0.37252E+01  5760   0.143E+02-0.121E+01
CGA:  34    -0.214970767993E+03   -0.10250E+01   -0.10145E+01  5760   0.193E+02 0.155E+00
CGA:  35    -0.216858577981E+03   -0.18878E+01   -0.18568E+01  5760   0.199E+02-0.185E+01
CGA:  36    -0.217834491317E+03   -0.97591E+00   -0.87471E+00  5760   0.255E+02 0.138E-01
CGA:  37    -0.218669989873E+03   -0.83550E+00   -0.48586E+00  5760   0.154E+02 0.167E+02
CGA:  38    -0.219175155127E+03   -0.50517E+00   -0.56023E+00  5760   0.154E+02-0.135E+01
CGA:  39    -0.220107423191E+03   -0.93227E+00   -0.94272E+00  5760   0.465E+01 0.169E+00
CGA:  40    -0.220662523459E+03   -0.55510E+00   -0.54044E+00  5760   0.879E+01 0.341E+00
CGA:  41    -0.220969729040E+03   -0.30721E+00   -0.33315E+00  5760   0.346E+01-0.561E+00
CGA:  42    -0.221329412303E+03   -0.35968E+00   -0.35567E+00  5760   0.313E+01 0.127E+00
CGA:  43    -0.221464855148E+03   -0.13544E+00   -0.14415E+00  5760   0.154E+01-0.111E+00
CGA:  44    -0.221694864214E+03   -0.23001E+00   -0.21908E+00  5760   0.222E+01 0.149E+00
CGA:  45    -0.221919005920E+03   -0.22414E+00   -0.22338E+00  5760   0.190E+01 0.307E+00
CGA:  46    -0.222117577846E+03   -0.19857E+00   -0.19833E+00  5760   0.140E+01 0.117E+00
CGA:  47    -0.222256279843E+03   -0.13870E+00   -0.13860E+00  5760   0.994E+00 0.253E-01
CGA:  48    -0.222382121861E+03   -0.12584E+00   -0.12110E+00  5760   0.617E+00 0.118E+00
CGA:  49    -0.222507328707E+03   -0.12521E+00   -0.11974E+00  5760   0.859E+00 0.652E-01
CGA:  50    -0.222654470916E+03   -0.14714E+00   -0.14125E+00  5760   0.802E+00 0.851E-01
CGA:  51    -0.222799309557E+03   -0.14484E+00   -0.14493E+00  5760   0.619E+00-0.206E-02
CGA:  52    -0.222931501178E+03   -0.13219E+00   -0.12231E+00  5760   0.453E+00 0.935E-01
CGA:  53    -0.223063041013E+03   -0.13154E+00   -0.12963E+00  5760   0.510E+00 0.937E-02
CGA:  54    -0.223163107996E+03   -0.10007E+00   -0.10187E+00  5760   0.522E+00-0.214E-01
CGA:  55    -0.223224735004E+03   -0.61627E-01   -0.61523E-01  5760   0.367E+00 0.145E-01
CGA:  56    -0.223295636794E+03   -0.70902E-01   -0.68388E-01  5760   0.313E+00 0.457E-01
CGA:  57    -0.223356786787E+03   -0.61150E-01   -0.58128E-01  5760   0.213E+00 0.656E-01
CGA:  58    -0.223403028086E+03   -0.46241E-01   -0.43851E-01  5760   0.272E+00 0.368E-01
CGA:  59    -0.223459522541E+03   -0.56494E-01   -0.54806E-01  5760   0.187E+00 0.363E-02
CGA:  60    -0.223503172632E+03   -0.43650E-01   -0.45350E-01  5760   0.183E+00-0.160E-01
CGA:  61    -0.223535505404E+03   -0.32333E-01   -0.33086E-01  5760   0.280E+00-0.323E-01
CGA:  62    -0.223562741989E+03   -0.27237E-01   -0.26867E-01  5760   0.142E+00-0.747E-02
CGA:  63    -0.223588888267E+03   -0.26146E-01   -0.26893E-01  5760   0.232E+00-0.124E-01
CGA:  64    -0.223616735563E+03   -0.27847E-01   -0.27946E-01  5760   0.224E+00 0.777E-02
CGA:  65    -0.223656222884E+03   -0.39487E-01   -0.39058E-01  5760   0.326E+00 0.196E-01
CGA:  66    -0.223704332825E+03   -0.48110E-01   -0.48137E-01  5760   0.437E+00 0.176E-01
CGA:  67    -0.223744904125E+03   -0.40571E-01   -0.40340E-01  5760   0.531E+00 0.349E-01
SDA:  68    -0.223784066155E+03   -0.39162E-01   -0.37577E-01  5760   0.568E+00 0.380E-01
CGA:  69    -0.223887348541E+03   -0.10328E+00   -0.10086E+00  5760   0.343E+00 0.432E-01
CGA:  70    -0.224011120742E+03   -0.12377E+00   -0.12876E+00  5760   0.377E+00-0.252E-01
CGA:  71    -0.224092272706E+03   -0.81152E-01   -0.79889E-01  5760   0.173E+00 0.118E-01
CGA:  72    -0.224135321015E+03   -0.43048E-01   -0.42275E-01  5760   0.145E+00 0.858E-02
CGA:  73    -0.224180443443E+03   -0.45122E-01   -0.45772E-01  5760   0.996E-01-0.182E-02
CGA:  74    -0.224197090610E+03   -0.16647E-01   -0.16665E-01  5760   0.516E-01 0.844E-03
CGA:  75    -0.224207375464E+03   -0.10285E-01   -0.10845E-01  5760   0.446E-01-0.229E-02
CGA:  76    -0.224216695384E+03   -0.93199E-02   -0.94593E-02  5760   0.250E-01-0.153E-02
CGA:  77    -0.224223358976E+03   -0.66636E-02   -0.66711E-02  5760   0.223E-01-0.571E-04
CGA:  78    -0.224229983214E+03   -0.66242E-02   -0.66111E-02  5760   0.214E-01 0.816E-04
CGA:  79    -0.224235162033E+03   -0.51788E-02   -0.51852E-02  5760   0.142E-01-0.702E-04
CGA:  80    -0.224238204162E+03   -0.30421E-02   -0.30393E-02  5760   0.116E-01 0.102E-03
CGA:  81    -0.224241064725E+03   -0.28606E-02   -0.28640E-02  5760   0.981E-02-0.359E-04
CGA:  82    -0.224243651995E+03   -0.25873E-02   -0.25872E-02  5760   0.566E-02 0.398E-05
CGA:  83    -0.224245420689E+03   -0.17687E-02   -0.17678E-02  5760   0.623E-02 0.970E-05
CGA:  84    -0.224247339425E+03   -0.19187E-02   -0.19220E-02  5760   0.763E-02-0.248E-04
CGA:  85    -0.224249004767E+03   -0.16653E-02   -0.16644E-02  5760   0.600E-02 0.309E-04
CGA:  86    -0.224251270395E+03   -0.22656E-02   -0.22625E-02  5760   0.904E-02 0.171E-04
CGA:  87    -0.224253769741E+03   -0.24993E-02   -0.24988E-02  5760   0.624E-02 0.885E-05
CGA:  88    -0.224255815542E+03   -0.20458E-02   -0.20479E-02  5760   0.791E-02-0.311E-05
CGA:  89    -0.224257907132E+03   -0.20916E-02   -0.20999E-02  5760   0.793E-02 0.791E-04
CGA:  90    -0.224259827808E+03   -0.19207E-02   -0.19270E-02  5760   0.617E-02-0.374E-04
CGA:  91    -0.224261699688E+03   -0.18719E-02   -0.18945E-02  5760   0.587E-02-0.144E-03
CGA:  92    -0.224263391089E+03   -0.16914E-02   -0.16965E-02  5760   0.504E-02-0.421E-04
CGA:  93    -0.224264711224E+03   -0.13201E-02   -0.13194E-02  5760   0.347E-02 0.108E-04
CGA:  94    -0.224265775950E+03   -0.10647E-02   -0.10689E-02  5760   0.381E-02-0.128E-04
CGA:  95    -0.224266569228E+03   -0.79328E-03   -0.79232E-03  5760   0.223E-02-0.109E-04
CGA:  96    -0.224267083238E+03   -0.51401E-03   -0.51405E-03  5760   0.166E-02 0.764E-05
CGA:  97    -0.224267570265E+03   -0.48703E-03   -0.48686E-03  5760   0.113E-02 0.260E-05
CGA:  98    -0.224267846564E+03   -0.27630E-03   -0.27629E-03  5760   0.835E-03-0.300E-07
SDA:  99    -0.224268112935E+03   -0.26637E-03   -0.26638E-03  5760   0.769E-03 0.214E-05
CGA: 100    -0.224268237589E+03   -0.12465E-03   -0.12452E-03  5760   0.447E-03-0.219E-06
CGA: 101    -0.224268364418E+03   -0.12683E-03   -0.12689E-03  5760   0.497E-03-0.586E-06
CGA: 102    -0.224268516396E+03   -0.15198E-03   -0.15213E-03  5760   0.492E-03-0.191E-05
CGA: 103    -0.224268728560E+03   -0.21216E-03   -0.21317E-03  5760   0.633E-03-0.477E-05
CGA: 104    -0.224268940923E+03   -0.21236E-03   -0.21240E-03  5760   0.652E-03-0.392E-06
CGA: 105    -0.224269148505E+03   -0.20758E-03   -0.20752E-03  5760   0.566E-03 0.112E-05
CGA: 106    -0.224269343314E+03   -0.19481E-03   -0.19480E-03  5760   0.473E-03 0.175E-06
CGA: 107    -0.224269530835E+03   -0.18752E-03   -0.18735E-03  5760   0.512E-03 0.128E-05
CGA: 108    -0.224269685438E+03   -0.15460E-03   -0.15457E-03  5760   0.421E-03 0.102E-05
CGA: 109    -0.224269832752E+03   -0.14731E-03   -0.14731E-03  5760   0.374E-03-0.309E-07
CGA: 110    -0.224269933569E+03   -0.10082E-03   -0.10082E-03  5760   0.322E-03 0.234E-05
CGA: 111    -0.224270005461E+03   -0.71892E-04   -0.71339E-04  5760   0.241E-03 0.744E-06
CGA: 112    -0.224270089112E+03   -0.83651E-04   -0.84048E-04  5760   0.230E-03-0.309E-05
CGA: 113    -0.224270158874E+03   -0.69762E-04   -0.69773E-04  5760   0.178E-03-0.228E-06
CGA: 114    -0.224270232608E+03   -0.73734E-04   -0.74150E-04  5760   0.198E-03-0.101E-05
CGA: 115    -0.224270293937E+03   -0.61329E-04   -0.61563E-04  5760   0.196E-03 0.152E-05
CGA: 116    -0.224270348923E+03   -0.54987E-04   -0.54915E-04  5760   0.216E-03 0.706E-06
CGA: 117    -0.224270409634E+03   -0.60711E-04   -0.60649E-04  5760   0.194E-03-0.135E-05
CGA: 118    -0.224270472343E+03   -0.62709E-04   -0.62793E-04  5760   0.180E-03-0.817E-06
CGA: 119    -0.224270537899E+03   -0.65556E-04   -0.65570E-04  5760   0.184E-03 0.242E-06
CGA: 120    -0.224270595005E+03   -0.57106E-04   -0.57113E-04  5760   0.190E-03-0.367E-06
CGA: 121    -0.224270664098E+03   -0.69093E-04   -0.69183E-04  5760   0.149E-03-0.186E-05
CGA: 122    -0.224270725299E+03   -0.61201E-04   -0.61748E-04  5760   0.179E-03 0.322E-05
CGA: 123    -0.224270776385E+03   -0.51086E-04   -0.50260E-04  5760   0.230E-03 0.191E-05
CGA: 124    -0.224270837411E+03   -0.61026E-04   -0.60635E-04  5760   0.164E-03-0.519E-05
CGA: 125    -0.224270905399E+03   -0.67987E-04   -0.67982E-04  5760   0.153E-03 0.734E-06
CGA: 126    -0.224270946262E+03   -0.40863E-04   -0.40777E-04  5760   0.136E-03 0.505E-06
CGA: 127    -0.224270983441E+03   -0.37179E-04   -0.37010E-04  5760   0.135E-03 0.688E-06
CGA: 128    -0.224271010425E+03   -0.26984E-04   -0.26831E-04  5760   0.631E-04 0.832E-06
CGA: 129    -0.224271034261E+03   -0.23836E-04   -0.23787E-04  5760   0.753E-04 0.645E-06
SDA: 130    -0.224271052238E+03   -0.17977E-04   -0.17962E-04  5760   0.428E-04 0.282E-07
CGA: 131    -0.224271060161E+03   -0.79229E-05   -0.78140E-05  5760   0.309E-04 0.137E-06
CGA: 132    -0.224271069818E+03   -0.96572E-05   -0.96776E-05  5760   0.270E-04-0.774E-06
CGA: 133    -0.224271077507E+03   -0.76892E-05   -0.76878E-05  5760   0.284E-04-0.114E-06
CGA: 134    -0.224271086087E+03   -0.85797E-05   -0.85906E-05  5760   0.255E-04-0.637E-06
CGA: 135    -0.224271095468E+03   -0.93816E-05   -0.94311E-05  5760   0.301E-04-0.399E-06
CGA: 136    -0.224271107703E+03   -0.12235E-04   -0.12195E-04  5760   0.280E-04 0.306E-06
CGA: 137    -0.224271118147E+03   -0.10444E-04   -0.10409E-04  5760   0.269E-04 0.621E-06
CGA: 138    -0.224271127222E+03   -0.90751E-05   -0.90860E-05  5760   0.309E-04 0.406E-06
CGA: 139    -0.224271133335E+03   -0.61123E-05   -0.60337E-05  5760   0.157E-04 0.467E-06
CGA: 140    -0.224271139435E+03   -0.61005E-05   -0.60687E-05  5760   0.180E-04 0.355E-06
CGA: 141    -0.224271145954E+03   -0.65184E-05   -0.65453E-05  5760   0.118E-04-0.471E-06
CGA: 142    -0.224271151284E+03   -0.53303E-05   -0.53892E-05  5760   0.162E-04-0.362E-06
CGA: 143    -0.224271156500E+03   -0.52157E-05   -0.52148E-05  5760   0.151E-04 0.116E-06
CGA: 144    -0.224271160833E+03   -0.43333E-05   -0.43309E-05  5760   0.138E-04 0.142E-06
CGA: 145    -0.224271165345E+03   -0.45119E-05   -0.45145E-05  5760   0.136E-04-0.184E-06
CGA: 146    -0.224271168502E+03   -0.31574E-05   -0.31605E-05  5760   0.123E-04 0.261E-06
CGA: 147    -0.224271172749E+03   -0.42469E-05   -0.42469E-05  5760   0.948E-05 0.191E-06
CGA: 148    -0.224271176589E+03   -0.38399E-05   -0.38505E-05  5760   0.125E-04 0.837E-08
CGA: 149    -0.224271180926E+03   -0.43368E-05   -0.43349E-05  5760   0.114E-04 0.568E-07
CGA: 150    -0.224271185058E+03   -0.41328E-05   -0.41193E-05  5760   0.923E-05 0.322E-06
CGA: 151    -0.224271188904E+03   -0.38457E-05   -0.38634E-05  5760   0.112E-04-0.193E-06
CGA: 152    -0.224271191597E+03   -0.26932E-05   -0.26804E-05  5760   0.986E-05-0.718E-07
CGA: 153    -0.224271194047E+03   -0.24498E-05   -0.24456E-05  5760   0.713E-05 0.196E-06
CGA: 154    -0.224271196332E+03   -0.22853E-05   -0.22844E-05  5760   0.600E-05-0.229E-06
CGA: 155    -0.224271198578E+03   -0.22460E-05   -0.22577E-05  5760   0.420E-05-0.163E-06
CGA: 156    -0.224271200160E+03   -0.15820E-05   -0.15700E-05  5760   0.362E-05 0.196E-06
CGA: 157    -0.224271201454E+03   -0.12938E-05   -0.12946E-05  5760   0.326E-05-0.603E-07
CGA: 158    -0.224271202336E+03   -0.88173E-06   -0.88384E-06  5760   0.376E-05 0.563E-07
   1 F= -.23309495E+03 E0= -.23309377E+03  d E =-.237571E-02  mag=     6.0000
