 running on   64 total cores
 distrk:  each k-point on   64 cores,    1 groups
 distr:  one band on    4 cores,   16 groups
 using from now: INCAR     
 vasp.5.4.4.18Apr17-6-g9f103f2a35 (build Nov 22 2021 14:44:17) complex          
  
 POSCAR found type information on POSCAR  Li Co O 
 POSCAR found :  3 types and      42 ions
 scaLAPACK will be used
 LDA part: xc-table for Pade appr. of Perdew
 generate k-points for:    6    6    2
 POSCAR, INCAR and KPOINTS ok, starting setup
 FFT: planning ...
 WAVECAR not read
 entering main loop
       N       E                     dE             d eps       ncg     rms          ort
DAV:   1     0.348017094782E+04    0.34802E+04   -0.13943E+05  5760   0.218E+03
DAV:   2     0.418149865714E+03   -0.30620E+04   -0.28261E+04  5760   0.530E+02
DAV:   3    -0.216846814213E+03   -0.63500E+03   -0.58057E+03  5760   0.253E+02
DAV:   4    -0.269161518492E+03   -0.52315E+02   -0.51055E+02  5760   0.748E+01
DAV:   5    -0.271003911472E+03   -0.18424E+01   -0.18389E+01  5760   0.141E+01
 gam= 0.000 g(H,U,f)=  0.171E+04 0.885E+03 0.579E+03 ort(H,U,f) = 0.000E+00 0.000E+00 0.000E+00
SDA:   6     0.883295849093E+02    0.35933E+03   -0.18389E+01  5760   0.318E+04 0.000E+00
 gam= 0.000 trial= 0.400  step= 0.062 mean= 0.400
 gam= 1.293 g(H,U,f)=  0.955E+03 0.147E+04 0.168E+04 ort(H,U,f) = 0.116E+04-0.162E+03-0.137E+04
CGA:   7    -0.938042217616E+01   -0.97710E+02   -0.98291E+02  5760   0.411E+04-0.374E+03
 gam= 1.293 trial= 0.383  step= 0.069 mean= 0.383
 gam= 0.710 g(H,U,f)=  0.360E+03 0.123E+04 0.133E+04 ort(H,U,f) = 0.118E+04 0.708E+03 0.998E+02
CGA:   8    -0.114969505747E+03   -0.10559E+03   -0.12567E+03  5760   0.292E+04 0.199E+04
 gam= 0.710 trial= 0.367  step= 0.050 mean= 0.367
 gam= 0.198 g(H,U,f)=  0.152E+03 0.332E+03 0.946E+02 ort(H,U,f) = 0.351E+03 0.112E+03-0.147E+03
CGA:   9    -0.169920583336E+03   -0.54951E+02   -0.10931E+03  5760   0.578E+03 0.316E+03
 gam= 0.198 trial= 0.352  step= 0.092 mean= 0.352
 gam= 0.728 g(H,U,f)=  0.112E+03 0.195E+03 0.114E+03 ort(H,U,f) =-0.543E+01-0.131E+03-0.378E+02
CGA:  10    -0.185665492351E+03   -0.15745E+02   -0.29534E+02  5760   0.421E+03-0.175E+03
 gam= 0.728 trial= 0.339  step= 0.069 mean= 0.339
 gam= 0.536 g(H,U,f)=  0.122E+03 0.881E+02 0.157E+02 ort(H,U,f) = 0.318E+02-0.121E+03-0.157E+02
CGA:  11    -0.189938836699E+03   -0.42733E+01   -0.10123E+02  5760   0.226E+03-0.105E+03
 gam= 0.536 trial= 0.325  step= 0.160 mean= 0.325
 gam= 1.421 g(H,U,f)=  0.679E+02 0.185E+03 0.683E+02 ort(H,U,f) = 0.571E+02-0.366E+02-0.950E+01
CGA:  12    -0.202923445695E+03   -0.12985E+02   -0.13528E+02  5760   0.321E+03 0.110E+02
 gam= 1.421 trial= 0.317  step= 0.082 mean= 0.317
 gam= 0.348 g(H,U,f)=  0.251E+02 0.679E+02 0.185E+02 ort(H,U,f) = 0.157E+02-0.598E+02-0.168E+02
CGA:  13    -0.212929203668E+03   -0.10006E+02   -0.13711E+02  5760   0.112E+03-0.608E+02
 gam= 0.348 trial= 0.305  step= 0.081 mean= 0.305
 gam= 0.142 g(H,U,f)=  0.950E+01 0.602E+01 0.328E+00 ort(H,U,f) = 0.667E+00 0.246E+01-0.447E+00
CGA:  14    -0.216819001251E+03   -0.38898E+01   -0.36442E+01  5760   0.158E+02 0.268E+01
 gam= 0.142 trial= 0.294  step= 0.173 mean= 0.294
 gam= 0.828 g(H,U,f)=  0.525E+01 0.652E+01 0.135E+01 ort(H,U,f) = 0.296E+01-0.270E+01-0.454E+00
CGA:  15    -0.218151950165E+03   -0.13329E+01   -0.14052E+01  5760   0.131E+02-0.186E+00
 gam= 0.828 trial= 0.288  step= 0.139 mean= 0.288
 gam= 0.870 g(H,U,f)=  0.330E+01 0.685E+01 0.126E+01 ort(H,U,f) = 0.205E+01-0.233E+01-0.774E+00
CGA:  16    -0.218942699961E+03   -0.79075E+00   -0.89893E+00  5760   0.114E+02-0.106E+01
 gam= 0.870 trial= 0.280  step= 0.141 mean= 0.280
 gam= 0.410 g(H,U,f)=  0.182E+01 0.279E+01 0.702E-01 ort(H,U,f) =-0.570E+00 0.255E+00 0.429E-01
CGA:  17    -0.219644167167E+03   -0.70147E+00   -0.74248E+00  5760   0.468E+01-0.272E+00
 gam= 0.410 trial= 0.273  step= 0.159 mean= 0.273
 gam= 0.838 g(H,U,f)=  0.890E+00 0.244E+01 0.592E+00 ort(H,U,f) =-0.743E-01 0.341E+00-0.271E+00
CGA:  18    -0.220005917377E+03   -0.36175E+00   -0.36280E+00  5760   0.392E+01-0.379E-02
 gam= 0.838 trial= 0.268  step= 0.095 mean= 0.268
 gam= 0.270 g(H,U,f)=  0.582E+00 0.455E+00 0.193E-01 ort(H,U,f) =-0.311E+00 0.307E+00-0.263E-01
CGA:  19    -0.220190399070E+03   -0.18448E+00   -0.18574E+00  5760   0.106E+01-0.300E-01
 gam= 0.270 trial= 0.259  step= 0.296 mean= 0.259
 gam= 1.564 g(H,U,f)=  0.441E+00 0.105E+01 0.157E+00 ort(H,U,f) =-0.140E-01 0.459E-01-0.230E-01
CGA:  20    -0.220345662212E+03   -0.15526E+00   -0.15500E+00  5760   0.165E+01 0.882E-02
 gam= 1.564 trial= 0.261  step= 0.142 mean= 0.261
 gam= 0.684 g(H,U,f)=  0.409E+00 0.664E+00 0.583E-01 ort(H,U,f) =-0.247E+00 0.285E+00-0.698E-01
CGA:  21    -0.220459312729E+03   -0.11365E+00   -0.11792E+00  5760   0.113E+01-0.320E-01
 gam= 0.684 trial= 0.255  step= 0.250 mean= 0.255
 gam= 0.852 g(H,U,f)=  0.402E+00 0.516E+00 0.464E-01 ort(H,U,f) =-0.314E+00 0.318E+00 0.641E-03
CGA:  22    -0.220598009490E+03   -0.13870E+00   -0.13872E+00  5760   0.964E+00 0.498E-02
 gam= 0.852 trial= 0.255  step= 0.174 mean= 0.255
 gam= 1.651 g(H,U,f)=  0.360E+00 0.106E+01 0.176E+00 ort(H,U,f) =-0.121E+00 0.162E+00-0.427E-01
CGA:  23    -0.220681838647E+03   -0.83829E-01   -0.84012E-01  5760   0.159E+01-0.219E-02
 gam= 1.651 trial= 0.251  step= 0.150 mean= 0.251
 gam= 0.630 g(H,U,f)=  0.380E+00 0.556E+00 0.669E-01 ort(H,U,f) =-0.408E+00 0.448E+00-0.273E-01
CGA:  24    -0.220805114303E+03   -0.12328E+00   -0.11888E+00  5760   0.100E+01 0.128E-01
 gam= 0.630 trial= 0.246  step= 0.265 mean= 0.246
 gam= 1.571 g(H,U,f)=  0.515E+00 0.918E+00 0.142E+00 ort(H,U,f) =-0.161E+00 0.156E+00 0.522E-01
CGA:  25    -0.220939805864E+03   -0.13469E+00   -0.13389E+00  5760   0.158E+01 0.472E-01
 gam= 1.571 trial= 0.247  step= 0.272 mean= 0.247
 gam= 0.877 g(H,U,f)=  0.584E+00 0.690E+00 0.107E+00 ort(H,U,f) =-0.336E+00 0.402E+00-0.881E-01
CGA:  26    -0.221163995695E+03   -0.22419E+00   -0.22464E+00  5760   0.138E+01-0.216E-01
 gam= 0.877 trial= 0.248  step= 0.212 mean= 0.248
 gam= 0.840 g(H,U,f)=  0.481E+00 0.493E+00 0.185E+00 ort(H,U,f) =-0.245E+00 0.239E+00-0.149E-01
CGA:  27    -0.221309091094E+03   -0.14510E+00   -0.14407E+00  5760   0.116E+01-0.203E-01
 gam= 0.840 trial= 0.246  step= 0.230 mean= 0.246
 gam= 1.076 g(H,U,f)=  0.513E+00 0.691E+00 0.443E-01 ort(H,U,f) =-0.139E+00 0.187E+00 0.106E-01
CGA:  28    -0.221439677527E+03   -0.13059E+00   -0.13162E+00  5760   0.125E+01 0.591E-01
 gam= 1.076 trial= 0.245  step= 0.324 mean= 0.245
 gam= 1.690 g(H,U,f)=  0.649E+00 0.115E+01 0.308E+00 ort(H,U,f) =-0.245E+00 0.379E+00-0.242E+00
CGA:  29    -0.221647196341E+03   -0.20752E+00   -0.21248E+00  5760   0.211E+01-0.108E+00
 gam= 1.690 trial= 0.249  step= 0.202 mean= 0.249
 gam= 0.797 g(H,U,f)=  0.780E+00 0.763E+00 0.138E+00 ort(H,U,f) =-0.676E+00 0.859E+00-0.133E+00
CGA:  30    -0.221837941464E+03   -0.19075E+00   -0.19425E+00  5760   0.168E+01 0.501E-01
 gam= 0.797 trial= 0.247  step= 0.159 mean= 0.247
 gam= 0.890 g(H,U,f)=  0.628E+00 0.539E+00 0.329E+00 ort(H,U,f) =-0.374E+00 0.404E+00-0.228E-01
CGA:  31    -0.221973828443E+03   -0.13589E+00   -0.13671E+00  5760   0.150E+01 0.671E-02
 gam= 0.890 trial= 0.242  step= 0.214 mean= 0.242
 gam= 0.693 g(H,U,f)=  0.597E+00 0.437E+00 0.188E-02 ort(H,U,f) =-0.311E+00 0.269E+00 0.242E-01
CGA:  32    -0.222135251333E+03   -0.16142E+00   -0.16070E+00  5760   0.104E+01-0.183E-01
 gam= 0.693 trial= 0.241  step= 0.298 mean= 0.241
 gam= 1.581 g(H,U,f)=  0.611E+00 0.563E+00 0.464E+00 ort(H,U,f) = 0.296E-02 0.353E+00-0.311E+00
CGA:  33    -0.222289727325E+03   -0.15448E+00   -0.15269E+00  5760   0.164E+01 0.451E-01
 gam= 1.581 trial= 0.244  step= 0.151 mean= 0.244
 gam= 0.642 g(H,U,f)=  0.505E+00 0.441E+00 0.105E+00 ort(H,U,f) =-0.852E-01 0.158E+00-0.226E-01
CGA:  34    -0.222427250039E+03   -0.13752E+00   -0.12861E+00  5760   0.105E+01 0.506E-01
 gam= 0.642 trial= 0.239  step= 0.236 mean= 0.239
 gam= 1.123 g(H,U,f)=  0.357E+00 0.343E+00 0.481E+00 ort(H,U,f) =-0.104E+00-0.183E-01-0.387E+00
CGA:  35    -0.222555314516E+03   -0.12806E+00   -0.12792E+00  5760   0.118E+01-0.509E+00
 gam= 1.123 trial= 0.239  step= 0.149 mean= 0.239
 gam= 0.600 g(H,U,f)=  0.349E+00 0.303E+00 0.572E-01 ort(H,U,f) =-0.237E+00 0.502E-01 0.547E-01
CGA:  36    -0.222621343888E+03   -0.66029E-01   -0.45478E-01  5760   0.709E+00-0.132E+00
 gam= 0.600 trial= 0.235  step= 0.223 mean= 0.235
 gam= 0.000 g(H,U,f)=  0.303E+00 0.279E+00 0.541E-01 ort(H,U,f) =-0.601E-01-0.759E-02-0.667E-01
SDA:  37    -0.222693844245E+03   -0.72500E-01   -0.70315E-01  5760   0.636E+00-0.134E+00
 gam= 0.000 trial= 0.234  step= 0.369 mean= 0.234
 gam= 0.437 g(H,U,f)=  0.983E-01 0.171E+00 0.867E-02 ort(H,U,f) = 0.716E-01 0.393E-01 0.363E-03
CGA:  38    -0.222821244281E+03   -0.12740E+00   -0.11740E+00  5760   0.278E+00 0.111E+00
 gam= 0.437 trial= 0.241  step= 0.635 mean= 0.241
 gam= 0.794 g(H,U,f)=  0.759E-01 0.144E+00 0.845E-03 ort(H,U,f) =-0.463E-01 0.759E-01 0.243E-02
CGA:  39    -0.222932563886E+03   -0.11132E+00   -0.10375E+00  5760   0.221E+00 0.320E-01
 gam= 0.794 trial= 0.260  step= 0.564 mean= 0.260
 gam= 0.571 g(H,U,f)=  0.659E-01 0.597E-01 0.620E-03 ort(H,U,f) =-0.572E-01 0.690E-01 0.967E-03
CGA:  40    -0.223005208773E+03   -0.72645E-01   -0.69401E-01  5760   0.126E+00 0.128E-01
 gam= 0.571 trial= 0.276  step= 0.658 mean= 0.276
 gam= 2.424 g(H,U,f)=  0.837E-01 0.222E+00 0.392E-03 ort(H,U,f) =-0.802E-02-0.103E-01-0.345E-03
CGA:  41    -0.223025422366E+03   -0.20214E-01   -0.43879E-01  5760   0.306E+00-0.187E-01
 gam= 2.424 trial= 0.295  step= 0.208 mean= 0.295
 gam= 0.509 g(H,U,f)=  0.631E-01 0.912E-01 0.114E-02 ort(H,U,f) =-0.319E-01-0.854E-03 0.730E-03
CGA:  42    -0.223055162415E+03   -0.29740E-01   -0.27053E-01  5760   0.155E+00-0.321E-01
 gam= 0.509 trial= 0.290  step= 0.174 mean= 0.290
 gam= 0.835 g(H,U,f)=  0.529E-01 0.766E-01 0.358E-03 ort(H,U,f) = 0.837E-02 0.887E-02 0.807E-03
CGA:  43    -0.223068240583E+03   -0.13078E-01   -0.12125E-01  5760   0.130E+00 0.180E-01
 gam= 0.835 trial= 0.285  step= 0.205 mean= 0.285
 gam= 0.515 g(H,U,f)=  0.298E-01 0.370E-01 0.213E-04 ort(H,U,f) = 0.104E-02-0.226E-02 0.943E-04
CGA:  44    -0.223083156495E+03   -0.14916E-01   -0.14873E-01  5760   0.669E-01-0.113E-02
 gam= 0.515 trial= 0.281  step= 0.177 mean= 0.281
 gam= 0.948 g(H,U,f)=  0.264E-01 0.369E-01 0.166E-03 ort(H,U,f) = 0.624E-02 0.122E-02-0.409E-03
CGA:  45    -0.223089875557E+03   -0.67191E-02   -0.58588E-02  5760   0.634E-01 0.705E-02
 gam= 0.948 trial= 0.275  step= 0.308 mean= 0.275
 gam= 1.351 g(H,U,f)=  0.280E-01 0.575E-01 0.170E-03 ort(H,U,f) =-0.676E-02 0.113E-01-0.233E-03
CGA:  46    -0.223100719000E+03   -0.10843E-01   -0.10795E-01  5760   0.857E-01 0.432E-02
 gam= 1.351 trial= 0.277  step= 0.191 mean= 0.277
 gam= 0.613 g(H,U,f)=  0.226E-01 0.299E-01 0.361E-04 ort(H,U,f) =-0.239E-01 0.250E-01 0.103E-03
CGA:  47    -0.223110545987E+03   -0.98270E-02   -0.87217E-02  5760   0.525E-01 0.119E-02
 gam= 0.613 trial= 0.273  step= 0.295 mean= 0.273
 gam= 0.976 g(H,U,f)=  0.234E-01 0.278E-01 0.387E-04 ort(H,U,f) =-0.142E-01 0.168E-01 0.919E-04
CGA:  48    -0.223118404875E+03   -0.78589E-02   -0.78410E-02  5760   0.512E-01 0.268E-02
 gam= 0.976 trial= 0.274  step= 0.279 mean= 0.274
 gam= 1.039 g(H,U,f)=  0.292E-01 0.238E-01 0.186E-03 ort(H,U,f) =-0.151E-01 0.773E-02-0.132E-03
CGA:  49    -0.223125774126E+03   -0.73693E-02   -0.74974E-02  5760   0.532E-01-0.745E-02
 gam= 1.039 trial= 0.274  step= 0.287 mean= 0.274
 gam= 1.015 g(H,U,f)=  0.284E-01 0.256E-01 0.375E-04 ort(H,U,f) =-0.467E-02 0.132E-01-0.488E-05
CGA:  50    -0.223132353264E+03   -0.65791E-02   -0.65249E-02  5760   0.540E-01 0.856E-02
 gam= 1.015 trial= 0.275  step= 0.175 mean= 0.275
 gam= 0.543 g(H,U,f)=  0.179E-01 0.113E-01 0.117E-03 ort(H,U,f) =-0.272E-02 0.645E-02-0.392E-04
CGA:  51    -0.223138635708E+03   -0.62824E-02   -0.54922E-02  5760   0.293E-01 0.369E-02
 gam= 0.543 trial= 0.270  step= 0.316 mean= 0.270
 gam= 0.800 g(H,U,f)=  0.127E-01 0.106E-01 0.867E-04 ort(H,U,f) =-0.225E-02-0.134E-02 0.783E-04
CGA:  52    -0.223143498028E+03   -0.48623E-02   -0.49431E-02  5760   0.234E-01-0.351E-02
 gam= 0.800 trial= 0.272  step= 0.248 mean= 0.272
 gam= 1.198 g(H,U,f)=  0.122E-01 0.158E-01 0.303E-04 ort(H,U,f) = 0.909E-03 0.106E-02 0.109E-04
CGA:  53    -0.223146234558E+03   -0.27365E-02   -0.25525E-02  5760   0.281E-01 0.198E-02
 gam= 1.198 trial= 0.271  step= 0.208 mean= 0.271
 gam= 0.668 g(H,U,f)=  0.828E-02 0.104E-01 0.752E-04 ort(H,U,f) =-0.177E-02 0.535E-02 0.948E-05
CGA:  54    -0.223149266442E+03   -0.30319E-02   -0.31638E-02  5760   0.188E-01 0.360E-02
 gam= 0.668 trial= 0.268  step= 0.151 mean= 0.268
 gam= 0.774 g(H,U,f)=  0.634E-02 0.813E-02 0.368E-04 ort(H,U,f) =-0.125E-02 0.283E-02 0.890E-04
CGA:  55    -0.223151061242E+03   -0.17948E-02   -0.15998E-02  5760   0.145E-01 0.167E-02
 gam= 0.774 trial= 0.262  step= 0.257 mean= 0.262
 gam= 0.981 g(H,U,f)=  0.635E-02 0.785E-02 0.216E-04 ort(H,U,f) =-0.306E-02 0.202E-02 0.372E-04
CGA:  56    -0.223153090605E+03   -0.20294E-02   -0.20274E-02  5760   0.142E-01-0.998E-03
 gam= 0.981 trial= 0.262  step= 0.147 mean= 0.262
 gam= 0.745 g(H,U,f)=  0.455E-02 0.603E-02 0.138E-04 ort(H,U,f) =-0.195E-02 0.421E-02-0.983E-05
CGA:  57    -0.223154403640E+03   -0.13130E-02   -0.97606E-03  5760   0.106E-01 0.225E-02
 gam= 0.745 trial= 0.256  step= 0.260 mean= 0.256
 gam= 1.232 g(H,U,f)=  0.488E-02 0.812E-02 0.573E-04 ort(H,U,f) =-0.240E-02 0.514E-02-0.207E-04
CGA:  58    -0.223155999898E+03   -0.15963E-02   -0.15936E-02  5760   0.131E-01 0.272E-02
 gam= 1.232 trial= 0.256  step= 0.237 mean= 0.256
 gam= 1.044 g(H,U,f)=  0.596E-02 0.765E-02 0.222E-04 ort(H,U,f) =-0.433E-02 0.346E-02 0.101E-04
CGA:  59    -0.223158050734E+03   -0.20508E-02   -0.19464E-02  5760   0.136E-01-0.855E-03
 gam= 1.044 trial= 0.255  step= 0.321 mean= 0.255
 gam= 1.484 g(H,U,f)=  0.695E-02 0.865E-02 0.462E-02 ort(H,U,f) =-0.469E-02 0.597E-02-0.400E-03
CGA:  60    -0.223160135346E+03   -0.20846E-02   -0.20430E-02  5760   0.202E-01 0.878E-03
 gam= 1.484 trial= 0.258  step= 0.146 mean= 0.258
 gam= 0.662 g(H,U,f)=  0.749E-02 0.531E-02 0.580E-03 ort(H,U,f) =-0.679E-02 0.855E-02-0.144E-02
CGA:  61    -0.223161770055E+03   -0.16347E-02   -0.15761E-02  5760   0.134E-01 0.324E-03
 gam= 0.662 trial= 0.253  step= 0.254 mean= 0.253
 gam= 1.325 g(H,U,f)=  0.752E-02 0.689E-02 0.333E-02 ort(H,U,f) =-0.243E-02 0.361E-02-0.936E-03
CGA:  62    -0.223163496526E+03   -0.17265E-02   -0.17264E-02  5760   0.177E-01 0.252E-03
 gam= 1.325 trial= 0.253  step= 0.172 mean= 0.253
 gam= 0.937 g(H,U,f)=  0.792E-02 0.824E-02 0.457E-03 ort(H,U,f) =-0.283E-02 0.365E-02-0.773E-03
CGA:  63    -0.223165072785E+03   -0.15763E-02   -0.15544E-02  5760   0.166E-01 0.513E-04
 gam= 0.937 trial= 0.249  step= 0.278 mean= 0.249
 gam= 1.576 g(H,U,f)=  0.942E-02 0.116E-01 0.519E-02 ort(H,U,f) =-0.351E-02 0.493E-02-0.842E-03
CGA:  64    -0.223167396925E+03   -0.23241E-02   -0.23204E-02  5760   0.262E-01 0.585E-03
 gam= 1.576 trial= 0.250  step= 0.166 mean= 0.250
 gam= 0.667 g(H,U,f)=  0.948E-02 0.769E-02 0.303E-03 ort(H,U,f) =-0.771E-02 0.865E-02-0.926E-03
CGA:  65    -0.223169735376E+03   -0.23385E-02   -0.22521E-02  5760   0.175E-01 0.110E-04
 gam= 0.667 trial= 0.246  step= 0.260 mean= 0.246
 gam= 1.479 g(H,U,f)=  0.926E-02 0.922E-02 0.737E-02 ort(H,U,f) =-0.307E-02 0.554E-02-0.163E-02
CGA:  66    -0.223172007297E+03   -0.22719E-02   -0.22706E-02  5760   0.258E-01 0.844E-03
 gam= 1.479 trial= 0.247  step= 0.186 mean= 0.247
 gam= 0.569 g(H,U,f)=  0.856E-02 0.610E-02 0.501E-04 ort(H,U,f) =-0.768E-02 0.729E-02-0.376E-03
CGA:  67    -0.223174606243E+03   -0.25989E-02   -0.25125E-02  5760   0.147E-01-0.759E-03
 gam= 0.569 trial= 0.244  step= 0.285 mean= 0.244
 gam= 0.000 g(H,U,f)=  0.828E-02 0.672E-02 0.469E-02 ort(H,U,f) =-0.199E-02 0.468E-02-0.163E-02
SDA:  68    -0.223176645383E+03   -0.20391E-02   -0.20320E-02  5760   0.197E-01 0.107E-02
 gam= 0.000 trial= 0.246  step= 0.198 mean= 0.246
 gam= 0.782 g(H,U,f)=  0.447E-02 0.613E-02 0.479E-02 ort(H,U,f) = 0.378E-02 0.156E-02-0.507E-02
CGA:  69    -0.223178708508E+03   -0.20631E-02   -0.19494E-02  5760   0.154E-01 0.266E-03
 gam= 0.782 trial= 0.243  step= 0.325 mean= 0.243
 gam= 0.494 g(H,U,f)=  0.302E-02 0.458E-02 0.136E-04 ort(H,U,f) =-0.520E-03-0.138E-03 0.311E-04
CGA:  70    -0.223181201695E+03   -0.24932E-02   -0.25325E-02  5760   0.761E-02-0.627E-03
 gam= 0.494 trial= 0.247  step= 0.624 mean= 0.247
 gam= 0.890 g(H,U,f)=  0.301E-02 0.376E-02 0.467E-05 ort(H,U,f) =-0.936E-03 0.132E-02-0.437E-06
CGA:  71    -0.223183464273E+03   -0.22626E-02   -0.22796E-02  5760   0.677E-02 0.381E-03
 gam= 0.890 trial= 0.266  step= 0.237 mean= 0.266
 gam= 0.728 g(H,U,f)=  0.191E-02 0.301E-02 0.114E-04 ort(H,U,f) =-0.568E-03 0.156E-02-0.613E-05
CGA:  72    -0.223184360282E+03   -0.89601E-03   -0.84226E-03  5760   0.493E-02 0.989E-03
 gam= 0.728 trial= 0.265  step= 0.367 mean= 0.265
 gam= 1.041 g(H,U,f)=  0.180E-02 0.333E-02 0.107E-04 ort(H,U,f) =-0.136E-02-0.276E-03-0.646E-05
CGA:  73    -0.223185097224E+03   -0.73694E-03   -0.10362E-02  5760   0.514E-02-0.164E-02
 gam= 1.041 trial= 0.270  step= 0.671 mean= 0.270
 gam= 0.000 g(H,U,f)=  0.806E-02 0.109E-01 0.758E-04 ort(H,U,f) =-0.231E-02-0.123E-02-0.166E-04
CGA:  74    -0.223184440498E+03    0.65673E-03   -0.11494E-02  5760   0.191E-01-0.355E-02
 gam= 0.000 trial= 0.290  step= 0.092 mean= 0.290
 gam= 0.199 g(H,U,f)=  0.233E-02 0.146E-02 0.922E-06 ort(H,U,f) = 0.342E-02 0.215E-02-0.161E-05
CGA:  75    -0.223186346816E+03   -0.19063E-02   -0.88252E-03  5760   0.379E-02 0.557E-02
 gam= 0.199 trial= 0.280  step= 0.182 mean= 0.280
 gam= 0.649 g(H,U,f)=  0.980E-03 0.148E-02 0.772E-05 ort(H,U,f) = 0.964E-03 0.154E-03-0.219E-05
CGA:  76    -0.223186784053E+03   -0.43724E-03   -0.44544E-03  5760   0.246E-02 0.112E-02
 gam= 0.649 trial= 0.275  step= 0.194 mean= 0.275
 gam= 0.500 g(H,U,f)=  0.428E-03 0.801E-03 0.141E-05 ort(H,U,f) =-0.384E-04 0.865E-04-0.267E-05
CGA:  77    -0.223187216602E+03   -0.43255E-03   -0.30992E-03  5760   0.123E-02 0.454E-04
 gam= 0.500 trial= 0.271  step= 0.539 mean= 0.271
 gam= 1.250 g(H,U,f)=  0.815E-03 0.724E-03 0.237E-06 ort(H,U,f) =-0.485E-03 0.344E-03-0.119E-06
CGA:  78    -0.223187529603E+03   -0.31300E-03   -0.33810E-03  5760   0.154E-02-0.141E-03
 gam= 1.250 trial= 0.285  step= 0.542 mean= 0.285
 gam= 1.434 g(H,U,f)=  0.110E-02 0.110E-02 0.252E-05 ort(H,U,f) =-0.510E-03 0.683E-03-0.662E-06
CGA:  79    -0.223187886927E+03   -0.35732E-03   -0.36931E-03  5760   0.221E-02 0.172E-03
 gam= 1.434 trial= 0.297  step= 0.242 mean= 0.297
 gam= 0.772 g(H,U,f)=  0.834E-03 0.868E-03 0.194E-05 ort(H,U,f) =-0.604E-03 0.747E-03-0.131E-05
CGA:  80    -0.223188205548E+03   -0.31862E-03   -0.29748E-03  5760   0.170E-02 0.142E-03
 gam= 0.772 trial= 0.295  step= 0.378 mean= 0.295
 gam= 1.022 g(H,U,f)=  0.946E-03 0.796E-03 0.115E-05 ort(H,U,f) =-0.759E-03 0.552E-03-0.593E-06
CGA:  81    -0.223188519297E+03   -0.31375E-03   -0.34336E-03  5760   0.174E-02-0.207E-03
 gam= 1.022 trial= 0.299  step= 0.842 mean= 0.299
 gam= 2.315 g(H,U,f)=  0.271E-02 0.132E-02 0.353E-05 ort(H,U,f) =-0.124E-02 0.788E-03-0.990E-06
CGA:  82    -0.223188945394E+03   -0.42610E-03   -0.64419E-03  5760   0.404E-02-0.452E-03
 gam= 2.315 trial= 0.326  step= 0.349 mean= 0.326
 gam= 1.374 g(H,U,f)=  0.354E-02 0.200E-02 0.317E-05 ort(H,U,f) =-0.152E-02 0.144E-02-0.579E-06
CGA:  83    -0.223189458927E+03   -0.51353E-03   -0.52158E-03  5760   0.554E-02-0.778E-04
 gam= 1.374 trial= 0.327  step= 0.470 mean= 0.327
 gam= 1.117 g(H,U,f)=  0.381E-02 0.237E-02 0.501E-05 ort(H,U,f) =-0.151E-02 0.118E-02-0.356E-05
CGA:  84    -0.223190668175E+03   -0.12092E-02   -0.12782E-02  5760   0.619E-02-0.335E-03
 gam= 1.117 trial= 0.334  step= 0.404 mean= 0.334
 gam= 0.755 g(H,U,f)=  0.275E-02 0.191E-02 0.910E-05 ort(H,U,f) =-0.140E-02 0.131E-02-0.471E-05
CGA:  85    -0.223191817179E+03   -0.11490E-02   -0.11747E-02  5760   0.467E-02-0.937E-04
 gam= 0.755 trial= 0.338  step= 0.366 mean= 0.338
 gam= 1.108 g(H,U,f)=  0.244E-02 0.271E-02 0.286E-04 ort(H,U,f) =-0.656E-03 0.809E-03-0.148E-04
CGA:  86    -0.223192638617E+03   -0.82144E-03   -0.84292E-03  5760   0.518E-02 0.138E-03
 gam= 1.108 trial= 0.339  step= 0.271 mean= 0.339
 gam= 0.770 g(H,U,f)=  0.199E-02 0.199E-02 0.101E-04 ort(H,U,f) =-0.952E-03 0.104E-02-0.612E-05
CGA:  87    -0.223193409935E+03   -0.77132E-03   -0.72373E-03  5760   0.399E-02 0.765E-04
 gam= 0.770 trial= 0.336  step= 0.355 mean= 0.336
 gam= 0.715 g(H,U,f)=  0.179E-02 0.106E-02 0.586E-05 ort(H,U,f) =-0.963E-03 0.654E-03-0.540E-05
CGA:  88    -0.223194118511E+03   -0.70858E-03   -0.71863E-03  5760   0.285E-02-0.315E-03
 gam= 0.715 trial= 0.337  step= 0.551 mean= 0.337
 gam= 1.370 g(H,U,f)=  0.193E-02 0.197E-02 0.881E-05 ort(H,U,f) =-0.302E-03 0.227E-03-0.227E-05
CGA:  89    -0.223194819873E+03   -0.70136E-03   -0.72338E-03  5760   0.391E-02-0.775E-04
 gam= 1.370 trial= 0.347  step= 0.331 mean= 0.347
 gam= 0.532 g(H,U,f)=  0.111E-02 0.936E-03 0.327E-04 ort(H,U,f) =-0.615E-03 0.742E-03-0.129E-04
CGA:  90    -0.223195452115E+03   -0.63224E-03   -0.62997E-03  5760   0.208E-02 0.114E-03
 gam= 0.532 trial= 0.347  step= 0.275 mean= 0.347
 gam= 0.870 g(H,U,f)=  0.864E-03 0.907E-03 0.345E-04 ort(H,U,f) =-0.785E-04 0.323E-03-0.257E-04
CGA:  91    -0.223195771016E+03   -0.31890E-03   -0.29419E-03  5760   0.181E-02 0.218E-03
 gam= 0.870 trial= 0.343  step= 0.324 mean= 0.343
 gam= 1.036 g(H,U,f)=  0.947E-03 0.907E-03 0.172E-04 ort(H,U,f) =-0.189E-03 0.160E-03-0.911E-05
CGA:  92    -0.223196098259E+03   -0.32724E-03   -0.32319E-03  5760   0.187E-02-0.375E-04
 gam= 1.036 trial= 0.342  step= 0.440 mean= 0.342
 gam= 0.943 g(H,U,f)=  0.969E-03 0.790E-03 0.734E-05 ort(H,U,f) =-0.508E-03 0.391E-03-0.507E-05
CGA:  93    -0.223196484314E+03   -0.38605E-03   -0.40308E-03  5760   0.177E-02-0.122E-03
 gam= 0.943 trial= 0.347  step= 0.431 mean= 0.347
 gam= 0.813 g(H,U,f)=  0.898E-03 0.536E-03 0.180E-06 ort(H,U,f) =-0.543E-03 0.494E-03-0.447E-06
CGA:  94    -0.223196835853E+03   -0.35154E-03   -0.35550E-03  5760   0.143E-02-0.503E-04
 gam= 0.813 trial= 0.351  step= 0.358 mean= 0.351
 gam= 0.708 g(H,U,f)=  0.718E-03 0.297E-03 0.137E-06 ort(H,U,f) =-0.260E-03 0.258E-03-0.152E-06
CGA:  95    -0.223197085564E+03   -0.24971E-03   -0.24972E-03  5760   0.102E-02-0.233E-05
 gam= 0.708 trial= 0.352  step= 0.449 mean= 0.352
 gam= 0.957 g(H,U,f)=  0.604E-03 0.366E-03 0.109E-05 ort(H,U,f) =-0.705E-04 0.668E-04-0.375E-06
CGA:  96    -0.223197312588E+03   -0.22702E-03   -0.22744E-03  5760   0.972E-03-0.413E-05
 gam= 0.957 trial= 0.356  step= 0.391 mean= 0.356
 gam= 0.611 g(H,U,f)=  0.400E-03 0.192E-03 0.173E-05 ort(H,U,f) =-0.777E-04 0.707E-04-0.100E-05
CGA:  97    -0.223197501372E+03   -0.18878E-03   -0.18912E-03  5760   0.594E-03-0.794E-05
 gam= 0.611 trial= 0.358  step= 0.338 mean= 0.358
 gam= 0.673 g(H,U,f)=  0.262E-03 0.136E-03 0.186E-05 ort(H,U,f) =-0.327E-05 0.299E-05-0.109E-05
CGA:  98    -0.223197601170E+03   -0.99798E-04   -0.99643E-04  5760   0.399E-03-0.137E-05
 gam= 0.673 trial= 0.357  step= 0.354 mean= 0.357
 gam= 0.881 g(H,U,f)=  0.173E-03 0.167E-03 0.118E-04 ort(H,U,f) = 0.115E-04 0.733E-06-0.273E-05
CGA:  99    -0.223197671843E+03   -0.70673E-04   -0.70644E-04  5760   0.352E-03 0.953E-05
 gam= 0.881 trial= 0.357  step= 0.300 mean= 0.357
 gam= 0.759 g(H,U,f)=  0.132E-03 0.121E-03 0.146E-04 ort(H,U,f) =-0.304E-04 0.597E-04-0.109E-04
CGA: 100    -0.223197729036E+03   -0.57192E-04   -0.54065E-04  5760   0.267E-03 0.184E-04
 gam= 0.759 trial= 0.354  step= 0.272 mean= 0.354
 gam= 0.801 g(H,U,f)=  0.114E-03 0.949E-04 0.523E-05 ort(H,U,f) =-0.456E-04 0.504E-04-0.382E-05
CGA: 101    -0.223197769667E+03   -0.40631E-04   -0.38166E-04  5760   0.214E-03 0.988E-06
 gam= 0.801 trial= 0.350  step= 0.466 mean= 0.350
 gam= 1.067 g(H,U,f)=  0.114E-03 0.112E-03 0.231E-05 ort(H,U,f) =-0.693E-04 0.541E-04-0.156E-05
CGA: 102    -0.223197817389E+03   -0.47723E-04   -0.49994E-04  5760   0.228E-03-0.168E-04
 gam= 1.067 trial= 0.356  step= 0.379 mean= 0.356
 gam= 0.883 g(H,U,f)=  0.126E-03 0.750E-04 0.833E-06 ort(H,U,f) =-0.899E-04 0.897E-04-0.443E-06
CGA: 103    -0.223197857172E+03   -0.39783E-04   -0.39833E-04  5760   0.202E-03-0.616E-06
 gam= 0.883 trial= 0.357  step= 0.454 mean= 0.357
 gam= 1.178 g(H,U,f)=  0.141E-03 0.936E-04 0.274E-05 ort(H,U,f) =-0.633E-04 0.677E-04-0.934E-06
CGA: 104    -0.223197902746E+03   -0.45574E-04   -0.45662E-04  5760   0.237E-03 0.342E-05
 gam= 1.178 trial= 0.362  step= 0.446 mean= 0.362
 gam= 0.000 g(H,U,f)=  0.143E-03 0.100E-03 0.857E-05 ort(H,U,f) =-0.686E-04 0.758E-04-0.313E-05
SDA: 105    -0.223197956250E+03   -0.53504E-04   -0.53883E-04  5760   0.252E-03 0.407E-05
 gam= 0.000 trial= 0.366  step= 0.339 mean= 0.366
 gam= 0.967 g(H,U,f)=  0.695E-04 0.113E-03 0.613E-04 ort(H,U,f) = 0.563E-04 0.624E-05-0.231E-04
CGA: 106    -0.223197999512E+03   -0.43262E-04   -0.42695E-04  5760   0.243E-03 0.395E-04
 gam= 0.967 trial= 0.365  step= 0.195 mean= 0.365
 gam= 0.400 g(H,U,f)=  0.337E-04 0.560E-04 0.761E-05 ort(H,U,f) = 0.289E-04 0.125E-04-0.135E-04
CGA: 107    -0.223198036099E+03   -0.36586E-04   -0.27502E-04  5760   0.973E-04 0.279E-04
 gam= 0.400 trial= 0.356  step= 0.793 mean= 0.356
 gam= 1.569 g(H,U,f)=  0.565E-04 0.716E-04 0.245E-04 ort(H,U,f) =-0.292E-04 0.245E-04-0.401E-05
CGA: 108    -0.223198073809E+03   -0.37710E-04   -0.43011E-04  5760   0.153E-03-0.867E-05
 gam= 1.569 trial= 0.378  step= 0.209 mean= 0.378
 gam= 0.708 g(H,U,f)=  0.515E-04 0.469E-04 0.975E-05 ort(H,U,f) =-0.273E-04 0.631E-04-0.115E-04
CGA: 109    -0.223198092533E+03   -0.18724E-04   -0.14558E-04  5760   0.108E-03 0.243E-04
 gam= 0.708 trial= 0.370  step= 0.574 mean= 0.370
 gam= 0.822 g(H,U,f)=  0.490E-04 0.389E-04 0.995E-06 ort(H,U,f) =-0.391E-04 0.324E-04-0.528E-06
CGA: 110    -0.223198127165E+03   -0.34632E-04   -0.35968E-04  5760   0.889E-04-0.722E-05
 gam= 0.822 trial= 0.380  step= 0.820 mean= 0.380
 gam= 1.288 g(H,U,f)=  0.655E-04 0.407E-04 0.821E-05 ort(H,U,f) =-0.345E-04 0.350E-04-0.166E-05
CGA: 111    -0.223198160063E+03   -0.32898E-04   -0.34005E-04  5760   0.114E-03-0.113E-05
 gam= 1.288 trial= 0.402  step= 0.349 mean= 0.402
 gam= 1.457 g(H,U,f)=  0.621E-04 0.649E-04 0.398E-04 ort(H,U,f) =-0.995E-05 0.401E-04-0.139E-04
CGA: 112    -0.223198180322E+03   -0.20259E-04   -0.19728E-04  5760   0.167E-03 0.162E-04
 gam= 1.457 trial= 0.399  step= 0.385 mean= 0.399
 gam= 0.972 g(H,U,f)=  0.631E-04 0.724E-04 0.267E-04 ort(H,U,f) =-0.401E-04 0.518E-04-0.167E-04
CGA: 113    -0.223198217402E+03   -0.37081E-04   -0.36639E-04  5760   0.162E-03-0.494E-05
 gam= 0.972 trial= 0.399  step= 0.368 mean= 0.399
 gam= 1.019 g(H,U,f)=  0.712E-04 0.629E-04 0.312E-04 ort(H,U,f) =-0.429E-04 0.570E-04-0.119E-04
CGA: 114    -0.223198246799E+03   -0.29397E-04   -0.28949E-04  5760   0.165E-03 0.216E-05
 gam= 1.019 trial= 0.397  step= 0.418 mean= 0.397
 gam= 1.186 g(H,U,f)=  0.805E-04 0.678E-04 0.478E-04 ort(H,U,f) =-0.319E-04 0.557E-04-0.246E-04
CGA: 115    -0.223198281305E+03   -0.34506E-04   -0.34991E-04  5760   0.196E-03-0.776E-06
 gam= 1.186 trial= 0.398  step= 0.320 mean= 0.398
 gam= 0.767 g(H,U,f)=  0.763E-04 0.741E-04 0.457E-07 ort(H,U,f) =-0.296E-04 0.460E-04 0.562E-07
CGA: 116    -0.223198313866E+03   -0.32560E-04   -0.31237E-04  5760   0.150E-03 0.164E-04
 gam= 0.767 trial= 0.394  step= 0.440 mean= 0.394
 gam= 0.841 g(H,U,f)=  0.528E-04 0.737E-04 0.931E-07 ort(H,U,f) =-0.195E-04 0.287E-04-0.666E-07
CGA: 117    -0.223198348056E+03   -0.34190E-04   -0.35867E-04  5760   0.127E-03 0.921E-05
 gam= 0.841 trial= 0.396  step= 0.176 mean= 0.396
 gam= 0.518 g(H,U,f)=  0.381E-04 0.275E-04 0.124E-07 ort(H,U,f) = 0.115E-05 0.373E-04-0.672E-08
CGA: 118    -0.223198368718E+03   -0.20662E-04   -0.11839E-04  5760   0.656E-04 0.384E-04
 gam= 0.518 trial= 0.385  step= 0.522 mean= 0.385
 gam= 1.035 g(H,U,f)=  0.279E-04 0.400E-04 0.367E-07 ort(H,U,f) =-0.638E-05 0.993E-05 0.407E-09
CGA: 119    -0.223198391196E+03   -0.22478E-04   -0.22287E-04  5760   0.679E-04 0.356E-05
 gam= 1.035 trial= 0.392  step= 0.190 mean= 0.392
 gam= 0.932 g(H,U,f)=  0.277E-04 0.355E-04 0.311E-07 ort(H,U,f) =-0.388E-06 0.251E-04-0.355E-07
CGA: 120    -0.223198400681E+03   -0.94848E-05   -0.67999E-05  5760   0.632E-04 0.247E-04
 gam= 0.932 trial= 0.382  step= 0.411 mean= 0.382
 gam= 0.855 g(H,U,f)=  0.236E-04 0.305E-04 0.166E-07 ort(H,U,f) =-0.142E-04 0.133E-04 0.203E-08
CGA: 121    -0.223198418371E+03   -0.17690E-04   -0.17707E-04  5760   0.541E-04-0.865E-06
 gam= 0.855 trial= 0.384  step= 0.198 mean= 0.384
 gam= 0.893 g(H,U,f)=  0.221E-04 0.262E-04 0.448E-07 ort(H,U,f) =-0.295E-05 0.186E-04-0.173E-07
CGA: 122    -0.223198424549E+03   -0.61786E-05   -0.52778E-05  5760   0.483E-04 0.157E-04
 gam= 0.893 trial= 0.374  step= 0.374 mean= 0.374
 gam= 0.779 g(H,U,f)=  0.170E-04 0.206E-04 0.149E-08 ort(H,U,f) =-0.114E-04 0.573E-05-0.185E-08
CGA: 123    -0.223198436206E+03   -0.11656E-04   -0.11658E-04  5760   0.376E-04-0.572E-05
 gam= 0.779 trial= 0.374  step= 0.488 mean= 0.374
 gam= 0.930 g(H,U,f)=  0.196E-04 0.154E-04 0.218E-07 ort(H,U,f) =-0.985E-05 0.129E-04-0.573E-08
CGA: 124    -0.223198444403E+03   -0.81975E-05   -0.80814E-05  5760   0.350E-04 0.308E-05
 gam= 0.930 trial= 0.380  step= 0.265 mean= 0.380
 gam= 0.819 g(H,U,f)=  0.162E-04 0.124E-04 0.483E-07 ort(H,U,f) =-0.258E-05 0.841E-05-0.176E-07
CGA: 125    -0.223198449891E+03   -0.54876E-05   -0.50177E-05  5760   0.286E-04 0.581E-05
 gam= 0.819 trial= 0.374  step= 0.348 mean= 0.374
 gam= 1.248 g(H,U,f)=  0.143E-04 0.214E-04 0.483E-07 ort(H,U,f) =-0.997E-06 0.104E-05-0.260E-07
CGA: 126    -0.223198455885E+03   -0.59944E-05   -0.58071E-05  5760   0.357E-04 0.183E-07
 gam= 1.248 trial= 0.373  step= 0.322 mean= 0.373
 gam= 0.651 g(H,U,f)=  0.139E-04 0.930E-05 0.546E-08 ort(H,U,f) =-0.882E-05 0.732E-05-0.359E-08
CGA: 127    -0.223198461788E+03   -0.59028E-05   -0.57562E-05  5760   0.232E-04-0.150E-05
 gam= 0.651 trial= 0.370  step= 0.325 mean= 0.370
 gam= 0.752 g(H,U,f)=  0.103E-04 0.715E-05 0.643E-08 ort(H,U,f) =-0.223E-05 0.205E-05 0.302E-09
CGA: 128    -0.223198465408E+03   -0.36199E-05   -0.36162E-05  5760   0.175E-04-0.181E-06
 gam= 0.752 trial= 0.368  step= 0.312 mean= 0.368
 gam= 0.798 g(H,U,f)=  0.720E-05 0.673E-05 0.340E-07 ort(H,U,f) =-0.762E-07 0.272E-05-0.195E-07
CGA: 129    -0.223198468183E+03   -0.27753E-05   -0.27083E-05  5760   0.140E-04 0.262E-05
 gam= 0.798 trial= 0.365  step= 0.243 mean= 0.365
 gam= 0.639 g(H,U,f)=  0.459E-05 0.432E-05 0.121E-07 ort(H,U,f) =-0.547E-06 0.130E-05-0.109E-07
CGA: 130    -0.223198470495E+03   -0.23120E-05   -0.19515E-05  5760   0.892E-05 0.740E-06
 gam= 0.639 trial= 0.359  step= 0.313 mean= 0.359
 gam= 0.847 g(H,U,f)=  0.378E-05 0.377E-05 0.305E-08 ort(H,U,f) =-0.133E-05 0.203E-06-0.240E-08
CGA: 131    -0.223198472022E+03   -0.15274E-05   -0.14711E-05  5760   0.756E-05-0.113E-05
 gam= 0.847 trial= 0.357  step= 0.465 mean= 0.357
 gam= 1.123 g(H,U,f)=  0.459E-05 0.390E-05 0.884E-09 ort(H,U,f) =-0.207E-05 0.737E-06-0.535E-09
CGA: 132    -0.223198473471E+03   -0.14490E-05   -0.15336E-05  5760   0.849E-05-0.134E-05
 gam= 1.123 trial= 0.362  step= 0.306 mean= 0.362
 gam= 0.690 g(H,U,f)=  0.350E-05 0.235E-05 0.282E-08 ort(H,U,f) =-0.175E-05 0.155E-05-0.774E-09
CGA: 133    -0.223198474547E+03   -0.10755E-05   -0.10671E-05  5760   0.585E-05-0.202E-06
 gam= 0.690 trial= 0.359  step= 0.281 mean= 0.359
 gam= 0.837 g(H,U,f)=  0.287E-05 0.202E-05 0.415E-08 ort(H,U,f) =-0.501E-06 0.790E-06-0.336E-08
CGA: 134    -0.223198475374E+03   -0.82739E-06   -0.80164E-06  5760   0.490E-05 0.286E-06
 gam= 0.837 trial= 0.355  step= 0.358 mean= 0.355
 final diagonalization
   1 F= -.23234219E+03 E0= -.23233904E+03  d E =-.630749E-02  mag=     6.0000
