 running on   64 total cores
 distrk:  each k-point on   64 cores,    1 groups
 distr:  one band on    4 cores,   16 groups
 using from now: INCAR     
 vasp.5.4.4.18Apr17-6-g9f103f2a35 (build Nov 22 2021 14:44:17) complex          
  
 POSCAR found type information on POSCAR  Li Co O 
 POSCAR found :  3 types and      42 ions
 scaLAPACK will be used
 LDA part: xc-table for Pade appr. of Perdew
 generate k-points for:    6    6    2
 POSCAR, INCAR and KPOINTS ok, starting setup
 FFT: planning ...
 WAVECAR not read
 entering main loop
       N       E                     dE             d eps       ncg     rms          ort
DAV:   1     0.348640154406E+04    0.34864E+04   -0.13955E+05  5760   0.218E+03
DAV:   2     0.408289644176E+03   -0.30781E+04   -0.28364E+04  5760   0.533E+02
DAV:   3    -0.219951250057E+03   -0.62824E+03   -0.57345E+03  5760   0.254E+02
DAV:   4    -0.270095969062E+03   -0.50145E+02   -0.49119E+02  5760   0.740E+01
DAV:   5    -0.271842199624E+03   -0.17462E+01   -0.17430E+01  5760   0.137E+01
 gam= 0.000 g(H,U,f)=  0.179E+04 0.141E+04 0.152E+04 ort(H,U,f) = 0.000E+00 0.000E+00 0.000E+00
SDA:   6     0.107361061852E+03    0.37920E+03   -0.17430E+01  5760   0.471E+04 0.000E+00
 gam= 0.000 trial= 0.400  step= 0.081 mean= 0.400
 gam= 0.380 g(H,U,f)=  0.901E+03 0.815E+03 0.763E+02 ort(H,U,f) = 0.961E+03 0.516E+03 0.854E+02
CGA:   7     0.113152788198E+02   -0.96046E+02   -0.19109E+03  5760   0.179E+04 0.156E+04
 gam= 0.380 trial= 0.384  step= 0.031 mean= 0.384
 gam= 0.000 g(H,U,f)=  0.502E+03 0.578E+03 0.293E+03 ort(H,U,f) = 0.950E+03 0.837E+03 0.669E+03
CGA:   8    -0.961408379162E+02   -0.10746E+03   -0.36546E+02  5760   0.137E+04 0.246E+04
 gam= 0.000 trial= 0.366  step= 0.127 mean= 0.366
 gam= 1.536 g(H,U,f)=  0.170E+03 0.989E+03 0.948E+03 ort(H,U,f) = 0.131E+03 0.279E+01-0.160E+03
CGA:   9    -0.145713961946E+03   -0.49573E+02   -0.87069E+02  5760   0.211E+04-0.261E+02
 gam= 1.536 trial= 0.354  step= 0.068 mean= 0.354
 gam= 1.163 g(H,U,f)=  0.125E+03 0.122E+04 0.111E+04 ort(H,U,f) =-0.207E+03-0.257E+03-0.295E+03
CGA:  10    -0.174683012667E+03   -0.28969E+02   -0.69939E+02  5760   0.245E+04-0.759E+03
 gam= 1.163 trial= 0.340  step= 0.031 mean= 0.340
 gam= 0.249 g(H,U,f)=  0.161E+03 0.388E+03 0.621E+02 ort(H,U,f) =-0.406E+03-0.402E+03-0.289E+02
CGA:  11    -0.183804251676E+03   -0.91212E+01   -0.24314E+02  5760   0.610E+03-0.836E+03
 gam= 0.249 trial= 0.325  step= 0.075 mean= 0.325
 gam= 0.000 g(H,U,f)=  0.179E+03 0.367E+03 0.160E+03 ort(H,U,f) = 0.418E+01-0.275E+03-0.115E+03
CGA:  12    -0.180853320714E+03    0.29509E+01   -0.15182E+02  5760   0.706E+03-0.387E+03
 gam= 0.000 trial= 0.312  step= 0.071 mean= 0.312
 gam= 0.000 g(H,U,f)=  0.107E+03 0.478E+03 0.165E+03 ort(H,U,f) = 0.833E+02-0.393E+03-0.150E+03
CGA:  13    -0.192889542022E+03   -0.12036E+02   -0.24946E+02  5760   0.750E+03-0.460E+03
 gam= 0.000 trial= 0.300  step= 0.069 mean= 0.300
 gam= 0.000 g(H,U,f)=  0.714E+02 0.384E+03 0.182E+03 ort(H,U,f) = 0.303E+02-0.350E+03-0.157E+03
CGA:  14    -0.198482236459E+03   -0.55927E+01   -0.25759E+02  5760   0.637E+03-0.477E+03
 gam= 0.000 trial= 0.289  step= 0.066 mean= 0.289
 gam= 0.000 g(H,U,f)=  0.494E+02 0.396E+03 0.873E+02 ort(H,U,f) = 0.769E+01-0.432E+03-0.974E+02
CGA:  15    -0.203472203791E+03   -0.49900E+01   -0.20935E+02  5760   0.533E+03-0.522E+03
 gam= 0.000 trial= 0.277  step= 0.076 mean= 0.277
 gam= 0.000 g(H,U,f)=  0.471E+02 0.409E+03 0.208E+03 ort(H,U,f) =-0.762E+01-0.337E+03-0.162E+03
CGA:  16    -0.201795979944E+03    0.16762E+01   -0.20369E+02  5760   0.665E+03-0.507E+03
 gam= 0.000 trial= 0.267  step= 0.068 mean= 0.267
 gam= 0.000 g(H,U,f)=  0.381E+02 0.394E+03 0.964E+02 ort(H,U,f) =-0.177E+02-0.422E+03-0.104E+03
CGA:  17    -0.204882506883E+03   -0.30865E+01   -0.22767E+02  5760   0.529E+03-0.544E+03
 gam= 0.000 trial= 0.257  step= 0.073 mean= 0.257
 gam= 0.000 g(H,U,f)=  0.351E+02 0.348E+03 0.195E+03 ort(H,U,f) =-0.198E+02-0.335E+03-0.183E+03
CGA:  18    -0.205319925197E+03   -0.43742E+00   -0.19201E+02  5760   0.578E+03-0.539E+03
 gam= 0.000 trial= 0.248  step= 0.068 mean= 0.248
 gam= 0.000 g(H,U,f)=  0.279E+02 0.305E+03 0.104E+03 ort(H,U,f) =-0.194E+02-0.342E+03-0.117E+03
CGA:  19    -0.208452496398E+03   -0.31326E+01   -0.19719E+02  5760   0.437E+03-0.479E+03
 gam= 0.000 trial= 0.239  step= 0.065 mean= 0.239
 gam= 0.000 g(H,U,f)=  0.168E+02 0.187E+03 0.709E+02 ort(H,U,f) =-0.126E+02-0.236E+03-0.900E+02
CGA:  20    -0.212234730551E+03   -0.37822E+01   -0.14195E+02  5760   0.275E+03-0.339E+03
 gam= 0.000 trial= 0.230  step= 0.052 mean= 0.230
 gam= 0.151 g(H,U,f)=  0.528E+01 0.259E+02 0.104E+02 ort(H,U,f) =-0.160E+01-0.618E+02-0.270E+02
CGA:  21    -0.216613072963E+03   -0.43783E+01   -0.71370E+01  5760   0.416E+02-0.904E+02
 gam= 0.151 trial= 0.222  step= 0.084 mean= 0.222
 gam= 0.190 g(H,U,f)=  0.237E+01 0.415E+01 0.139E+01 ort(H,U,f) = 0.281E+01-0.231E+01-0.230E+01
CGA:  22    -0.217674022175E+03   -0.10609E+01   -0.11686E+01  5760   0.791E+01-0.180E+01
 gam= 0.190 trial= 0.215  step= 0.155 mean= 0.215
 gam= 1.613 g(H,U,f)=  0.177E+01 0.821E+01 0.277E+01 ort(H,U,f) = 0.190E+01-0.800E+00-0.105E+01
CGA:  23    -0.218250021777E+03   -0.57600E+00   -0.58766E+00  5760   0.128E+02 0.559E-01
 gam= 1.613 trial= 0.212  step= 0.232 mean= 0.212
 gam= 0.505 g(H,U,f)=  0.669E+00 0.383E+01 0.195E+01 ort(H,U,f) =-0.121E+00 0.178E+01-0.360E+00
CGA:  24    -0.219766367808E+03   -0.15163E+01   -0.14930E+01  5760   0.644E+01 0.130E+01
 gam= 0.505 trial= 0.213  step= 0.103 mean= 0.213
 gam= 0.359 g(H,U,f)=  0.373E+00 0.156E+01 0.373E+00 ort(H,U,f) =-0.116E+00 0.491E+00-0.479E+00
CGA:  25    -0.220103349647E+03   -0.33698E+00   -0.36738E+00  5760   0.231E+01-0.104E+00
 gam= 0.359 trial= 0.207  step= 0.225 mean= 0.207
 gam= 0.785 g(H,U,f)=  0.328E+00 0.106E+01 0.425E+00 ort(H,U,f) = 0.727E-01 0.329E+00-0.895E-01
CGA:  26    -0.220363503556E+03   -0.26015E+00   -0.25536E+00  5760   0.181E+01 0.313E+00
 gam= 0.785 trial= 0.208  step= 0.212 mean= 0.208
 gam= 1.234 g(H,U,f)=  0.274E+00 0.132E+01 0.644E+00 ort(H,U,f) = 0.382E-01 0.305E+00-0.339E+00
CGA:  27    -0.220581596506E+03   -0.21809E+00   -0.21808E+00  5760   0.224E+01 0.445E-02
 gam= 1.234 trial= 0.208  step= 0.270 mean= 0.208
 gam= 0.484 g(H,U,f)=  0.375E+00 0.631E+00 0.755E-01 ort(H,U,f) =-0.507E+00 0.654E+00 0.124E-01
CGA:  28    -0.220891410842E+03   -0.30981E+00   -0.30260E+00  5760   0.108E+01 0.159E+00
 gam= 0.484 trial= 0.211  step= 0.434 mean= 0.211
 gam= 1.246 g(H,U,f)=  0.523E+00 0.648E+00 0.177E+00 ort(H,U,f) =-0.179E+00 0.384E+00-0.854E-02
CGA:  29    -0.221166821181E+03   -0.27541E+00   -0.25134E+00  5760   0.135E+01 0.197E+00
 gam= 1.246 trial= 0.223  step= 0.332 mean= 0.223
 gam= 1.790 g(H,U,f)=  0.527E+00 0.131E+01 0.577E+00 ort(H,U,f) =-0.712E-01 0.286E+00-0.322E+00
CGA:  30    -0.221425347341E+03   -0.25853E+00   -0.26474E+00  5760   0.241E+01-0.107E+00
 gam= 1.790 trial= 0.228  step= 0.248 mean= 0.228
 gam= 0.579 g(H,U,f)=  0.482E+00 0.837E+00 0.796E-01 ort(H,U,f) =-0.497E+00 0.446E+00 0.620E-02
CGA:  31    -0.221700014996E+03   -0.27467E+00   -0.27538E+00  5760   0.140E+01-0.451E-01
 gam= 0.579 trial= 0.229  step= 0.169 mean= 0.229
 gam= 1.195 g(H,U,f)=  0.424E+00 0.837E+00 0.409E+00 ort(H,U,f) =-0.908E-01 0.295E+00-0.203E+00
CGA:  32    -0.221816165069E+03   -0.11615E+00   -0.11581E+00  5760   0.167E+01 0.909E-03
 gam= 1.195 trial= 0.226  step= 0.252 mean= 0.226
 gam= 0.393 g(H,U,f)=  0.350E+00 0.298E+00 0.911E-02 ort(H,U,f) =-0.177E+00 0.279E+00 0.317E-01
CGA:  33    -0.222030051239E+03   -0.21389E+00   -0.21090E+00  5760   0.657E+00 0.134E+00
 gam= 0.393 trial= 0.227  step= 0.434 mean= 0.227
 gam= 2.506 g(H,U,f)=  0.310E+00 0.714E+00 0.622E+00 ort(H,U,f) =-0.438E-01 0.203E+00-0.205E+00
CGA:  34    -0.222178748731E+03   -0.14870E+00   -0.15394E+00  5760   0.165E+01-0.462E-01
 gam= 2.506 trial= 0.238  step= 0.132 mean= 0.238
 gam= 0.557 g(H,U,f)=  0.417E+00 0.497E+00 0.230E-02 ort(H,U,f) =-0.486E+00 0.508E+00 0.141E-03
CGA:  35    -0.222283015406E+03   -0.10427E+00   -0.10080E+00  5760   0.916E+00 0.218E-01
 gam= 0.557 trial= 0.232  step= 0.244 mean= 0.232
 gam= 2.145 g(H,U,f)=  0.420E+00 0.595E+00 0.950E+00 ort(H,U,f) =-0.157E+00 0.194E+00-0.162E-01
CGA:  36    -0.222396596183E+03   -0.11358E+00   -0.11335E+00  5760   0.196E+01 0.210E-01
 gam= 2.145 trial= 0.233  step= 0.158 mean= 0.233
 gam= 0.432 g(H,U,f)=  0.403E+00 0.375E+00 0.716E-01 ort(H,U,f) =-0.567E+00 0.387E+00 0.203E+00
CGA:  37    -0.222545531468E+03   -0.14894E+00   -0.15868E+00  5760   0.849E+00 0.229E-01
 gam= 0.432 trial= 0.229  step= 0.312 mean= 0.229
 gam= 0.549 g(H,U,f)=  0.240E+00 0.226E+00 0.694E-03 ort(H,U,f) =-0.589E-01 0.165E+00 0.345E-02
CGA:  38    -0.222687128780E+03   -0.14160E+00   -0.13400E+00  5760   0.466E+00 0.110E+00
 gam= 0.549 trial= 0.233  step= 0.359 mean= 0.233
 gam= 1.067 g(H,U,f)=  0.204E+00 0.294E+00 0.258E-03 ort(H,U,f) =-0.181E-01-0.202E-01 0.355E-03
CGA:  39    -0.222778937892E+03   -0.91809E-01   -0.94450E-01  5760   0.498E+00-0.379E-01
 gam= 1.067 trial= 0.240  step= 0.178 mean= 0.240
 gam= 0.959 g(H,U,f)=  0.185E+00 0.291E+00 0.610E-03 ort(H,U,f) = 0.855E-01 0.819E-01-0.630E-04
CGA:  40    -0.222830960012E+03   -0.52022E-01   -0.40618E-01  5760   0.477E+00 0.167E+00
 gam= 0.959 trial= 0.237  step= 0.082 mean= 0.237
 gam= 0.000 g(H,U,f)=  0.134E+00 0.271E+00 0.892E-03 ort(H,U,f) = 0.184E+00 0.253E+00 0.638E-03
CGA:  41    -0.222860178368E+03   -0.29218E-01   -0.25974E-01  5760   0.406E+00 0.437E+00
 gam= 0.000 trial= 0.229  step= 0.270 mean= 0.229
 gam= 0.597 g(H,U,f)=  0.117E+00 0.125E+00 0.394E-03 ort(H,U,f) =-0.260E-01-0.796E-02 0.518E-03
CGA:  42    -0.222912990778E+03   -0.52812E-01   -0.54873E-01  5760   0.242E+00-0.334E-01
 gam= 0.597 trial= 0.231  step= 0.555 mean= 0.231
 gam= 0.740 g(H,U,f)=  0.911E-01 0.880E-01 0.148E-03 ort(H,U,f) =-0.549E-01 0.607E-01 0.234E-03
CGA:  43    -0.222975788513E+03   -0.62798E-01   -0.61642E-01  5760   0.179E+00 0.604E-02
 gam= 0.740 trial= 0.247  step= 0.484 mean= 0.247
 gam= 0.644 g(H,U,f)=  0.659E-01 0.495E-01 0.587E-04 ort(H,U,f) =-0.427E-01 0.377E-01 0.352E-03
CGA:  44    -0.223019733881E+03   -0.43945E-01   -0.44415E-01  5760   0.115E+00-0.464E-02
 gam= 0.644 trial= 0.259  step= 0.569 mean= 0.259
 gam= 0.660 g(H,U,f)=  0.470E-01 0.291E-01 0.184E-04 ort(H,U,f) =-0.274E-01 0.218E-01-0.495E-04
CGA:  45    -0.223050637198E+03   -0.30903E-01   -0.32010E-01  5760   0.762E-01-0.560E-02
 gam= 0.660 trial= 0.274  step= 0.582 mean= 0.274
 gam= 0.534 g(H,U,f)=  0.241E-01 0.166E-01 0.656E-05 ort(H,U,f) =-0.701E-02 0.116E-01 0.252E-04
CGA:  46    -0.223072064881E+03   -0.21428E-01   -0.21091E-01  5760   0.407E-01 0.465E-02
 gam= 0.534 trial= 0.290  step= 0.426 mean= 0.290
 gam= 0.959 g(H,U,f)=  0.204E-01 0.186E-01 0.421E-05 ort(H,U,f) =-0.776E-02 0.808E-02 0.118E-04
CGA:  47    -0.223081053660E+03   -0.89888E-02   -0.92055E-02  5760   0.390E-01 0.329E-03
 gam= 0.959 trial= 0.297  step= 0.790 mean= 0.297
 gam= 0.000 g(H,U,f)=  0.643E-01 0.104E+00 0.607E-05 ort(H,U,f) =-0.242E-01-0.116E-02 0.124E-04
CGA:  48    -0.223080326332E+03    0.72733E-03   -0.15546E-01  5760   0.168E+00-0.254E-01
 gam= 0.000 trial= 0.321  step= 0.135 mean= 0.321
 gam= 0.140 g(H,U,f)=  0.134E-01 0.101E-01 0.340E-05 ort(H,U,f) = 0.689E-02-0.355E-02 0.298E-05
CGA:  49    -0.223097661685E+03   -0.17335E-01   -0.11337E-01  5760   0.236E-01 0.334E-02
 gam= 0.140 trial= 0.312  step= 0.516 mean= 0.312
 gam= 0.810 g(H,U,f)=  0.733E-02 0.118E-01 0.857E-05 ort(H,U,f) =-0.451E-02 0.398E-02 0.202E-05
CGA:  50    -0.223103795310E+03   -0.61336E-02   -0.62076E-02  5760   0.191E-01-0.532E-03
 gam= 0.810 trial= 0.322  step= 0.481 mean= 0.322
 gam= 0.932 g(H,U,f)=  0.798E-02 0.980E-02 0.259E-05 ort(H,U,f) =-0.660E-02 0.690E-02 0.496E-05
CGA:  51    -0.223108265382E+03   -0.44701E-02   -0.44856E-02  5760   0.178E-01 0.306E-03
 gam= 0.932 trial= 0.330  step= 0.461 mean= 0.330
 gam= 1.435 g(H,U,f)=  0.123E-01 0.132E-01 0.558E-05 ort(H,U,f) =-0.286E-02 0.358E-02 0.349E-05
CGA:  52    -0.223112167658E+03   -0.39023E-02   -0.41624E-02  5760   0.255E-01 0.720E-03
 gam= 1.435 trial= 0.337  step= 0.566 mean= 0.337
 gam= 1.000 g(H,U,f)=  0.176E-01 0.785E-02 0.429E-04 ort(H,U,f) =-0.115E-01 0.459E-02 0.125E-04
CGA:  53    -0.223118094902E+03   -0.59272E-02   -0.75140E-02  5760   0.255E-01-0.686E-02
 gam= 1.000 trial= 0.348  step= 0.382 mean= 0.348
 gam= 0.491 g(H,U,f)=  0.676E-02 0.576E-02 0.138E-04 ort(H,U,f) =-0.190E-02 0.138E-02 0.183E-04
CGA:  54    -0.223121595542E+03   -0.35006E-02   -0.35668E-02  5760   0.125E-01-0.501E-03
 gam= 0.491 trial= 0.350  step= 0.843 mean= 0.350
 gam= 3.397 g(H,U,f)=  0.155E-01 0.271E-01 0.363E-04 ort(H,U,f) =-0.305E-02-0.265E-02-0.892E-06
CGA:  55    -0.223123603452E+03   -0.20079E-02   -0.51770E-02  5760   0.426E-01-0.570E-02
 gam= 3.397 trial= 0.374  step= 0.119 mean= 0.374
 gam= 0.842 g(H,U,f)=  0.163E-01 0.196E-01 0.193E-04 ort(H,U,f) =-0.917E-02 0.110E-01 0.622E-05
CGA:  56    -0.223124556306E+03   -0.95285E-03   -0.13848E-02  5760   0.359E-01 0.184E-02
 gam= 0.842 trial= 0.362  step= 0.101 mean= 0.362
 gam= 0.576 g(H,U,f)=  0.131E-01 0.752E-02 0.194E-05 ort(H,U,f) =-0.722E-02 0.972E-02-0.102E-04
CGA:  57    -0.223126693243E+03   -0.21369E-02   -0.18794E-02  5760   0.207E-01 0.248E-02
 gam= 0.576 trial= 0.349  step= 0.146 mean= 0.349
 gam= 1.017 g(H,U,f)=  0.110E-01 0.100E-01 0.121E-04 ort(H,U,f) =-0.128E-02 0.184E-02 0.664E-05
CGA:  58    -0.223128293918E+03   -0.16007E-02   -0.16086E-02  5760   0.210E-01 0.566E-03
 gam= 1.017 trial= 0.338  step= 0.150 mean= 0.338
 gam= 0.922 g(H,U,f)=  0.894E-02 0.104E-01 0.261E-04 ort(H,U,f) =-0.359E-02 0.434E-02 0.503E-04
CGA:  59    -0.223130168077E+03   -0.18742E-02   -0.16209E-02  5760   0.194E-01 0.806E-03
 gam= 0.922 trial= 0.329  step= 0.143 mean= 0.329
 gam= 1.006 g(H,U,f)=  0.907E-02 0.103E-01 0.783E-04 ort(H,U,f) =-0.488E-02 0.837E-02 0.992E-04
CGA:  60    -0.223131597296E+03   -0.14292E-02   -0.14382E-02  5760   0.195E-01 0.359E-02
 gam= 1.006 trial= 0.320  step= 0.247 mean= 0.320
 gam= 0.890 g(H,U,f)=  0.999E-02 0.730E-02 0.381E-04 ort(H,U,f) =-0.105E-01 0.678E-02 0.119E-03
CGA:  61    -0.223134631174E+03   -0.30339E-02   -0.28504E-02  5760   0.173E-01-0.365E-02
 gam= 0.890 trial= 0.316  step= 0.160 mean= 0.316
 gam= 0.934 g(H,U,f)=  0.101E-01 0.607E-02 0.879E-05 ort(H,U,f) =-0.322E-02 0.627E-02 0.483E-04
CGA:  62    -0.223135998773E+03   -0.13676E-02   -0.11234E-02  5760   0.162E-01 0.310E-02
 gam= 0.934 trial= 0.308  step= 0.256 mean= 0.308
 gam= 0.952 g(H,U,f)=  0.725E-02 0.815E-02 0.105E-04 ort(H,U,f) =-0.710E-03 0.435E-02-0.466E-04
CGA:  63    -0.223138382333E+03   -0.23836E-02   -0.24445E-02  5760   0.154E-01 0.359E-02
 gam= 0.952 trial= 0.306  step= 0.211 mean= 0.306
 gam= 0.721 g(H,U,f)=  0.716E-02 0.394E-02 0.100E-04 ort(H,U,f) =-0.378E-02 0.349E-02-0.587E-04
CGA:  64    -0.223140822259E+03   -0.24399E-02   -0.19879E-02  5760   0.111E-01-0.347E-03
 gam= 0.721 trial= 0.301  step= 0.238 mean= 0.301
 gam= 1.097 g(H,U,f)=  0.673E-02 0.545E-02 0.109E-04 ort(H,U,f) =-0.954E-03 0.268E-02-0.283E-04
CGA:  65    -0.223142085928E+03   -0.12637E-02   -0.12914E-02  5760   0.122E-01 0.170E-02
 gam= 1.097 trial= 0.298  step= 0.195 mean= 0.298
 gam= 0.795 g(H,U,f)=  0.490E-02 0.478E-02 0.537E-05 ort(H,U,f) =-0.330E-02 0.350E-02-0.149E-04
CGA:  66    -0.223143608622E+03   -0.15227E-02   -0.13732E-02  5760   0.969E-02 0.192E-03
 gam= 0.795 trial= 0.293  step= 0.255 mean= 0.293
 gam= 1.084 g(H,U,f)=  0.589E-02 0.462E-02 0.610E-05 ort(H,U,f) =-0.385E-02 0.411E-02 0.142E-05
CGA:  67    -0.223144860853E+03   -0.12522E-02   -0.12556E-02  5760   0.105E-01 0.263E-03
 gam= 1.084 trial= 0.291  step= 0.203 mean= 0.291
 gam= 0.963 g(H,U,f)=  0.558E-02 0.453E-02 0.118E-04 ort(H,U,f) =-0.244E-02 0.312E-02 0.620E-05
CGA:  68    -0.223146103868E+03   -0.12430E-02   -0.10955E-02  5760   0.101E-01 0.686E-03
 gam= 0.963 trial= 0.286  step= 0.346 mean= 0.286
 gam= 1.535 g(H,U,f)=  0.719E-02 0.834E-02 0.594E-05 ort(H,U,f) =-0.273E-02 0.378E-02 0.269E-05
CGA:  69    -0.223147986789E+03   -0.18829E-02   -0.18635E-02  5760   0.155E-01 0.105E-02
 gam= 1.535 trial= 0.289  step= 0.251 mean= 0.289
 gam= 1.031 g(H,U,f)=  0.919E-02 0.681E-02 0.118E-04 ort(H,U,f) =-0.738E-02 0.744E-02-0.392E-05
CGA:  70    -0.223150285831E+03   -0.22990E-02   -0.21504E-02  5760   0.160E-01 0.569E-04
 gam= 1.031 trial= 0.287  step= 0.241 mean= 0.287
 gam= 0.843 g(H,U,f)=  0.939E-02 0.410E-02 0.497E-05 ort(H,U,f) =-0.656E-02 0.745E-02-0.243E-04
CGA:  71    -0.223152203520E+03   -0.19177E-02   -0.19372E-02  5760   0.135E-01 0.866E-03
 gam= 0.843 trial= 0.285  step= 0.189 mean= 0.285
 gam= 0.979 g(H,U,f)=  0.785E-02 0.536E-02 0.695E-05 ort(H,U,f) =-0.161E-02 0.299E-02-0.279E-04
CGA:  72    -0.223153665645E+03   -0.14621E-02   -0.13420E-02  5760   0.132E-01 0.135E-02
 gam= 0.979 trial= 0.280  step= 0.337 mean= 0.280
 gam= 1.083 g(H,U,f)=  0.741E-02 0.690E-02 0.598E-05 ort(H,U,f) =-0.285E-02 0.150E-02-0.137E-04
CGA:  73    -0.223156081275E+03   -0.24156E-02   -0.24484E-02  5760   0.143E-01-0.136E-02
 gam= 1.083 trial= 0.283  step= 0.201 mean= 0.283
 gam= 0.864 g(H,U,f)=  0.626E-02 0.611E-02 0.964E-06 ort(H,U,f) =-0.111E-02 0.172E-02-0.487E-05
CGA:  74    -0.223157597403E+03   -0.15161E-02   -0.12896E-02  5760   0.124E-01 0.607E-03
 gam= 0.864 trial= 0.279  step= 0.182 mean= 0.279
 gam= 0.549 g(H,U,f)=  0.350E-02 0.329E-02 0.218E-05 ort(H,U,f) =-0.763E-03 0.179E-02-0.381E-05
CGA:  75    -0.223158714472E+03   -0.11171E-02   -0.11716E-02  5760   0.679E-02 0.103E-02
 gam= 0.549 trial= 0.274  step= 0.141 mean= 0.274
 gam= 0.599 g(H,U,f)=  0.244E-02 0.163E-02 0.180E-05 ort(H,U,f) = 0.181E-03 0.677E-04-0.785E-07
CGA:  76    -0.223159272104E+03   -0.55763E-03   -0.51984E-03  5760   0.407E-02 0.248E-03
 gam= 0.599 trial= 0.268  step= 0.251 mean= 0.268
 gam= 1.175 g(H,U,f)=  0.197E-02 0.281E-02 0.270E-05 ort(H,U,f) = 0.134E-03-0.338E-03 0.938E-06
CGA:  77    -0.223159802248E+03   -0.53014E-03   -0.52891E-03  5760   0.478E-02-0.204E-03
 gam= 1.175 trial= 0.267  step= 0.178 mean= 0.267
 gam= 0.611 g(H,U,f)=  0.149E-02 0.142E-02 0.449E-05 ort(H,U,f) =-0.415E-03 0.702E-03-0.125E-05
CGA:  78    -0.223160253570E+03   -0.45132E-03   -0.40381E-03  5760   0.292E-02 0.286E-03
 gam= 0.611 trial= 0.262  step= 0.236 mean= 0.262
 gam= 0.000 g(H,U,f)=  0.110E-02 0.983E-03 0.783E-05 ort(H,U,f) =-0.365E-03 0.415E-03 0.364E-05
SDA:  79    -0.223160618517E+03   -0.36495E-03   -0.36539E-03  5760   0.209E-02 0.533E-04
 gam= 0.000 trial= 0.261  step= 0.252 mean= 0.261
 gam= 1.003 g(H,U,f)=  0.775E-03 0.132E-02 0.375E-05 ort(H,U,f) = 0.282E-03-0.296E-03-0.224E-05
CGA:  80    -0.223160893336E+03   -0.27482E-03   -0.26398E-03  5760   0.210E-02-0.169E-04
 gam= 1.003 trial= 0.260  step= 0.259 mean= 0.260
 gam= 0.576 g(H,U,f)=  0.478E-03 0.730E-03 0.120E-05 ort(H,U,f) =-0.197E-03 0.292E-03 0.102E-05
CGA:  81    -0.223161162630E+03   -0.26929E-03   -0.26939E-03  5760   0.121E-02 0.967E-04
 gam= 0.576 trial= 0.260  step= 0.171 mean= 0.260
 gam= 0.862 g(H,U,f)=  0.386E-03 0.655E-03 0.102E-05 ort(H,U,f) =-0.106E-03 0.269E-03 0.950E-06
CGA:  82    -0.223161289869E+03   -0.12724E-03   -0.10819E-03  5760   0.104E-02 0.164E-03
 gam= 0.862 trial= 0.256  step= 0.295 mean= 0.256
 gam= 0.945 g(H,U,f)=  0.410E-03 0.573E-03 0.123E-05 ort(H,U,f) =-0.226E-03 0.252E-03 0.151E-05
CGA:  83    -0.223161464845E+03   -0.17498E-03   -0.17448E-03  5760   0.985E-03 0.266E-04
 gam= 0.945 trial= 0.258  step= 0.211 mean= 0.258
 gam= 1.200 g(H,U,f)=  0.405E-03 0.776E-03 0.498E-06 ort(H,U,f) =-0.111E-03 0.142E-03 0.275E-06
CGA:  84    -0.223161589518E+03   -0.12467E-03   -0.10661E-03  5760   0.118E-02 0.316E-04
 gam= 1.200 trial= 0.256  step= 0.232 mean= 0.256
 gam= 1.170 g(H,U,f)=  0.444E-03 0.938E-03 0.143E-05 ort(H,U,f) =-0.113E-03 0.541E-03 0.801E-06
CGA:  85    -0.223161727627E+03   -0.13811E-03   -0.14150E-03  5760   0.138E-02 0.429E-03
 gam= 1.170 trial= 0.254  step= 0.156 mean= 0.254
 gam= 0.390 g(H,U,f)=  0.305E-03 0.234E-03 0.595E-06 ort(H,U,f) =-0.332E-03 0.298E-03 0.292E-05
CGA:  86    -0.223161900720E+03   -0.17309E-03   -0.14731E-03  5760   0.540E-03-0.311E-04
 gam= 0.390 trial= 0.249  step= 0.375 mean= 0.249
 gam= 1.300 g(H,U,f)=  0.294E-03 0.407E-03 0.632E-06 ort(H,U,f) =-0.501E-04 0.560E-04 0.834E-06
CGA:  87    -0.223161999657E+03   -0.98937E-04   -0.98900E-04  5760   0.702E-03 0.672E-05
 gam= 1.300 trial= 0.256  step= 0.226 mean= 0.256
 gam= 0.591 g(H,U,f)=  0.176E-03 0.238E-03 0.456E-06 ort(H,U,f) =-0.145E-03 0.123E-03-0.143E-05
CGA:  88    -0.223162089365E+03   -0.89707E-04   -0.80393E-04  5760   0.414E-03-0.226E-04
 gam= 0.591 trial= 0.254  step= 0.615 mean= 0.254
 gam= 1.005 g(H,U,f)=  0.226E-03 0.190E-03 0.205E-06 ort(H,U,f) =-0.136E-03 0.557E-04-0.715E-06
CGA:  89    -0.223162192129E+03   -0.10276E-03   -0.12335E-03  5760   0.417E-03-0.806E-04
 gam= 1.005 trial= 0.272  step= 0.495 mean= 0.272
 gam= 0.657 g(H,U,f)=  0.155E-03 0.119E-03 0.527E-07 ort(H,U,f) =-0.811E-04 0.694E-04-0.204E-06
CGA:  90    -0.223162273943E+03   -0.81813E-04   -0.83126E-04  5760   0.274E-03-0.119E-04
 gam= 0.657 trial= 0.283  step= 0.545 mean= 0.283
 gam= 1.042 g(H,U,f)=  0.136E-03 0.149E-03 0.119E-06 ort(H,U,f) =-0.505E-04 0.310E-04-0.153E-06
CGA:  91    -0.223162340880E+03   -0.66937E-04   -0.72455E-04  5760   0.285E-03-0.197E-04
 gam= 1.042 trial= 0.297  step= 0.356 mean= 0.297
 gam= 0.895 g(H,U,f)=  0.116E-03 0.139E-03 0.222E-06 ort(H,U,f) =-0.284E-04 0.333E-04-0.120E-06
CGA:  92    -0.223162387822E+03   -0.46941E-04   -0.47062E-04  5760   0.255E-03 0.476E-05
 gam= 0.895 trial= 0.299  step= 0.421 mean= 0.299
 gam= 1.062 g(H,U,f)=  0.125E-03 0.145E-03 0.121E-05 ort(H,U,f) =-0.302E-04 0.185E-04-0.438E-06
CGA:  93    -0.223162433716E+03   -0.45895E-04   -0.54577E-04  5760   0.271E-03-0.122E-04
 gam= 1.062 trial= 0.306  step= 0.414 mean= 0.306
 gam= 1.038 g(H,U,f)=  0.123E-03 0.157E-03 0.700E-06 ort(H,U,f) =-0.963E-04 0.508E-04 0.181E-07
CGA:  94    -0.223162480401E+03   -0.46684E-04   -0.53444E-04  5760   0.281E-03-0.455E-04
 gam= 1.038 trial= 0.311  step= 0.348 mean= 0.311
 gam= 0.904 g(H,U,f)=  0.120E-03 0.134E-03 0.556E-06 ort(H,U,f) =-0.772E-04 0.367E-04 0.226E-06
CGA:  95    -0.223162519200E+03   -0.38799E-04   -0.40785E-04  5760   0.254E-03-0.403E-04
 gam= 0.904 trial= 0.313  step= 0.668 mean= 0.313
 gam= 1.323 g(H,U,f)=  0.177E-03 0.159E-03 0.330E-07 ort(H,U,f) =-0.849E-04 0.750E-04 0.147E-06
CGA:  96    -0.223162590027E+03   -0.70828E-04   -0.72820E-04  5760   0.337E-03-0.970E-05
 gam= 1.323 trial= 0.331  step= 0.470 mean= 0.331
 gam= 0.880 g(H,U,f)=  0.160E-03 0.137E-03 0.364E-07 ort(H,U,f) =-0.862E-04 0.939E-04-0.116E-06
CGA:  97    -0.223162666649E+03   -0.76621E-04   -0.76093E-04  5760   0.296E-03 0.762E-05
 gam= 0.880 trial= 0.338  step= 0.649 mean= 0.338
 gam= 1.260 g(H,U,f)=  0.174E-03 0.199E-03 0.292E-06 ort(H,U,f) =-0.843E-04 0.764E-04 0.777E-06
CGA:  98    -0.223162765060E+03   -0.98411E-04   -0.98281E-04  5760   0.373E-03-0.715E-05
 gam= 1.260 trial= 0.353  step= 0.349 mean= 0.353
 gam= 0.721 g(H,U,f)=  0.126E-03 0.142E-03 0.763E-06 ort(H,U,f) =-0.518E-04 0.103E-03 0.161E-05
CGA:  99    -0.223162828939E+03   -0.63879E-04   -0.63571E-04  5760   0.269E-03 0.525E-04
 gam= 0.721 trial= 0.353  step= 0.305 mean= 0.353
 gam= 1.093 g(H,U,f)=  0.150E-03 0.144E-03 0.541E-06 ort(H,U,f) =-0.430E-04 0.302E-04 0.133E-05
CGA: 100    -0.223162879879E+03   -0.50940E-04   -0.46827E-04  5760   0.294E-03-0.115E-04
 gam= 1.093 trial= 0.351  step= 0.438 mean= 0.351
 gam= 0.835 g(H,U,f)=  0.140E-03 0.105E-03 0.319E-06 ort(H,U,f) =-0.472E-04 0.403E-04-0.108E-05
CGA: 101    -0.223162941038E+03   -0.61159E-04   -0.61611E-04  5760   0.245E-03-0.801E-05
 gam= 0.835 trial= 0.355  step= 0.269 mean= 0.355
 gam= 0.757 g(H,U,f)=  0.836E-04 0.102E-03 0.510E-06 ort(H,U,f) =-0.664E-05 0.400E-04-0.129E-05
CGA: 102    -0.223162974003E+03   -0.32965E-04   -0.32106E-04  5760   0.186E-03 0.321E-04
 gam= 0.757 trial= 0.351  step= 0.250 mean= 0.351
 gam= 0.604 g(H,U,f)=  0.615E-04 0.505E-04 0.267E-06 ort(H,U,f) =-0.165E-05 0.466E-05-0.288E-06
CGA: 103    -0.223163002665E+03   -0.28661E-04   -0.26261E-04  5760   0.112E-03 0.273E-05
 gam= 0.604 trial= 0.346  step= 0.490 mean= 0.346
 gam= 0.846 g(H,U,f)=  0.447E-04 0.500E-04 0.198E-06 ort(H,U,f) =-0.228E-04 0.160E-04 0.342E-06
CGA: 104    -0.223163030015E+03   -0.27350E-04   -0.27932E-04  5760   0.949E-04-0.644E-05
 gam= 0.846 trial= 0.353  step= 0.340 mean= 0.353
 gam= 0.905 g(H,U,f)=  0.451E-04 0.405E-04 0.233E-06 ort(H,U,f) =-0.183E-04 0.221E-04 0.499E-06
CGA: 105    -0.223163045257E+03   -0.15243E-04   -0.15215E-04  5760   0.859E-04 0.431E-05
 gam= 0.905 trial= 0.352  step= 0.377 mean= 0.352
 gam= 0.953 g(H,U,f)=  0.307E-04 0.511E-04 0.490E-07 ort(H,U,f) =-0.173E-04 0.200E-04 0.232E-06
CGA: 106    -0.223163061550E+03   -0.16293E-04   -0.16921E-04  5760   0.818E-04 0.290E-05
 gam= 0.953 trial= 0.353  step= 0.342 mean= 0.353
 gam= 0.963 g(H,U,f)=  0.377E-04 0.408E-04 0.237E-06 ort(H,U,f) =-0.235E-04 0.160E-04-0.201E-06
CGA: 107    -0.223163076174E+03   -0.14624E-04   -0.14447E-04  5760   0.788E-04-0.768E-05
 gam= 0.963 trial= 0.353  step= 0.432 mean= 0.353
 gam= 0.970 g(H,U,f)=  0.391E-04 0.369E-04 0.395E-06 ort(H,U,f) =-0.193E-04 0.191E-04-0.106E-06
CGA: 108    -0.223163091575E+03   -0.15401E-04   -0.15420E-04  5760   0.764E-04-0.330E-06
 gam= 0.970 trial= 0.357  step= 0.386 mean= 0.357
 gam= 0.875 g(H,U,f)=  0.331E-04 0.337E-04 0.521E-07 ort(H,U,f) =-0.181E-04 0.156E-04 0.115E-06
CGA: 109    -0.223163106191E+03   -0.14616E-04   -0.14676E-04  5760   0.669E-04-0.243E-05
 gam= 0.875 trial= 0.358  step= 0.273 mean= 0.358
 gam= 0.000 g(H,U,f)=  0.252E-04 0.231E-04 0.139E-07 ort(H,U,f) =-0.538E-05 0.113E-04-0.918E-07
SDA: 110    -0.223163115938E+03   -0.97473E-05   -0.88258E-05  5760   0.483E-04 0.587E-05
 gam= 0.000 trial= 0.354  step= 0.228 mean= 0.354
 gam= 0.703 g(H,U,f)=  0.145E-04 0.194E-04 0.728E-08 ort(H,U,f) = 0.108E-04 0.926E-06 0.315E-08
CGA: 111    -0.223163122913E+03   -0.69744E-05   -0.54920E-05  5760   0.339E-04 0.118E-04
 gam= 0.703 trial= 0.348  step= 0.322 mean= 0.348
 gam= 0.740 g(H,U,f)=  0.104E-04 0.147E-04 0.364E-07 ort(H,U,f) =-0.972E-06 0.832E-06-0.522E-08
CGA: 112    -0.223163129735E+03   -0.68226E-05   -0.67966E-05  5760   0.251E-04-0.145E-06
 gam= 0.740 trial= 0.346  step= 0.624 mean= 0.346
 gam= 1.603 g(H,U,f)=  0.175E-04 0.227E-04 0.493E-07 ort(H,U,f) =-0.714E-05 0.548E-05 0.245E-07
CGA: 113    -0.223163137279E+03   -0.75434E-05   -0.78001E-05  5760   0.402E-04-0.163E-05
 gam= 1.603 trial= 0.360  step= 0.215 mean= 0.360
 gam= 0.571 g(H,U,f)=  0.133E-04 0.968E-05 0.227E-07 ort(H,U,f) =-0.721E-05 0.127E-04 0.538E-07
CGA: 114    -0.223163142186E+03   -0.49071E-05   -0.40488E-05  5760   0.230E-04 0.552E-05
 gam= 0.571 trial= 0.353  step= 0.542 mean= 0.353
 gam= 0.947 g(H,U,f)=  0.118E-04 0.996E-05 0.386E-08 ort(H,U,f) =-0.889E-05 0.458E-05-0.243E-07
CGA: 115    -0.223163148550E+03   -0.63643E-05   -0.70827E-05  5760   0.218E-04-0.433E-05
 gam= 0.947 trial= 0.362  step= 0.542 mean= 0.362
 gam= 0.865 g(H,U,f)=  0.128E-04 0.604E-05 0.776E-08 ort(H,U,f) =-0.799E-05 0.922E-05-0.242E-07
CGA: 116    -0.223163153432E+03   -0.48821E-05   -0.47835E-05  5760   0.188E-04 0.120E-05
 gam= 0.865 trial= 0.371  step= 0.489 mean= 0.371
 gam= 1.392 g(H,U,f)=  0.140E-04 0.123E-04 0.125E-08 ort(H,U,f) =-0.516E-05 0.662E-05 0.424E-08
CGA: 117    -0.223163157905E+03   -0.44730E-05   -0.48619E-05  5760   0.262E-04 0.147E-05
 gam= 1.392 trial= 0.377  step= 0.350 mean= 0.377
 gam= 1.385 g(H,U,f)=  0.143E-04 0.219E-04 0.199E-07 ort(H,U,f) =-0.662E-05 0.444E-05 0.259E-07
CGA: 118    -0.223163163036E+03   -0.51309E-05   -0.49490E-05  5760   0.363E-04-0.216E-05
 gam= 1.385 trial= 0.376  step= 0.394 mean= 0.376
 gam= 0.878 g(H,U,f)=  0.190E-04 0.128E-04 0.324E-07 ort(H,U,f) =-0.156E-04 0.141E-04 0.578E-07
CGA: 119    -0.223163169586E+03   -0.65503E-05   -0.65646E-05  5760   0.319E-04-0.143E-05
 gam= 0.878 trial= 0.377  step= 0.246 mean= 0.377
 gam= 0.954 g(H,U,f)=  0.178E-04 0.126E-04 0.795E-08 ort(H,U,f) =-0.401E-05 0.815E-05 0.235E-07
CGA: 120    -0.223163173536E+03   -0.39497E-05   -0.37710E-05  5760   0.304E-04 0.417E-05
 gam= 0.954 trial= 0.370  step= 0.360 mean= 0.370
 gam= 0.736 g(H,U,f)=  0.127E-04 0.969E-05 0.295E-07 ort(H,U,f) =-0.469E-05 0.385E-05-0.985E-07
CGA: 121    -0.223163179753E+03   -0.62172E-05   -0.61844E-05  5760   0.224E-04-0.937E-06
 gam= 0.736 trial= 0.370  step= 0.524 mean= 0.370
 gam= 0.865 g(H,U,f)=  0.109E-04 0.836E-05 0.867E-07 ort(H,U,f) =-0.492E-05 0.468E-05-0.749E-07
CGA: 122    -0.223163185429E+03   -0.56759E-05   -0.56849E-05  5760   0.194E-04-0.313E-06
 gam= 0.865 trial= 0.378  step= 0.307 mean= 0.378
 gam= 0.874 g(H,U,f)=  0.844E-05 0.846E-05 0.454E-07 ort(H,U,f) = 0.653E-07 0.337E-05 0.150E-07
CGA: 123    -0.223163188599E+03   -0.31693E-05   -0.29382E-05  5760   0.169E-04 0.345E-05
 gam= 0.874 trial= 0.374  step= 0.351 mean= 0.374
 gam= 0.903 g(H,U,f)=  0.775E-05 0.755E-05 0.464E-09 ort(H,U,f) =-0.247E-05 0.116E-05 0.134E-08
CGA: 124    -0.223163192155E+03   -0.35567E-05   -0.35053E-05  5760   0.153E-04-0.131E-05
 gam= 0.903 trial= 0.373  step= 0.394 mean= 0.373
 gam= 0.716 g(H,U,f)=  0.616E-05 0.479E-05 0.157E-07 ort(H,U,f) =-0.432E-05 0.378E-05-0.281E-07
CGA: 125    -0.223163194922E+03   -0.27664E-05   -0.27793E-05  5760   0.110E-04-0.570E-06
 gam= 0.716 trial= 0.374  step= 0.430 mean= 0.374
 gam= 1.006 g(H,U,f)=  0.608E-05 0.494E-05 0.282E-08 ort(H,U,f) =-0.292E-05 0.332E-05 0.123E-08
CGA: 126    -0.223163197200E+03   -0.22781E-05   -0.22700E-05  5760   0.110E-04 0.401E-06
 gam= 1.006 trial= 0.377  step= 0.404 mean= 0.377
 gam= 1.149 g(H,U,f)=  0.608E-05 0.658E-05 0.141E-07 ort(H,U,f) =-0.196E-05 0.323E-05 0.479E-08
CGA: 127    -0.223163199442E+03   -0.22424E-05   -0.23069E-05  5760   0.127E-04 0.128E-05
 gam= 1.149 trial= 0.378  step= 0.323 mean= 0.378
 gam= 0.884 g(H,U,f)=  0.589E-05 0.528E-05 0.354E-07 ort(H,U,f) =-0.328E-05 0.261E-05 0.252E-07
CGA: 128    -0.223163201834E+03   -0.23922E-05   -0.22860E-05  5760   0.112E-04-0.641E-06
 gam= 0.884 trial= 0.375  step= 0.453 mean= 0.375
 gam= 0.898 g(H,U,f)=  0.563E-05 0.442E-05 0.993E-08 ort(H,U,f) =-0.317E-05 0.290E-05 0.252E-07
CGA: 129    -0.223163204233E+03   -0.23992E-05   -0.24110E-05  5760   0.101E-04-0.249E-06
 gam= 0.898 trial= 0.379  step= 0.385 mean= 0.379
 gam= 1.101 g(H,U,f)=  0.464E-05 0.644E-05 0.355E-08 ort(H,U,f) =-0.169E-05 0.271E-05-0.205E-07
CGA: 130    -0.223163206126E+03   -0.18928E-05   -0.18939E-05  5760   0.111E-04 0.100E-05
 gam= 1.101 trial= 0.380  step= 0.275 mean= 0.380
 gam= 0.606 g(H,U,f)=  0.423E-05 0.247E-05 0.187E-07 ort(H,U,f) =-0.224E-05 0.292E-05-0.456E-07
CGA: 131    -0.223163207879E+03   -0.17530E-05   -0.16731E-05  5760   0.672E-05 0.633E-06
 gam= 0.606 trial= 0.374  step= 0.690 mean= 0.374
 gam= 1.559 g(H,U,f)=  0.484E-05 0.562E-05 0.163E-07 ort(H,U,f) =-0.234E-05 0.285E-06-0.822E-08
CGA: 132    -0.223163209722E+03   -0.18431E-05   -0.24511E-05  5760   0.105E-04-0.206E-05
 gam= 1.559 trial= 0.390  step= 0.488 mean= 0.390
 gam= 1.287 g(H,U,f)=  0.661E-05 0.687E-05 0.864E-09 ort(H,U,f) =-0.418E-05 0.225E-05 0.499E-09
CGA: 133    -0.223163211362E+03   -0.16396E-05   -0.17702E-05  5760   0.135E-04-0.193E-05
 gam= 1.287 trial= 0.395  step= 0.303 mean= 0.395
 gam= 0.702 g(H,U,f)=  0.621E-05 0.325E-05 0.116E-08 ort(H,U,f) =-0.410E-05 0.335E-05-0.255E-08
CGA: 134    -0.223163213066E+03   -0.17044E-05   -0.16649E-05  5760   0.946E-05-0.749E-06
 gam= 0.702 trial= 0.390  step= 0.361 mean= 0.390
 gam= 0.860 g(H,U,f)=  0.459E-05 0.354E-05 0.159E-08 ort(H,U,f) =-0.867E-06 0.115E-05-0.599E-09
CGA: 135    -0.223163214674E+03   -0.16072E-05   -0.16114E-05  5760   0.813E-05 0.284E-06
 gam= 0.860 trial= 0.389  step= 0.350 mean= 0.389
 gam= 0.945 g(H,U,f)=  0.344E-05 0.424E-05 0.332E-08 ort(H,U,f) =-0.324E-06 0.106E-05 0.115E-08
CGA: 136    -0.223163216128E+03   -0.14541E-05   -0.14666E-05  5760   0.769E-05 0.736E-06
 gam= 0.945 trial= 0.387  step= 0.507 mean= 0.387
 gam= 1.129 g(H,U,f)=  0.471E-05 0.396E-05 0.127E-07 ort(H,U,f) =-0.255E-05 0.283E-05 0.406E-08
CGA: 137    -0.223163218111E+03   -0.19835E-05   -0.21254E-05  5760   0.868E-05 0.280E-06
 gam= 1.129 trial= 0.393  step= 0.363 mean= 0.393
 gam= 1.212 g(H,U,f)=  0.558E-05 0.493E-05 0.107E-07 ort(H,U,f) =-0.296E-05 0.265E-05 0.142E-07
CGA: 138    -0.223163219763E+03   -0.16523E-05   -0.16304E-05  5760   0.105E-04-0.297E-06
 gam= 1.212 trial= 0.391  step= 0.422 mean= 0.391
 gam= 1.125 g(H,U,f)=  0.623E-05 0.560E-05 0.171E-08 ort(H,U,f) =-0.380E-05 0.313E-05 0.105E-07
CGA: 139    -0.223163221894E+03   -0.21305E-05   -0.21448E-05  5760   0.118E-04-0.659E-06
 gam= 1.125 trial= 0.393  step= 0.336 mean= 0.393
 gam= 0.868 g(H,U,f)=  0.561E-05 0.466E-05 0.156E-08 ort(H,U,f) =-0.393E-05 0.458E-05-0.791E-08
CGA: 140    -0.223163223754E+03   -0.18595E-05   -0.18625E-05  5760   0.103E-04 0.636E-06
 gam= 0.868 trial= 0.390  step= 0.311 mean= 0.390
 gam= 0.000 g(H,U,f)=  0.589E-05 0.454E-05 0.670E-08 ort(H,U,f) =-0.280E-05 0.356E-05-0.160E-07
SDA: 141    -0.223163225480E+03   -0.17260E-05   -0.16817E-05  5760   0.104E-04 0.736E-06
 gam= 0.000 trial= 0.386  step= 0.356 mean= 0.386
 gam= 0.824 g(H,U,f)=  0.270E-05 0.589E-05 0.338E-08 ort(H,U,f) = 0.243E-05-0.104E-05-0.157E-08
CGA: 142    -0.223163227372E+03   -0.18925E-05   -0.18591E-05  5760   0.860E-05 0.139E-05
 gam= 0.824 trial= 0.385  step= 0.281 mean= 0.385
 gam= 0.627 g(H,U,f)=  0.217E-05 0.321E-05 0.194E-08 ort(H,U,f) = 0.154E-05-0.949E-06-0.255E-08
CGA: 143    -0.223163229034E+03   -0.16624E-05   -0.13702E-05  5760   0.539E-05 0.591E-06
 gam= 0.627 trial= 0.379  step= 0.505 mean= 0.379
 gam= 0.608 g(H,U,f)=  0.151E-05 0.177E-05 0.342E-08 ort(H,U,f) =-0.589E-06 0.479E-06-0.150E-08
CGA: 144    -0.223163230410E+03   -0.13756E-05   -0.14539E-05  5760   0.328E-05-0.111E-06
 gam= 0.608 trial= 0.386  step= 0.754 mean= 0.386
 gam= 2.843 g(H,U,f)=  0.230E-05 0.701E-05 0.979E-08 ort(H,U,f) =-0.582E-06 0.423E-06-0.275E-08
CGA: 145    -0.223163230694E+03   -0.28368E-06   -0.12099E-05  5760   0.932E-05-0.161E-06
 gam= 2.843 trial= 0.404  step= 0.164 mean= 0.404
 final diagonalization
   1 F= -.23275507E+03 E0= -.23275262E+03  d E =-.489937E-02  mag=     6.0000
