 vasp.5.4.4.18Apr17-6-g9f103f2a35 (build Nov 22 2021 14:44:17) complex          
  
 executed on             LinuxIFC date 2022.08.08  11:58:36
 running on   64 total cores
 distrk:  each k-point on   64 cores,    1 groups
 distr:  one band on NCORES_PER_BAND=   4 cores,   16 groups


--------------------------------------------------------------------------------------------------------


 INCAR:
 POTCAR:    PAW_PBE Li 17Jan2003                  
 POTCAR:    PAW_PBE Co 02Aug2007                  
 POTCAR:    PAW_PBE O 08Apr2002                   
 POTCAR:    PAW_PBE Li 17Jan2003                  
   VRHFIN =Li: s1p0                                                             
   LEXCH  = PE                                                                  
   EATOM  =     5.3001 eV,    0.3895 Ry                                         
                                                                                
   TITEL  = PAW_PBE Li 17Jan2003                                                
   LULTRA =        F    use ultrasoft PP ?                                      
   IUNSCR =        1    unscreen: 0-lin 1-nonlin 2-no                           
   RPACOR =    1.500    partial core radius                                     
   POMASS =    7.010; ZVAL   =    1.000    mass and valenz                      
   RCORE  =    2.050    outmost cutoff radius                                   
   RWIGS  =    2.600; RWIGS  =    1.376    wigner-seitz radius (au A)           
   ENMAX  =  140.000; ENMIN  =  100.000 eV                                      
   ICORE  =        2    local potential                                         
   LCOR   =        T    correct aug charges                                     
   LPAW   =        T    paw PP                                                  
   EAUG   =  331.638                                                            
   DEXC   =    0.000                                                            
   RMAX   =    2.098    core radius for proj-oper                               
   RAUG   =    1.300    factor for augmentation sphere                          
   RDEP   =    2.094    radius for radial grids                                 
   RDEPT  =    1.810    core radius for aug-charge                              
                                                                                
   Atomic configuration                                                         
    4 entries                                                                   
     n  l   j            E        occ.                                          
     1  0  0.50       -51.8549   2.0000                                         
     2  0  0.50        -2.8742   1.0000                                         
     2  1  0.50        -1.3606   0.0000                                         
     3  2  1.50        -1.3606   0.0000                                         
   Description                                                                  
     l       E           TYP  RCUT    TYP  RCUT                                 
     0     -2.8742052     23  2.050                                             
     0     27.2116520     23  2.050                                             
     1     -1.3605826     23  2.050                                             
     2     -1.3605826     23  2.050                                             
  local pseudopotential read in
  partial core-charges read in
  partial kinetic energy density read in
  atomic valenz-charges read in
  non local Contribution for L=           0  read in
    real space projection operators read in
  non local Contribution for L=           0  read in
    real space projection operators read in
  non local Contribution for L=           1  read in
    real space projection operators read in
    PAW grid and wavefunctions read in
 
   number of l-projection  operators is LMAX  =           3
   number of lm-projection operators is LMMAX =           5
 
 POTCAR:    PAW_PBE Co 02Aug2007                  
   VRHFIN =Co: d8 s1                                                            
   LEXCH  = PE                                                                  
   EATOM  =   813.3670 eV,   59.7808 Ry                                         
                                                                                
   TITEL  = PAW_PBE Co 02Aug2007                                                
   LULTRA =        F    use ultrasoft PP ?                                      
   IUNSCR =        1    unscreen: 0-lin 1-nonlin 2-no                           
   RPACOR =    2.000    partial core radius                                     
   POMASS =   58.933; ZVAL   =    9.000    mass and valenz                      
   RCORE  =    2.300    outmost cutoff radius                                   
   RWIGS  =    2.460; RWIGS  =    1.302    wigner-seitz radius (au A)           
   ENMAX  =  267.968; ENMIN  =  200.976 eV                                      
   RCLOC  =    1.203    cutoff for local pot                                    
   LCOR   =        T    correct aug charges                                     
   LPAW   =        T    paw PP                                                  
   EAUG   =  477.818                                                            
   DEXC   =    0.000                                                            
   RMAX   =    2.360    core radius for proj-oper                               
   RAUG   =    1.300    factor for augmentation sphere                          
   RDEP   =    2.393    radius for radial grids                                 
   RDEPT  =    1.864    core radius for aug-charge                              
                                                                                
   Atomic configuration                                                         
    9 entries                                                                   
     n  l   j            E        occ.                                          
     1  0  0.50     -7587.6674   2.0000                                         
     2  0  0.50      -893.6084   2.0000                                         
     2  1  1.50      -764.5805   6.0000                                         
     3  0  0.50       -97.5973   2.0000                                         
     3  1  1.50       -60.9648   6.0000                                         
     3  2  2.50        -4.2382   8.0000                                         
     4  0  0.50        -4.3746   1.0000                                         
     4  1  1.50        -4.0817   0.0000                                         
     4  3  2.50        -1.3606   0.0000                                         
   Description                                                                  
     l       E           TYP  RCUT    TYP  RCUT                                 
     2     -4.2382362     23  2.300                                             
     2     -5.5988188     23  2.300                                             
     0     -4.3745797     23  2.300                                             
     0      5.7660125     23  2.300                                             
     1     -2.7211652     23  2.300                                             
     1     16.9860234     23  2.300                                             
  local pseudopotential read in
  partial core-charges read in
  partial kinetic energy density read in
  atomic valenz-charges read in
  non local Contribution for L=           2  read in
    real space projection operators read in
  non local Contribution for L=           2  read in
    real space projection operators read in
  non local Contribution for L=           0  read in
    real space projection operators read in
  non local Contribution for L=           0  read in
    real space projection operators read in
  non local Contribution for L=           1  read in
    real space projection operators read in
  non local Contribution for L=           1  read in
    real space projection operators read in
    PAW grid and wavefunctions read in
 
   number of l-projection  operators is LMAX  =           6
   number of lm-projection operators is LMMAX =          18
 
 POTCAR:    PAW_PBE O 08Apr2002                   
   VRHFIN =O: s2p4                                                              
   LEXCH  = PE                                                                  
   EATOM  =   432.3788 eV,   31.7789 Ry                                         
                                                                                
   TITEL  = PAW_PBE O 08Apr2002                                                 
   LULTRA =        F    use ultrasoft PP ?                                      
   IUNSCR =        1    unscreen: 0-lin 1-nonlin 2-no                           
   RPACOR =    1.200    partial core radius                                     
   POMASS =   16.000; ZVAL   =    6.000    mass and valenz                      
   RCORE  =    1.520    outmost cutoff radius                                   
   RWIGS  =    1.550; RWIGS  =    0.820    wigner-seitz radius (au A)           
   ENMAX  =  400.000; ENMIN  =  300.000 eV                                      
   ICORE  =        2    local potential                                         
   LCOR   =        T    correct aug charges                                     
   LPAW   =        T    paw PP                                                  
   EAUG   =  605.392                                                            
   DEXC   =    0.000                                                            
   RMAX   =    1.553    core radius for proj-oper                               
   RAUG   =    1.300    factor for augmentation sphere                          
   RDEP   =    1.550    radius for radial grids                                 
   RDEPT  =    1.329    core radius for aug-charge                              
                                                                                
   Atomic configuration                                                         
    4 entries                                                                   
     n  l   j            E        occ.                                          
     1  0  0.50      -514.6923   2.0000                                         
     2  0  0.50       -23.9615   2.0000                                         
     2  1  0.50        -9.0305   4.0000                                         
     3  2  1.50        -9.5241   0.0000                                         
   Description                                                                  
     l       E           TYP  RCUT    TYP  RCUT                                 
     0    -23.9615318     23  1.200                                             
     0     -9.5240782     23  1.200                                             
     1     -9.0304911     23  1.520                                             
     1      8.1634956     23  1.520                                             
     2     -9.5240782      7  1.500                                             
  local pseudopotential read in
  partial core-charges read in
  partial kinetic energy density read in
  kinetic energy density of atom read in
  atomic valenz-charges read in
  non local Contribution for L=           0  read in
    real space projection operators read in
  non local Contribution for L=           0  read in
    real space projection operators read in
  non local Contribution for L=           1  read in
    real space projection operators read in
  non local Contribution for L=           1  read in
    real space projection operators read in
    PAW grid and wavefunctions read in
 
   number of l-projection  operators is LMAX  =           4
   number of lm-projection operators is LMMAX =           8
 
 Optimization of the real space projectors (new method)

 maximal supplied QI-value         = 18.33
 optimisation between [QCUT,QGAM] = [ 12.46, 24.93] = [ 43.51,174.03] Ry 
 Optimized for a Real-space Cutoff    1.13 Angstroem

   l    n(q)    QCUT    max X(q) W(low)/X(q) W(high)/X(q)  e(spline) 
   0      8    12.465    33.825    0.12E-03    0.29E-03    0.99E-07
   0      8    12.465     8.944    0.86E-04    0.22E-03    0.72E-07
   1      8    12.465     4.214    0.27E-03    0.11E-03    0.82E-07
 Optimization of the real space projectors (new method)

 maximal supplied QI-value         = 16.25
 optimisation between [QCUT,QGAM] = [ 12.51, 25.03] = [ 43.85,175.40] Ry 
 Optimized for a Real-space Cutoff    1.31 Angstroem

   l    n(q)    QCUT    max X(q) W(low)/X(q) W(high)/X(q)  e(spline) 
   2      9    12.514    65.824    0.30E-03    0.46E-03    0.43E-06
   2      9    12.514    61.429    0.31E-03    0.46E-03    0.44E-06
   0     10    12.514    56.174    0.90E-04    0.33E-03    0.30E-06
   0     10    12.514    31.263    0.81E-04    0.30E-03    0.28E-06
   1      9    12.514    19.828    0.38E-03    0.65E-04    0.24E-06
   1      9    12.514    15.139    0.32E-03    0.60E-04    0.20E-06
 Optimization of the real space projectors (new method)

 maximal supplied QI-value         = 24.76
 optimisation between [QCUT,QGAM] = [ 12.38, 25.00] = [ 42.90,175.06] Ry 
 Optimized for a Real-space Cutoff    1.13 Angstroem

   l    n(q)    QCUT    max X(q) W(low)/X(q) W(high)/X(q)  e(spline) 
   0      8    12.378    20.381    0.16E-03    0.54E-05    0.27E-06
   0      8    12.378    15.268    0.17E-03    0.61E-05    0.29E-06
   1      8    12.378     5.964    0.38E-03    0.23E-03    0.28E-06
   1      8    12.378     5.382    0.33E-03    0.20E-03    0.25E-06
  PAW_PBE Li 17Jan2003                  :
 energy of atom  1       EATOM=   -5.3001
 kinetic energy error for atom=    0.0000 (will be added to EATOM!!)
  PAW_PBE Co 02Aug2007                  :
 energy of atom  2       EATOM= -813.3670
 kinetic energy error for atom=    0.0018 (will be added to EATOM!!)
  PAW_PBE O 08Apr2002                   :
 energy of atom  3       EATOM= -432.3788
 kinetic energy error for atom=    0.0168 (will be added to EATOM!!)
 
 
 POSCAR: Li6 Co12 O24                            
  positions in cartesian coordinates
  No initial velocities read in
 exchange correlation table for  LEXCH =        8
   RHO(1)=    0.500       N(1)  =     2000
   RHO(2)=  100.500       N(2)  =     4000
 


--------------------------------------------------------------------------------------------------------


 ion  position               nearest neighbor table
   1  0.461  0.984  0.996-  36 1.89  23 1.89  37 1.96  24 2.09  38 2.10  25 2.24  15 2.64  16 2.66
                             8 2.68  17 2.74   9 2.89  10 2.90
   2  0.816  0.673  0.339-  33 1.94  34 1.99  22 1.99  19 2.01  32 2.04  20 2.20  14 2.56  12 2.63
                            10 2.65  11 2.71   8 2.82   9 2.84
   3  0.157  0.324  0.670-  27 1.85  39 1.86  28 1.90  42 1.95  40 1.99  29 1.99   6 2.58   4 2.62
                            15 2.65   5 2.67  17 2.70  11 2.75  16 2.78  14 2.81  12 2.84   5 2.84
   4  0.190  0.870  0.650-  27 1.84  28 1.90  41 1.90  30 2.02  39 2.11  40 2.15  13 2.35   5 2.57
                             3 2.62  11 2.63   6 2.69  12 2.70   6 2.81  15 2.83  18 2.92   3 2.93
   5  0.671  0.320  0.658-  29 1.69  41 1.94  27 1.99  30 2.07  40 2.10  42 2.18   6 2.50  13 2.50
                             4 2.57   3 2.67  12 2.70  14 2.74  17 2.74  18 2.81   3 2.84  15 2.91
   6  0.679  0.870  0.657-  29 1.85  28 1.93  39 1.99  30 2.04  41 2.07  42 2.10   5 2.50  13 2.56
                             3 2.58  11 2.61   4 2.69  14 2.73  17 2.79  18 2.79   4 2.81  16 2.92
   7  0.177  0.324  0.167-  24 1.79  19 1.82  22 1.87  25 1.89  23 1.91  20 1.91   8 2.64   9 2.67
                            10 2.73  10 2.79   9 2.83   8 2.87
   8  0.179  0.804  0.172-  26 1.73  20 1.80  21 1.84  23 1.92  24 1.93  19 1.98   7 2.64   1 2.68
                             9 2.68  10 2.71  10 2.79   2 2.82   9 2.83   7 2.87
   9  0.689  0.321  0.172-  26 1.85  25 1.88  21 1.89  22 1.90  20 1.94  23 1.95   7 2.67   8 2.68
                            10 2.75  10 2.76   7 2.83   8 2.83   2 2.84   1 2.89
  10  0.676  0.813  0.166-  21 1.77  24 1.81  25 1.85  22 1.87  19 1.89  26 1.97   2 2.65   8 2.71
                             7 2.73   9 2.75   9 2.76   7 2.79   8 2.79   1 2.90
  11  0.997  0.025  0.496-  32 1.82  30 1.90  34 1.91  27 1.93  31 1.94  29 1.99   6 2.61   4 2.63
                            12 2.69   2 2.71  13 2.72  14 2.75   3 2.75  14 2.77  13 2.79  12 2.82
  12  0.010  0.521  0.494-  31 1.81  33 1.83  30 1.88  32 1.90  29 1.90  28 1.99   2 2.63  11 2.69
                            13 2.70   4 2.70   5 2.70  14 2.73  14 2.77  11 2.82  13 2.83   3 2.84
  13  0.487  0.019  0.508-  33 1.86  32 1.90  29 1.90  27 1.91  34 1.95  28 2.02   4 2.35   5 2.50
                             6 2.56  12 2.70  14 2.71  11 2.72  11 2.79  14 2.81  12 2.83
  14  0.506  0.520  0.498-  31 1.80  34 1.82  27 1.84  30 1.85  33 1.87  28 1.93   2 2.56  13 2.71
                             6 2.73  12 2.73   5 2.74  11 2.75  12 2.77  11 2.77   3 2.81  13 2.81
  15  0.302  0.152  0.835-  39 1.83  36 1.88  41 1.89  35 1.90  37 1.94  42 2.02   1 2.64   3 2.65
                            18 2.68  17 2.69  16 2.75  16 2.76  17 2.82   4 2.83  18 2.83   5 2.91
  16  0.321  0.662  0.836-  35 1.77  36 1.79  38 1.79  40 1.83  42 1.90  41 1.96   1 2.66  17 2.74
                            18 2.74  15 2.75  15 2.76  18 2.76  17 2.78   3 2.78   6 2.92   4 2.95
  17  0.822  0.168  0.834-  37 1.81  38 1.86  35 1.92  39 1.93  40 1.96  41 2.03  15 2.69   3 2.70
                            18 2.73  16 2.74   1 2.74   5 2.74  16 2.78  18 2.78   6 2.79  15 2.82
  18  0.819  0.663  0.827-  38 1.87  42 1.87  40 1.89  39 1.89  37 1.95  36 1.95  15 2.68  17 2.73
                            16 2.74  16 2.76  17 2.78   6 2.79   5 2.81  15 2.83   4 2.92
  19  0.009  0.999  0.241-   7 1.82  10 1.89   8 1.98   2 2.01
  20  0.025  0.494  0.252-   8 1.80   7 1.91   9 1.94   2 2.20
  21  0.515  0.965  0.237-  10 1.77   8 1.84   9 1.89
  22  0.504  0.479  0.242-   7 1.87  10 1.87   9 1.90   2 1.99
  23  0.346  0.150  0.095-   1 1.89   7 1.91   8 1.92   9 1.95
  24  0.357  0.643  0.094-   7 1.79  10 1.81   8 1.93   1 2.09
  25  0.841  0.148  0.093-  10 1.85   9 1.88   7 1.89   1 2.24
  26  0.882  0.654  0.099-   8 1.73   9 1.85  10 1.97
  27  0.326  0.203  0.579-   4 1.84  14 1.84   3 1.85  13 1.91  11 1.93   5 1.99
  28  0.329  0.657  0.588-   4 1.90   3 1.90   6 1.93  14 1.93  12 1.99  13 2.02
  29  0.827  0.198  0.580-   5 1.69   6 1.85  12 1.90  13 1.90   3 1.99  11 1.99
  30  0.837  0.680  0.569-  14 1.85  12 1.88  11 1.90   4 2.02   6 2.04   5 2.07
  31  0.194  0.382  0.424-  14 1.80  12 1.81  11 1.94
  32  0.167  0.872  0.425-  11 1.82  12 1.90  13 1.90   2 2.04
  33  0.673  0.347  0.429-  12 1.83  13 1.86  14 1.87   2 1.94
  34  0.651  0.847  0.425-  14 1.82  11 1.91  13 1.95   2 1.99
  35  0.162  0.347  0.909-  16 1.77  15 1.90  17 1.92
  36  0.156  0.810  0.908-  16 1.79  15 1.88   1 1.89  18 1.95
  37  0.653  0.316  0.907-  17 1.81  15 1.94  18 1.95   1 1.96
  38  0.647  0.821  0.902-  16 1.79  17 1.86  18 1.87   1 2.10
  39  0.995  0.007  0.754-  15 1.83   3 1.86  18 1.89  17 1.93   6 1.99   4 2.11
  40  0.014  0.519  0.755-  16 1.83  18 1.89  17 1.96   3 1.99   5 2.10   4 2.15
  41  0.469  0.002  0.751-  15 1.89   4 1.90   5 1.94  16 1.96  17 2.03   6 2.07
  42  0.491  0.512  0.752-  18 1.87  16 1.90   3 1.95  15 2.02   6 2.10   5 2.18
 

IMPORTANT INFORMATION: All symmetrisations will be switched off!
NOSYMM: (Re-)initialisation of all symmetry stuff for point group C_1.

 
 

Automatic generation of k-mesh.
 generate k-points for:    6    6    2
Space group operators:
 irot       det(A)        alpha          n_x          n_y          n_z        tau_x        tau_y        tau_z
    1     1.000000     0.000000     1.000000     0.000000     0.000000     0.000000     0.000000     0.000000
 
 Subroutine IBZKPT returns following result:
 ===========================================
 
 Found     36 irreducible k-points:
 
 Following reciprocal coordinates:
            Coordinates               Weight
  0.083333  0.083333  0.250000      2.000000
  0.250000  0.083333  0.250000      2.000000
  0.416667  0.083333  0.250000      2.000000
 -0.416667  0.083333  0.250000      2.000000
 -0.250000  0.083333  0.250000      2.000000
 -0.083333  0.083333  0.250000      2.000000
  0.083333  0.250000  0.250000      2.000000
  0.250000  0.250000  0.250000      2.000000
  0.416667  0.250000  0.250000      2.000000
 -0.416667  0.250000  0.250000      2.000000
 -0.250000  0.250000  0.250000      2.000000
 -0.083333  0.250000  0.250000      2.000000
  0.083333  0.416667  0.250000      2.000000
  0.250000  0.416667  0.250000      2.000000
  0.416667  0.416667  0.250000      2.000000
 -0.416667  0.416667  0.250000      2.000000
 -0.250000  0.416667  0.250000      2.000000
 -0.083333  0.416667  0.250000      2.000000
  0.083333 -0.416667  0.250000      2.000000
  0.250000 -0.416667  0.250000      2.000000
  0.416667 -0.416667  0.250000      2.000000
 -0.416667 -0.416667  0.250000      2.000000
 -0.250000 -0.416667  0.250000      2.000000
 -0.083333 -0.416667  0.250000      2.000000
  0.083333 -0.250000  0.250000      2.000000
  0.250000 -0.250000  0.250000      2.000000
  0.416667 -0.250000  0.250000      2.000000
 -0.416667 -0.250000  0.250000      2.000000
 -0.250000 -0.250000  0.250000      2.000000
 -0.083333 -0.250000  0.250000      2.000000
  0.083333 -0.083333  0.250000      2.000000
  0.250000 -0.083333  0.250000      2.000000
  0.416667 -0.083333  0.250000      2.000000
 -0.416667 -0.083333  0.250000      2.000000
 -0.250000 -0.083333  0.250000      2.000000
 -0.083333 -0.083333  0.250000      2.000000
 
 Following cartesian coordinates:
            Coordinates               Weight
  0.015147  0.026172  0.018085      2.000000
  0.045442  0.043622  0.017575      2.000000
  0.075737  0.061071  0.017064      2.000000
 -0.075737 -0.026177  0.019615      2.000000
 -0.045442 -0.008728  0.019105      2.000000
 -0.015147  0.008722  0.018595      2.000000
  0.015147  0.061066  0.017180      2.000000
  0.045442  0.078516  0.016670      2.000000
  0.075737  0.095965  0.016160      2.000000
 -0.075737  0.008717  0.018710      2.000000
 -0.045442  0.026166  0.018200      2.000000
 -0.015147  0.043616  0.017690      2.000000
  0.015147  0.095960  0.016275      2.000000
  0.045442  0.113410  0.015765      2.000000
  0.075737  0.130859  0.015255      2.000000
 -0.075737  0.043611  0.017806      2.000000
 -0.045442  0.061060  0.017296      2.000000
 -0.015147  0.078510  0.016785      2.000000
  0.015147 -0.078510  0.020799      2.000000
  0.045442 -0.061060  0.020289      2.000000
  0.075737 -0.043611  0.019778      2.000000
 -0.075737 -0.130859  0.022329      2.000000
 -0.045442 -0.113410  0.021819      2.000000
 -0.015147 -0.095960  0.021309      2.000000
  0.015147 -0.043616  0.019894      2.000000
  0.045442 -0.026166  0.019384      2.000000
  0.075737 -0.008717  0.018874      2.000000
 -0.075737 -0.095965  0.021424      2.000000
 -0.045442 -0.078516  0.020914      2.000000
 -0.015147 -0.061066  0.020404      2.000000
  0.015147 -0.008722  0.018989      2.000000
  0.045442  0.008728  0.018479      2.000000
  0.075737  0.026177  0.017969      2.000000
 -0.075737 -0.061071  0.020520      2.000000
 -0.045442 -0.043622  0.020009      2.000000
 -0.015147 -0.026172  0.019499      2.000000
 


--------------------------------------------------------------------------------------------------------




 Dimension of arrays:
   k-points           NKPTS =     36   k-points in BZ     NKDIM =     36   number of bands    NBANDS=    160
   number of dos      NEDOS =    301   number of ions     NIONS =     42
   non local maximal  LDIM  =      6   non local SUM 2l+1 LMDIM =     18
   total plane-waves  NPLWV = 103680
   max r-space proj   IRMAX =   2822   max aug-charges    IRDMAX=  11895
   dimension x,y,z NGX =    36 NGY =   36 NGZ =   80
   dimension x,y,z NGXF=    72 NGYF=   72 NGZF=  160
   support grid    NGXF=    72 NGYF=   72 NGZF=  160
   ions per type =               6  12  24
   NGX,Y,Z   is equivalent  to a cutoff of  10.88, 10.86,  9.99 a.u.
   NGXF,Y,Z  is equivalent  to a cutoff of  21.76, 21.72, 19.99 a.u.

 SYSTEM =  LiCoO2                                  
 POSCAR =  Li6 Co12 O24                            

 Startparameter for this run:
   NWRITE =      2    write-flag & timer
   PREC   = normal    normal or accurate (medium, high low for compatibility)
   ISTART =      0    job   : 0-new  1-cont  2-samecut
   ICHARG =      2    charge: 1-file 2-atom 10-const
   ISPIN  =      2    spin polarized calculation?
   LNONCOLLINEAR =      F non collinear calculations
   LSORBIT =      F    spin-orbit coupling
   INIWAV =      1    electr: 0-lowe 1-rand  2-diag
   LASPH  =      F    aspherical Exc in radial PAW
   METAGGA=      F    non-selfconsistent MetaGGA calc.

 Electronic Relaxation 1
   ENCUT  =  600.0 eV  44.10 Ry    6.64 a.u.  10.99 11.01 26.58*2*pi/ulx,y,z
   ENINI  =  600.0     initial cutoff
   ENAUG  =  605.4 eV  augmentation charge cutoff
   NELM   =    600;   NELMIN=  2; NELMDL= -5     # of ELM steps 
   EDIFF  = 0.1E-05   stopping-criterion for ELM
   LREAL  =      T    real-space projection
   NLSPLINE    = F    spline interpolate recip. space projectors
   LCOMPAT=      F    compatible to vasp.4.4
   GGA_COMPAT  = T    GGA compatible to vasp.4.4-vasp.4.6
   LMAXPAW     = -100 max onsite density
   LMAXMIX     =    2 max onsite mixed and CHGCAR
   VOSKOWN=      0    Vosko Wilk Nusair interpolation
   ROPT   =   -0.00050  -0.00050  -0.00050
 Ionic relaxation
   EDIFFG = 0.1E-04   stopping-criterion for IOM
   NSW    =      0    number of steps for IOM
   NBLOCK =      1;   KBLOCK =      1    inner block; outer block 
   IBRION =     -1    ionic relax: 0-MD 1-quasi-New 2-CG
   NFREE  =      0    steps in history (QN), initial steepest desc. (CG)
   ISIF   =      2    stress and relaxation
   IWAVPR =     10    prediction:  0-non 1-charg 2-wave 3-comb
   ISYM   =      0    0-nonsym 1-usesym 2-fastsym
   LCORR  =      T    Harris-Foulkes like correction to forces

   POTIM  = 0.5000    time-step for ionic-motion
   TEIN   =    0.0    initial temperature
   TEBEG  =    0.0;   TEEND  =   0.0 temperature during run
   SMASS  =  -3.00    Nose mass-parameter (am)
   estimated Nose-frequenzy (Omega)   =  0.10E-29 period in steps =****** mass=  -0.692E-27a.u.
   SCALEE = 1.0000    scale energy and forces
   NPACO  =    256;   APACO  = 16.0  distance and # of slots for P.C.
   PSTRESS=    0.0 pullay stress

  Mass of Ions in am
   POMASS =   7.01 58.93 16.00
  Ionic Valenz
   ZVAL   =   1.00  9.00  6.00
  Atomic Wigner-Seitz radii
   RWIGS  =  -1.00 -1.00 -1.00
  virtual crystal weights 
   VCA    =   1.00  1.00  1.00
   NELECT =     258.0000    total number of electrons
   NUPDOWN=       6.0000    fix difference up-down

 DOS related values:
   EMIN   =  10.00;   EMAX   =-10.00  energy-range for DOS
   EFERMI =   0.00
   ISMEAR =     0;   SIGMA  =   0.05  broadening in eV -4-tet -1-fermi 0-gaus

 Electronic relaxation 2 (details)
   IALGO  =     58    algorithm
   LDIAG  =      T    sub-space diagonalisation (order eigenvalues)
   LSUBROT=      F    optimize rotation matrix (better conditioning)
   TURBO    =      0    0=normal 1=particle mesh
   IRESTART =      0    0=no restart 2=restart with 2 vectors
   NREBOOT  =      0    no. of reboots
   NMIN     =      0    reboot dimension
   EREF     =   0.00    reference energy to select bands
   IMIX   =      4    mixing-type and parameters
     AMIX     =   0.40;   BMIX     =  1.00
     AMIX_MAG =   1.60;   BMIX_MAG =  1.00
     AMIN     =   0.10
     WC   =   100.;   INIMIX=   1;  MIXPRE=   1;  MAXMIX= -45

 Intra band minimization:
   WEIMIN = 0.0000     energy-eigenvalue tresh-hold
   EBREAK =  0.16E-08  absolut break condition
   DEPER  =   0.30     relativ break condition  

   TIME   =   0.40     timestep for ELM

  volume/ion in A,a.u.               =       8.32        56.17
  Fermi-wavevector in a.u.,A,eV,Ry     =   1.479449  2.795753 29.780003  2.188768
  Thomas-Fermi vector in A             =   2.593605
 
 Write flags
   LWAVE        =      F    write WAVECAR
   LDOWNSAMPLE  =      F    k-point downsampling of WAVECAR
   LCHARG       =      F    write CHGCAR
   LVTOT        =      F    write LOCPOT, total local potential
   LVHAR        =      F    write LOCPOT, Hartree potential only
   LELF         =      F    write electronic localiz. function (ELF)
   LORBIT       =     11    0 simple, 1 ext, 2 COOP (PROOUT), +10 PAW based schemes


 Dipole corrections
   LMONO  =      F    monopole corrections only (constant potential shift)
   LDIPOL =      F    correct potential (dipole corrections)
   IDIPOL =      0    1-x, 2-y, 3-z, 4-all directions 
   EPSILON=  1.0000000 bulk dielectric constant

 LDA+U is selected, type is set to LDAUTYPE =  2
   angular momentum for each species LDAUL =    -1    2   -1
   U (eV)           for each species LDAUU =   0.0  5.1  0.0
   J (eV)           for each species LDAUJ =   0.0  0.0  0.0
 Exchange correlation treatment:
   GGA     =    --    GGA type
   LEXCH   =     8    internal setting for exchange type
   VOSKOWN=      0    Vosko Wilk Nusair interpolation
   LHFCALC =     F    Hartree Fock is set to
   LHFONE  =     F    Hartree Fock one center treatment
   AEXX    =    0.0000 exact exchange contribution

 Linear response parameters
   LEPSILON=     F    determine dielectric tensor
   LRPA    =     F    only Hartree local field effects (RPA)
   LNABLA  =     F    use nabla operator in PAW spheres
   LVEL    =     F    velocity operator in full k-point grid
   LINTERFAST=   F  fast interpolation
   KINTER  =     0    interpolate to denser k-point grid
   CSHIFT  =0.1000    complex shift for real part using Kramers Kronig
   OMEGAMAX=  -1.0    maximum frequency
   DEG_THRESHOLD= 0.2000000E-02 threshold for treating states as degnerate
   RTIME   =   -0.100 relaxation time in fs
  (WPLASMAI=    0.000 imaginary part of plasma frequency in eV, 0.658/RTIME)
   DFIELD  = 0.0000000 0.0000000 0.0000000 field for delta impulse in time
 
 Orbital magnetization related:
   ORBITALMAG=     F  switch on orbital magnetization
   LCHIMAG   =     F  perturbation theory with respect to B field
   DQ        =  0.001000  dq finite difference perturbation B field
   LLRAUG    =     F  two centre corrections for induced B field



--------------------------------------------------------------------------------------------------------


 Static calculation
 charge density and potential will be updated during run
 spin polarized calculation
 Conjugate gradient for all bands (Freysoldt, et al. PRB 79, 241103 (2009))
 preconditioned conjugated gradient                                        
 perform sub-space diagonalisation
    before iterative eigenvector-optimisation
 modified Broyden-mixing scheme, WC =      100.0
 initial mixing is a Kerker type mixing with AMIX =  0.4000 and BMIX =      1.0000
 Hartree-type preconditioning will be used
 using additional bands           31
 real space projection scheme for non local part
 use partial core corrections
 no Harris-corrections to forces 
 use gradient corrections 
 use of overlap-Matrix (Vanderbilt PP)
 Gauss-broadening in eV      SIGMA  =   0.05


--------------------------------------------------------------------------------------------------------


  energy-cutoff  :      600.00
  volume of cell :      349.58
      direct lattice vectors                 reciprocal lattice vectors
     5.501475811  0.000000000  0.000000000     0.181769408  0.104698338 -0.003060624
    -2.751168966  4.776373386  0.000000000     0.000000000  0.209363866 -0.005427972
     0.025338965  0.344907671 13.303532600     0.000000000  0.000000000  0.075168005

  length of vectors
     5.501475811  5.512048023 13.308027014     0.209788529  0.209434218  0.075168005


 
 k-points in units of 2pi/SCALE and weight: read from INCAR                         
   0.01514745  0.02617185  0.01808462       0.028
   0.04544235  0.04362157  0.01757451       0.028
   0.07573725  0.06107130  0.01706441       0.028
  -0.07573725 -0.02617732  0.01961493       0.028
  -0.04544235 -0.00872760  0.01910483       0.028
  -0.01514745  0.00872213  0.01859472       0.028
   0.01514745  0.06106583  0.01717996       0.028
   0.04544235  0.07851555  0.01666985       0.028
   0.07573725  0.09596527  0.01615975       0.028
  -0.07573725  0.00871666  0.01871027       0.028
  -0.04544235  0.02616638  0.01820016       0.028
  -0.01514745  0.04361611  0.01769006       0.028
   0.01514745  0.09595981  0.01627529       0.028
   0.04544235  0.11340953  0.01576519       0.028
   0.07573725  0.13085925  0.01525509       0.028
  -0.07573725  0.04361064  0.01780561       0.028
  -0.04544235  0.06106036  0.01729550       0.028
  -0.01514745  0.07851008  0.01678540       0.028
   0.01514745 -0.07851008  0.02079860       0.028
   0.04544235 -0.06106036  0.02028850       0.028
   0.07573725 -0.04361064  0.01977840       0.028
  -0.07573725 -0.13085925  0.02232892       0.028
  -0.04544235 -0.11340953  0.02181881       0.028
  -0.01514745 -0.09595981  0.02130871       0.028
   0.01514745 -0.04361611  0.01989394       0.028
   0.04544235 -0.02616638  0.01938384       0.028
   0.07573725 -0.00871666  0.01887373       0.028
  -0.07573725 -0.09596527  0.02142425       0.028
  -0.04544235 -0.07851555  0.02091415       0.028
  -0.01514745 -0.06106583  0.02040405       0.028
   0.01514745 -0.00872213  0.01898928       0.028
   0.04544235  0.00872760  0.01847918       0.028
   0.07573725  0.02617732  0.01796907       0.028
  -0.07573725 -0.06107130  0.02051959       0.028
  -0.04544235 -0.04362157  0.02000949       0.028
  -0.01514745 -0.02617185  0.01949938       0.028
 
 k-points in reciprocal lattice and weights: read from INCAR                         
   0.08333333  0.08333333  0.25000000       0.028
   0.25000000  0.08333333  0.25000000       0.028
   0.41666667  0.08333333  0.25000000       0.028
  -0.41666667  0.08333333  0.25000000       0.028
  -0.25000000  0.08333333  0.25000000       0.028
  -0.08333333  0.08333333  0.25000000       0.028
   0.08333333  0.25000000  0.25000000       0.028
   0.25000000  0.25000000  0.25000000       0.028
   0.41666667  0.25000000  0.25000000       0.028
  -0.41666667  0.25000000  0.25000000       0.028
  -0.25000000  0.25000000  0.25000000       0.028
  -0.08333333  0.25000000  0.25000000       0.028
   0.08333333  0.41666667  0.25000000       0.028
   0.25000000  0.41666667  0.25000000       0.028
   0.41666667  0.41666667  0.25000000       0.028
  -0.41666667  0.41666667  0.25000000       0.028
  -0.25000000  0.41666667  0.25000000       0.028
  -0.08333333  0.41666667  0.25000000       0.028
   0.08333333 -0.41666667  0.25000000       0.028
   0.25000000 -0.41666667  0.25000000       0.028
   0.41666667 -0.41666667  0.25000000       0.028
  -0.41666667 -0.41666667  0.25000000       0.028
  -0.25000000 -0.41666667  0.25000000       0.028
  -0.08333333 -0.41666667  0.25000000       0.028
   0.08333333 -0.25000000  0.25000000       0.028
   0.25000000 -0.25000000  0.25000000       0.028
   0.41666667 -0.25000000  0.25000000       0.028
  -0.41666667 -0.25000000  0.25000000       0.028
  -0.25000000 -0.25000000  0.25000000       0.028
  -0.08333333 -0.25000000  0.25000000       0.028
   0.08333333 -0.08333333  0.25000000       0.028
   0.25000000 -0.08333333  0.25000000       0.028
   0.41666667 -0.08333333  0.25000000       0.028
  -0.41666667 -0.08333333  0.25000000       0.028
  -0.25000000 -0.08333333  0.25000000       0.028
  -0.08333333 -0.08333333  0.25000000       0.028
 
 position of ions in fractional coordinates (direct lattice) 
   0.46091695  0.98371506  0.99620761
   0.81571794  0.67294843  0.33909639
   0.15689146  0.32424745  0.66952139
   0.19008145  0.87031513  0.65020249
   0.67075515  0.31964000  0.65829209
   0.67935557  0.87018076  0.65693530
   0.17650870  0.32374824  0.16684892
   0.17896933  0.80427353  0.17155142
   0.68937143  0.32102681  0.17162884
   0.67588006  0.81332168  0.16604988
   0.99660763  0.02543891  0.49582620
   0.00972646  0.52056395  0.49408080
   0.48664334  0.01870121  0.50766067
   0.50625928  0.51970474  0.49774523
   0.30216834  0.15162305  0.83463399
   0.32100595  0.66188508  0.83631022
   0.82233996  0.16804355  0.83440094
   0.81936761  0.66250096  0.82682396
   0.00895479  0.99854642  0.24133890
   0.02528297  0.49397810  0.25153469
   0.51521672  0.96494647  0.23712274
   0.50409087  0.47878738  0.24236270
   0.34565868  0.15037535  0.09452151
   0.35693145  0.64346984  0.09410583
   0.84117806  0.14750113  0.09312489
   0.88178863  0.65433139  0.09895117
   0.32598245  0.20254518  0.57861473
   0.32931194  0.65652028  0.58828511
   0.82717932  0.19783751  0.58042852
   0.83684278  0.67974875  0.56921346
   0.19368978  0.38244295  0.42367771
   0.16651929  0.87159501  0.42477063
   0.67302933  0.34717413  0.42938067
   0.65132197  0.84734028  0.42520512
   0.16201555  0.34678613  0.90937353
   0.15576727  0.81047549  0.90829107
   0.65285751  0.31642498  0.90724625
   0.64723776  0.82050874  0.90158608
   0.99488748  0.00704190  0.75355026
   0.01430003  0.51874549  0.75477544
   0.46942985  0.00191473  0.75064877
   0.49061731  0.51201762  0.75171610
 
 position of ions in cartesian coordinates  (Angst):
  -0.14540000  5.04219007 13.25308037
   2.64485002  3.33120990  4.51117992
  -0.01196000  1.77964997  8.90699959
  -1.33218002  4.38120985  8.64999008
   2.82744002  1.75376999  8.75761032
   1.36009002  4.38289022  8.73956013
   0.08460000  1.60388994  2.21968007
  -1.22375000  3.90068007  2.28223991
   2.91371012  1.59254003  2.28326988
   1.48495996  3.94199991  2.20904994
   5.42538977  0.29251999  6.59624004
  -1.36612999  2.65682006  6.57301998
   2.63866997  0.26442000  6.75368023
   1.36799002  2.65398002  6.62176991
   1.26637995  1.01207995 11.10358047
  -0.03376000  3.44986010 11.12588024
   4.08291006  1.09043002 11.10048008
   2.70602989  3.44952989 10.99967957
  -2.69179010  4.85267019  3.21065998
  -1.21354997  2.44618011  3.34629989
   0.18573000  4.69073009  3.15457010
   1.46215999  2.37046003  3.22428012
   1.49031997  0.75085002  1.25747001
   0.19574000  3.10591006  1.25194001
   4.22427988  0.73663998  1.23889005
   3.05346990  3.15946007  1.31640005
   1.25081003  1.16700006  7.69761991
   0.02041000  3.33869004  7.82627010
   4.02113009  1.14514005  7.72174978
   2.74818993  3.44305992  7.57254982
   0.02415000  1.97282004  5.63641024
  -1.47104001  4.30956984  5.65094995
   2.75839996  1.80632997  5.71227980
   1.26283002  4.19387007  5.65673017
  -0.03970000  1.97002995 12.09788036
  -1.34978998  4.18441010 12.08347988
   2.74412990  1.82428002 12.06958008
   1.32624996  4.23002005 11.99427986
   5.47307014  0.29354000 10.02488041
  -1.32936001  2.73804998 10.04117966
   2.59630990  0.26804999  9.98628044
   1.30952001  2.70485997 10.00047970
 


--------------------------------------------------------------------------------------------------------


 k-point  1 :   0.0833 0.0833 0.2500  plane waves:   11639
 k-point  2 :   0.2500 0.0833 0.2500  plane waves:   11683
 k-point  3 :   0.4167 0.0833 0.2500  plane waves:   11675
 k-point  4 :  -0.4167 0.0833 0.2500  plane waves:   11687
 k-point  5 :  -0.2500 0.0833 0.2500  plane waves:   11649
 k-point  6 :  -0.0833 0.0833 0.2500  plane waves:   11598
 k-point  7 :   0.0833 0.2500 0.2500  plane waves:   11677
 k-point  8 :   0.2500 0.2500 0.2500  plane waves:   11677
 k-point  9 :   0.4167 0.2500 0.2500  plane waves:   11673
 k-point 10 :  -0.4167 0.2500 0.2500  plane waves:   11674
 k-point 11 :  -0.2500 0.2500 0.2500  plane waves:   11669
 k-point 12 :  -0.0833 0.2500 0.2500  plane waves:   11661
 k-point 13 :   0.0833 0.4167 0.2500  plane waves:   11690
 k-point 14 :   0.2500 0.4167 0.2500  plane waves:   11683
 k-point 15 :   0.4167 0.4167 0.2500  plane waves:   11692
 k-point 16 :  -0.4167 0.4167 0.2500  plane waves:   11667
 k-point 17 :  -0.2500 0.4167 0.2500  plane waves:   11680
 k-point 18 :  -0.0833 0.4167 0.2500  plane waves:   11678
 k-point 19 :   0.0833-0.4167 0.2500  plane waves:   11661
 k-point 20 :   0.2500-0.4167 0.2500  plane waves:   11668
 k-point 21 :   0.4167-0.4167 0.2500  plane waves:   11676
 k-point 22 :  -0.4167-0.4167 0.2500  plane waves:   11681
 k-point 23 :  -0.2500-0.4167 0.2500  plane waves:   11678
 k-point 24 :  -0.0833-0.4167 0.2500  plane waves:   11673
 k-point 25 :   0.0833-0.2500 0.2500  plane waves:   11646
 k-point 26 :   0.2500-0.2500 0.2500  plane waves:   11650
 k-point 27 :   0.4167-0.2500 0.2500  plane waves:   11667
 k-point 28 :  -0.4167-0.2500 0.2500  plane waves:   11675
 k-point 29 :  -0.2500-0.2500 0.2500  plane waves:   11678
 k-point 30 :  -0.0833-0.2500 0.2500  plane waves:   11664
 k-point 31 :   0.0833-0.0833 0.2500  plane waves:   11613
 k-point 32 :   0.2500-0.0833 0.2500  plane waves:   11668
 k-point 33 :   0.4167-0.0833 0.2500  plane waves:   11665
 k-point 34 :  -0.4167-0.0833 0.2500  plane waves:   11692
 k-point 35 :  -0.2500-0.0833 0.2500  plane waves:   11667
 k-point 36 :  -0.0833-0.0833 0.2500  plane waves:   11617

 maximum and minimum number of plane-waves per node :      2953     2887

 maximum number of plane-waves:     11692
 maximum index in each direction: 
   IXMAX=   11   IYMAX=   11   IZMAX=   26
   IXMIN=  -11   IYMIN=  -11   IZMIN=  -26


 real space projection operators:
  total allocation   :       7524.52 KBytes
  max/ min on nodes  :       1886.72       1876.73


 parallel 3D FFT for wavefunctions:
    minimum data exchange during FFTs selected (reduces bandwidth)
 parallel 3D FFT for charge:
    minimum data exchange during FFTs selected (reduces bandwidth)


 total amount of memory used by VASP MPI-rank0   145892. kBytes
=======================================================================

   base      :      30000. kBytes
   nonlr-proj:       4299. kBytes
   fftplans  :       1504. kBytes
   grid      :       4132. kBytes
   one-center:        342. kBytes
   wavefun   :     105615. kBytes
 
     INWAV:  cpu time    0.0000: real time    0.0002
 Broyden mixing: mesh for mixing (old mesh)
   NGX = 21   NGY = 21   NGZ = 53
  (NGX  = 72   NGY  = 72   NGZ  =160)
  gives a total of  23373 points

 initial charge density was supplied:
 charge density of overlapping atoms calculated
 number of electron     258.0000000 magnetization       6.0000000
 keeping initial charge density in first step


--------------------------------------------------------------------------------------------------------


 Maximum index for non-local projection operator          688
 Maximum index for augmentation-charges          944 (set IRDMAX)


--------------------------------------------------------------------------------------------------------


 First call to EWALD:  gamma=   0.252
 Maximum number of real-space cells 4x 4x 2
 Maximum number of reciprocal cells 2x 2x 5

    FEWALD:  cpu time    0.0052: real time    0.0052


--------------------------------------- Iteration      1(   1)  ---------------------------------------


    POTLOK:  cpu time    0.0633: real time    0.0671
    SETDIJ:  cpu time    0.0191: real time    0.0203
    TRIAL :  cpu time   22.1810: real time   22.2647
    CORREC:  cpu time    0.0047: real time    0.0047
    --------------------------------------------
      LOOP:  cpu time   22.4612: real time   22.5518

 eigenvalue-minimisations  : 23040
 total energy-change (2. order) : 0.3555052E+04  (-0.1404219E+05)
 number of electron     258.0000000 magnetization       6.0000000
 augmentation part      258.0000000 magnetization       6.0000000

 Free energy of the ion-electron system (eV)
  ---------------------------------------------------
  alpha Z        PSCENC =       838.62972555
  Ewald energy   TEWEN  =    -15438.91383452
  -Hartree energ DENC   =     -5948.63173996
  -exchange      EXHF   =         0.00000000
  -V(xc)+E(xc)   XCENC  =       849.02961312
  PAW double counting   =     17015.18481625   -17491.61297812
  entropy T*S    EENTRO =        -0.00593756
  eigenvalues    EBANDS =      3562.50181185
  atomic energy  EATOM  =     20168.87094289
  ---------------------------------------------------
  free energy    TOTEN  =      3555.05241950 eV

  energy without entropy =     3555.05835706  energy(sigma->0) =     3555.05538828


--------------------------------------------------------------------------------------------------------




--------------------------------------- Iteration      1(   2)  ---------------------------------------


    TRIAL :  cpu time   22.8359: real time   22.8783
    CORREC:  cpu time    0.0048: real time    0.0048
    --------------------------------------------
      LOOP:  cpu time   22.8448: real time   22.8872

 eigenvalue-minimisations  : 24736
 total energy-change (2. order) :-0.3150476E+04  (-0.2902947E+04)
 number of electron     258.0000000 magnetization       6.0000000
 augmentation part      258.0000000 magnetization       6.0000000

 Free energy of the ion-electron system (eV)
  ---------------------------------------------------
  alpha Z        PSCENC =       838.62972555
  Ewald energy   TEWEN  =    -15438.91383452
  -Hartree energ DENC   =     -5948.63173996
  -exchange      EXHF   =         0.00000000
  -V(xc)+E(xc)   XCENC  =       849.02961312
  PAW double counting   =     17015.18481625   -17491.61297812
  entropy T*S    EENTRO =        -0.02161952
  eigenvalues    EBANDS =       412.04162394
  atomic energy  EATOM  =     20168.87094289
  ---------------------------------------------------
  free energy    TOTEN  =       404.57654963 eV

  energy without entropy =      404.59816915  energy(sigma->0) =      404.58735939


--------------------------------------------------------------------------------------------------------




--------------------------------------- Iteration      1(   3)  ---------------------------------------


    TRIAL :  cpu time   23.0671: real time   23.1019
    CORREC:  cpu time    0.0045: real time    0.0045
    --------------------------------------------
      LOOP:  cpu time   23.0762: real time   23.1110

 eigenvalue-minimisations  : 24720
 total energy-change (2. order) :-0.6258081E+03  (-0.5636798E+03)
 number of electron     258.0000000 magnetization       6.0000000
 augmentation part      258.0000000 magnetization       6.0000000

 Free energy of the ion-electron system (eV)
  ---------------------------------------------------
  alpha Z        PSCENC =       838.62972555
  Ewald energy   TEWEN  =    -15438.91383452
  -Hartree energ DENC   =     -5948.63173996
  -exchange      EXHF   =         0.00000000
  -V(xc)+E(xc)   XCENC  =       849.02961312
  PAW double counting   =     17015.18481625   -17491.61297812
  entropy T*S    EENTRO =        -0.02402029
  eigenvalues    EBANDS =      -213.76409167
  atomic energy  EATOM  =     20168.87094289
  ---------------------------------------------------
  free energy    TOTEN  =      -221.23156675 eV

  energy without entropy =     -221.20754646  energy(sigma->0) =     -221.21955661


--------------------------------------------------------------------------------------------------------




--------------------------------------- Iteration      1(   4)  ---------------------------------------


    TRIAL :  cpu time   23.6814: real time   23.7168
    CORREC:  cpu time    0.0048: real time    0.0048
    --------------------------------------------
      LOOP:  cpu time   23.6904: real time   23.7257

 eigenvalue-minimisations  : 25312
 total energy-change (2. order) :-0.5016307E+02  (-0.4923599E+02)
 number of electron     258.0000000 magnetization       6.0000000
 augmentation part      258.0000000 magnetization       6.0000000

 Free energy of the ion-electron system (eV)
  ---------------------------------------------------
  alpha Z        PSCENC =       838.62972555
  Ewald energy   TEWEN  =    -15438.91383452
  -Hartree energ DENC   =     -5948.63173996
  -exchange      EXHF   =         0.00000000
  -V(xc)+E(xc)   XCENC  =       849.02961312
  PAW double counting   =     17015.18481625   -17491.61297812
  entropy T*S    EENTRO =        -0.02824760
  eigenvalues    EBANDS =      -263.92293676
  atomic energy  EATOM  =     20168.87094289
  ---------------------------------------------------
  free energy    TOTEN  =      -271.39463916 eV

  energy without entropy =     -271.36639156  energy(sigma->0) =     -271.38051536


--------------------------------------------------------------------------------------------------------




--------------------------------------- Iteration      1(   5)  ---------------------------------------


    TRIAL :  cpu time   25.3385: real time   25.4138
    CORREC:  cpu time    0.0056: real time    0.0056
    CHARGE:  cpu time    0.3937: real time    0.3939
    --------------------------------------------
      LOOP:  cpu time   25.7420: real time   25.8175

 eigenvalue-minimisations  : 27872
 total energy-change (2. order) :-0.1573294E+01  (-0.1570553E+01)
 number of electron     257.9999964 magnetization       6.0000010
 augmentation part       68.1457458 magnetization       4.2950746

 Free energy of the ion-electron system (eV)
  ---------------------------------------------------
  alpha Z        PSCENC =       838.62972555
  Ewald energy   TEWEN  =    -15438.91383452
  -Hartree energ DENC   =     -5948.63173996
  -exchange      EXHF   =         0.00000000
  -V(xc)+E(xc)   XCENC  =       849.02961312
  PAW double counting   =     17015.18481625   -17491.61297812
  entropy T*S    EENTRO =        -0.02835015
  eigenvalues    EBANDS =      -265.49612859
  atomic energy  EATOM  =     20168.87094289
  ---------------------------------------------------
  free energy    TOTEN  =      -272.96793353 eV

  energy without entropy =     -272.93958338  energy(sigma->0) =     -272.95375846


--------------------------------------------------------------------------------------------------------




--------------------------------------- Iteration      1(   6)  ---------------------------------------


    POTLOK:  cpu time    0.0428: real time    0.0428
    SETDIJ:  cpu time    0.0133: real time    0.0133
    TRIAL :  cpu time   12.8228: real time   12.8394
    CORREC:  cpu time    4.5605: real time    4.5639
    CHARGE:  cpu time    0.4088: real time    0.4090
    --------------------------------------------
      LOOP:  cpu time   17.8525: real time   17.8726

 eigenvalue-minimisations  :     0
 total energy-change (2. order) : 0.4415153E+03  (-0.2984928E+03)
 number of electron     257.9999979 magnetization       6.0000000
 augmentation part       70.7791106 magnetization       4.4174101

 Free energy of the ion-electron system (eV)
  ---------------------------------------------------
  alpha Z        PSCENC =       838.62972555
  Ewald energy   TEWEN  =    -15438.91383452
  -Hartree energ DENC   =     -5760.21449968
  -exchange      EXHF   =         0.00000000
  -V(xc)+E(xc)   XCENC  =       882.62271921
  PAW double counting   =     24472.78197235   -24685.94884033
  entropy T*S    EENTRO =        -0.05088871
  eigenvalues    EBANDS =      -309.25250792
  atomic energy  EATOM  =     20168.87094289
  ---------------------------------------------------
  free energy    TOTEN  =       168.54732740 eV

  energy without entropy =      168.59821610  energy(sigma->0) =      168.57277175


--------------------------------------------------------------------------------------------------------




--------------------------------------- Iteration      1(   7)  ---------------------------------------


    POTLOK:  cpu time    0.0412: real time    0.0412
    SETDIJ:  cpu time    0.0128: real time    0.0128
    TRIAL :  cpu time   12.7829: real time   12.7912
    CORREC:  cpu time    4.3499: real time    4.3519
    CHARGE:  cpu time    0.3958: real time    0.3959
    --------------------------------------------
      LOOP:  cpu time   17.5869: real time   17.5974

 eigenvalue-minimisations  :     0
 total energy-change (2. order) :-0.6366407E+02  (-0.1953919E+03)
 number of electron     257.9999968 magnetization       5.9999996
 augmentation part       68.4748362 magnetization       3.6967546

 Free energy of the ion-electron system (eV)
  ---------------------------------------------------
  alpha Z        PSCENC =       838.62972555
  Ewald energy   TEWEN  =    -15438.91383452
  -Hartree energ DENC   =     -5729.73451833
  -exchange      EXHF   =         0.00000000
  -V(xc)+E(xc)   XCENC  =       873.57620188
  PAW double counting   =     24526.92850821   -24849.16564412
  entropy T*S    EENTRO =        -0.04583853
  eigenvalues    EBANDS =      -285.25723101
  atomic energy  EATOM  =     20168.87094289
  ---------------------------------------------------
  free energy    TOTEN  =       104.88326184 eV

  energy without entropy =      104.92910037  energy(sigma->0) =      104.90618111


--------------------------------------------------------------------------------------------------------




--------------------------------------- Iteration      1(   8)  ---------------------------------------


    POTLOK:  cpu time    0.0414: real time    0.0414
    SETDIJ:  cpu time    0.0128: real time    0.0129
    TRIAL :  cpu time   12.9169: real time   12.9222
    CORREC:  cpu time    4.4420: real time    4.4457
    CHARGE:  cpu time    0.3871: real time    0.3871
    --------------------------------------------
      LOOP:  cpu time   17.8078: real time   17.8170

 eigenvalue-minimisations  :     0
 total energy-change (2. order) : 0.9099397E+03  (-0.5467702E+04)
 number of electron     257.9999958 magnetization       6.0000000
 augmentation part       75.9521835 magnetization       2.8307058

 Free energy of the ion-electron system (eV)
  ---------------------------------------------------
  alpha Z        PSCENC =       838.62972555
  Ewald energy   TEWEN  =    -15438.91383452
  -Hartree energ DENC   =     -6100.60062713
  -exchange      EXHF   =         0.00000000
  -V(xc)+E(xc)   XCENC  =       862.76570954
  PAW double counting   =     25998.98586339   -26283.92832519
  entropy T*S    EENTRO =        -0.02859495
  eigenvalues    EBANDS =       969.05938214
  atomic energy  EATOM  =     20168.87094289
  ---------------------------------------------------
  free energy    TOTEN  =      1014.82299814 eV

  energy without entropy =     1014.85159309  energy(sigma->0) =     1014.83729561


--------------------------------------------------------------------------------------------------------




--------------------------------------- Iteration      1(   9)  ---------------------------------------


    POTLOK:  cpu time    0.3489: real time    0.3492
    SETDIJ:  cpu time    0.0127: real time    0.0127
    TRIAL :  cpu time   12.2968: real time   12.3019
    CORREC:  cpu time    5.7164: real time    5.7186
    CHARGE:  cpu time    0.4788: real time    0.4789
    --------------------------------------------
      LOOP:  cpu time   18.8584: real time   18.8666

 eigenvalue-minimisations  :     0
 total energy-change (2. order) : 0.2440559E+04  (-0.2776249E+04)
 number of electron     257.9999973 magnetization       6.0000000
 augmentation part       77.5926451 magnetization       3.3799091

 Free energy of the ion-electron system (eV)
  ---------------------------------------------------
  alpha Z        PSCENC =       838.62972555
  Ewald energy   TEWEN  =    -15438.91383452
  -Hartree energ DENC   =     -9641.95020121
  -exchange      EXHF   =         0.00000000
  -V(xc)+E(xc)   XCENC  =       888.34115172
  PAW double counting   =     28464.91221714   -29147.69633081
  entropy T*S    EENTRO =        -0.03566063
  eigenvalues    EBANDS =      7323.21677237
  atomic energy  EATOM  =     20168.87094289
  ---------------------------------------------------
  free energy    TOTEN  =      3455.38184820 eV

  energy without entropy =     3455.41750883  energy(sigma->0) =     3455.39967851


--------------------------------------------------------------------------------------------------------




--------------------------------------- Iteration      1(  10)  ---------------------------------------


    POTLOK:  cpu time    0.0508: real time    0.0509
    SETDIJ:  cpu time    0.0175: real time    0.0175
    TRIAL :  cpu time   13.3951: real time   13.4031
    CORREC:  cpu time    4.5772: real time    4.5795
    CHARGE:  cpu time    0.3959: real time    0.3961
    --------------------------------------------
      LOOP:  cpu time   18.4444: real time   18.4549

 eigenvalue-minimisations  :     0
 total energy-change (2. order) :-0.1501810E+04  (-0.7135193E+04)
 number of electron     257.9999982 magnetization       5.9999999
 augmentation part       85.9166075 magnetization       1.9947816

 Free energy of the ion-electron system (eV)
  ---------------------------------------------------
  alpha Z        PSCENC =       838.62972555
  Ewald energy   TEWEN  =    -15438.91383452
  -Hartree energ DENC   =     -7550.88792337
  -exchange      EXHF   =         0.00000000
  -V(xc)+E(xc)   XCENC  =       867.04502175
  PAW double counting   =     31037.72964710   -31679.34620018
  entropy T*S    EENTRO =        -0.01803474
  eigenvalues    EBANDS =      3710.48012917
  atomic energy  EATOM  =     20168.87094289
  ---------------------------------------------------
  free energy    TOTEN  =      1953.57184777 eV

  energy without entropy =     1953.58988251  energy(sigma->0) =     1953.58086514


--------------------------------------------------------------------------------------------------------




--------------------------------------- Iteration      1(  11)  ---------------------------------------


    POTLOK:  cpu time    0.0417: real time    0.0417
    SETDIJ:  cpu time    0.0125: real time    0.0132
    TRIAL :  cpu time   12.7199: real time   12.7247
    CORREC:  cpu time    4.2827: real time    4.2858
    CHARGE:  cpu time    0.3956: real time    0.3956
    --------------------------------------------
      LOOP:  cpu time   17.4567: real time   17.4655

 eigenvalue-minimisations  :     0
 total energy-change (2. order) : 0.4735331E+04  (-0.3336875E+04)
 number of electron     257.9999968 magnetization       5.9999999
 augmentation part       74.3896560 magnetization       3.8349023

 Free energy of the ion-electron system (eV)
  ---------------------------------------------------
  alpha Z        PSCENC =       838.62972555
  Ewald energy   TEWEN  =    -15438.91383452
  -Hartree energ DENC   =    -13602.32346750
  -exchange      EXHF   =         0.00000000
  -V(xc)+E(xc)   XCENC  =       908.80307629
  PAW double counting   =     34084.02512073   -35114.47654576
  entropy T*S    EENTRO =        -0.02132698
  eigenvalues    EBANDS =     14844.30580244
  atomic energy  EATOM  =     20168.87094289
  ---------------------------------------------------
  free energy    TOTEN  =      6688.90278538 eV

  energy without entropy =     6688.92411237  energy(sigma->0) =     6688.91344888


--------------------------------------------------------------------------------------------------------




--------------------------------------- Iteration      1(  12)  ---------------------------------------


    POTLOK:  cpu time    0.0420: real time    0.0420
    SETDIJ:  cpu time    0.0128: real time    0.0128
    TRIAL :  cpu time   12.7780: real time   12.7836
    CORREC:  cpu time    4.3403: real time    4.3441
    CHARGE:  cpu time    0.3938: real time    0.3941
    --------------------------------------------
      LOOP:  cpu time   17.5713: real time   17.5810

 eigenvalue-minimisations  :     0
 total energy-change (2. order) :-0.2077609E+04  (-0.3137826E+04)
 number of electron     257.9999980 magnetization       5.9999997
 augmentation part       72.2557659 magnetization       2.7002513

 Free energy of the ion-electron system (eV)
  ---------------------------------------------------
  alpha Z        PSCENC =       838.62972555
  Ewald energy   TEWEN  =    -15438.91383452
  -Hartree energ DENC   =     -9671.59161549
  -exchange      EXHF   =         0.00000000
  -V(xc)+E(xc)   XCENC  =       890.56262824
  PAW double counting   =     38203.26403212   -38896.80310083
  entropy T*S    EENTRO =        -0.02189839
  eigenvalues    EBANDS =      8517.29657037
  atomic energy  EATOM  =     20168.87094289
  ---------------------------------------------------
  free energy    TOTEN  =      4611.29402135 eV

  energy without entropy =     4611.31591974  energy(sigma->0) =     4611.30497054


--------------------------------------------------------------------------------------------------------




--------------------------------------- Iteration      1(  13)  ---------------------------------------


    POTLOK:  cpu time    0.0409: real time    0.0409
    SETDIJ:  cpu time    0.0128: real time    0.0128
    TRIAL :  cpu time   13.0483: real time   13.0626
    CORREC:  cpu time    4.5646: real time    4.5682
    CHARGE:  cpu time    0.3913: real time    0.3916
    --------------------------------------------
      LOOP:  cpu time   18.0622: real time   18.0805

 eigenvalue-minimisations  :     0
 total energy-change (2. order) :-0.1935134E+03  (-0.4290061E+04)
 number of electron     257.9999982 magnetization       6.0000003
 augmentation part       69.2738816 magnetization       3.8311968

 Free energy of the ion-electron system (eV)
  ---------------------------------------------------
  alpha Z        PSCENC =       838.62972555
  Ewald energy   TEWEN  =    -15438.91383452
  -Hartree energ DENC   =     -8629.40445566
  -exchange      EXHF   =         0.00000000
  -V(xc)+E(xc)   XCENC  =       874.33961068
  PAW double counting   =     39292.19955544   -39944.81377642
  entropy T*S    EENTRO =        -0.01868669
  eigenvalues    EBANDS =      7256.89476589
  atomic energy  EATOM  =     20168.87094289
  ---------------------------------------------------
  free energy    TOTEN  =      4417.78063546 eV

  energy without entropy =     4417.79932215  energy(sigma->0) =     4417.78997881


--------------------------------------------------------------------------------------------------------




--------------------------------------- Iteration      1(  14)  ---------------------------------------


    POTLOK:  cpu time    0.0409: real time    0.0410
    SETDIJ:  cpu time    0.0130: real time    0.0130
    TRIAL :  cpu time   12.6552: real time   12.6670
    CORREC:  cpu time    4.7037: real time    4.7079
    CHARGE:  cpu time    0.3955: real time    0.3959
    --------------------------------------------
      LOOP:  cpu time   17.8129: real time   17.8293

 eigenvalue-minimisations  :     0
 total energy-change (2. order) :-0.2657484E+04  (-0.1664670E+04)
 number of electron     257.9999976 magnetization       5.9999998
 augmentation part       71.6648321 magnetization       3.7068568

 Free energy of the ion-electron system (eV)
  ---------------------------------------------------
  alpha Z        PSCENC =       838.62972555
  Ewald energy   TEWEN  =    -15438.91383452
  -Hartree energ DENC   =     -5426.64581584
  -exchange      EXHF   =         0.00000000
  -V(xc)+E(xc)   XCENC  =       829.45115182
  PAW double counting   =     39501.93334359   -40001.65858683
  entropy T*S    EENTRO =        -0.01867975
  eigenvalues    EBANDS =      1288.64833921
  atomic energy  EATOM  =     20168.87094289
  ---------------------------------------------------
  free energy    TOTEN  =      1760.29657919 eV

  energy without entropy =     1760.31525893  energy(sigma->0) =     1760.30591906


--------------------------------------------------------------------------------------------------------




--------------------------------------- Iteration      1(  15)  ---------------------------------------


    POTLOK:  cpu time    0.0441: real time    0.0441
    SETDIJ:  cpu time    0.0127: real time    0.0127
    TRIAL :  cpu time   12.5298: real time   12.5412
    CORREC:  cpu time    4.3189: real time    4.3224
    CHARGE:  cpu time    0.5763: real time    0.5766
    --------------------------------------------
      LOOP:  cpu time   17.4862: real time   17.5014

 eigenvalue-minimisations  :     0
 total energy-change (2. order) : 0.5458614E+03  (-0.3101716E+04)
 number of electron     257.9999980 magnetization       5.9999998
 augmentation part       72.2684222 magnetization       2.9976146

 Free energy of the ion-electron system (eV)
  ---------------------------------------------------
  alpha Z        PSCENC =       838.62972555
  Ewald energy   TEWEN  =    -15438.91383452
  -Hartree energ DENC   =     -6320.03120433
  -exchange      EXHF   =         0.00000000
  -V(xc)+E(xc)   XCENC  =       829.10021197
  PAW double counting   =     41389.41925703   -41970.45707784
  entropy T*S    EENTRO =        -0.01359429
  eigenvalues    EBANDS =      2809.55868723
  atomic energy  EATOM  =     20168.87094289
  ---------------------------------------------------
  free energy    TOTEN  =      2306.15802823 eV

  energy without entropy =     2306.17162252  energy(sigma->0) =     2306.16482538


--------------------------------------------------------------------------------------------------------




--------------------------------------- Iteration      1(  16)  ---------------------------------------


    POTLOK:  cpu time    0.0426: real time    0.0426
    SETDIJ:  cpu time    0.0128: real time    0.0129
    TRIAL :  cpu time   12.3533: real time   12.3647
    CORREC:  cpu time    4.4358: real time    4.4397
    CHARGE:  cpu time    0.3869: real time    0.3871
    --------------------------------------------
      LOOP:  cpu time   17.2356: real time   17.2511

 eigenvalue-minimisations  :     0
 total energy-change (2. order) : 0.1037691E+04  (-0.4286259E+04)
 number of electron     257.9999971 magnetization       6.0000000
 augmentation part       73.3222098 magnetization       2.5867354

 Free energy of the ion-electron system (eV)
  ---------------------------------------------------
  alpha Z        PSCENC =       838.62972555
  Ewald energy   TEWEN  =    -15438.91383452
  -Hartree energ DENC   =     -7183.05703819
  -exchange      EXHF   =         0.00000000
  -V(xc)+E(xc)   XCENC  =       838.00915505
  PAW double counting   =     39585.28034397   -40205.99437639
  entropy T*S    EENTRO =        -0.01542521
  eigenvalues    EBANDS =      4741.03741950
  atomic energy  EATOM  =     20168.87094289
  ---------------------------------------------------
  free energy    TOTEN  =      3343.84874357 eV

  energy without entropy =     3343.86416877  energy(sigma->0) =     3343.85645617


--------------------------------------------------------------------------------------------------------




--------------------------------------- Iteration      1(  17)  ---------------------------------------


    POTLOK:  cpu time    0.0416: real time    0.0416
    SETDIJ:  cpu time    0.0128: real time    0.0128
    TRIAL :  cpu time   12.8506: real time   12.8625
    CORREC:  cpu time    4.3827: real time    4.3868
    CHARGE:  cpu time    0.3826: real time    0.3828
    --------------------------------------------
      LOOP:  cpu time   17.6746: real time   17.6909

 eigenvalue-minimisations  :     0
 total energy-change (2. order) :-0.2779829E+03  (-0.2210743E+04)
 number of electron     257.9999982 magnetization       6.0000000
 augmentation part       75.4439954 magnetization       3.4370005

 Free energy of the ion-electron system (eV)
  ---------------------------------------------------
  alpha Z        PSCENC =       838.62972555
  Ewald energy   TEWEN  =    -15438.91383452
  -Hartree energ DENC   =     -7372.42577033
  -exchange      EXHF   =         0.00000000
  -V(xc)+E(xc)   XCENC  =       829.47160283
  PAW double counting   =     41840.73574089   -42479.78746394
  entropy T*S    EENTRO =        -0.02301902
  eigenvalues    EBANDS =      4679.30028005
  atomic energy  EATOM  =     20168.87094289
  ---------------------------------------------------
  free energy    TOTEN  =      3065.86579823 eV

  energy without entropy =     3065.88881725  energy(sigma->0) =     3065.87730774


--------------------------------------------------------------------------------------------------------




--------------------------------------- Iteration      1(  18)  ---------------------------------------


    POTLOK:  cpu time    0.0425: real time    0.0425
    SETDIJ:  cpu time    0.0128: real time    0.0128
    TRIAL :  cpu time   12.5423: real time   12.5530
    CORREC:  cpu time    4.4538: real time    4.4579
    CHARGE:  cpu time    0.4020: real time    0.4022
    --------------------------------------------
      LOOP:  cpu time   17.4579: real time   17.4728

 eigenvalue-minimisations  :     0
 total energy-change (2. order) :-0.1720973E+04  (-0.1621280E+04)
 number of electron     257.9999973 magnetization       6.0000000
 augmentation part       76.3189076 magnetization       3.4576555

 Free energy of the ion-electron system (eV)
  ---------------------------------------------------
  alpha Z        PSCENC =       838.62972555
  Ewald energy   TEWEN  =    -15438.91383452
  -Hartree energ DENC   =     -5704.05568187
  -exchange      EXHF   =         0.00000000
  -V(xc)+E(xc)   XCENC  =       823.60210172
  PAW double counting   =     37933.97391226   -38559.62804607
  entropy T*S    EENTRO =        -0.02062139
  eigenvalues    EBANDS =      1282.43704053
  atomic energy  EATOM  =     20168.87094289
  ---------------------------------------------------
  free energy    TOTEN  =      1344.89314147 eV

  energy without entropy =     1344.91376286  energy(sigma->0) =     1344.90345216


--------------------------------------------------------------------------------------------------------




--------------------------------------- Iteration      1(  19)  ---------------------------------------


    POTLOK:  cpu time    0.0417: real time    0.0418
    SETDIJ:  cpu time    0.0128: real time    0.0128
    TRIAL :  cpu time   12.3033: real time   12.3151
    CORREC:  cpu time    4.6799: real time    4.6845
    CHARGE:  cpu time    0.4006: real time    0.4010
    --------------------------------------------
      LOOP:  cpu time   17.4426: real time   17.4595

 eigenvalue-minimisations  :     0
 total energy-change (2. order) : 0.6347730E+02  (-0.1605522E+04)
 number of electron     257.9999983 magnetization       6.0000000
 augmentation part       75.8882839 magnetization       3.4611729

 Free energy of the ion-electron system (eV)
  ---------------------------------------------------
  alpha Z        PSCENC =       838.62972555
  Ewald energy   TEWEN  =    -15438.91383452
  -Hartree energ DENC   =     -6154.88928804
  -exchange      EXHF   =         0.00000000
  -V(xc)+E(xc)   XCENC  =       827.85200861
  PAW double counting   =     38769.67809619   -39420.22728833
  entropy T*S    EENTRO =        -0.02320326
  eigenvalues    EBANDS =      1817.39070347
  atomic energy  EATOM  =     20168.87094289
  ---------------------------------------------------
  free energy    TOTEN  =      1408.37044444 eV

  energy without entropy =     1408.39364770  energy(sigma->0) =     1408.38204607


--------------------------------------------------------------------------------------------------------




--------------------------------------- Iteration      1(  20)  ---------------------------------------


    POTLOK:  cpu time    0.0417: real time    0.0417
    SETDIJ:  cpu time    0.0129: real time    0.0129
    TRIAL :  cpu time   14.4509: real time   14.4657
    CORREC:  cpu time    4.5230: real time    4.5274
    CHARGE:  cpu time    0.5965: real time    0.5968
    --------------------------------------------
      LOOP:  cpu time   19.6294: real time   19.6494

 eigenvalue-minimisations  :     0
 total energy-change (2. order) :-0.3345345E+03  (-0.1052586E+04)
 number of electron     257.9999975 magnetization       6.0000001
 augmentation part       76.5244090 magnetization       3.4701247

 Free energy of the ion-electron system (eV)
  ---------------------------------------------------
  alpha Z        PSCENC =       838.62972555
  Ewald energy   TEWEN  =    -15438.91383452
  -Hartree energ DENC   =     -5686.35185758
  -exchange      EXHF   =         0.00000000
  -V(xc)+E(xc)   XCENC  =       828.73476452
  PAW double counting   =     36199.74751485   -36817.93492706
  entropy T*S    EENTRO =        -0.02014928
  eigenvalues    EBANDS =       981.07686784
  atomic energy  EATOM  =     20168.87094289
  ---------------------------------------------------
  free energy    TOTEN  =      1073.83599322 eV

  energy without entropy =     1073.85614250  energy(sigma->0) =     1073.84606786


--------------------------------------------------------------------------------------------------------




--------------------------------------- Iteration      1(  21)  ---------------------------------------


    POTLOK:  cpu time    0.0418: real time    0.0418
    SETDIJ:  cpu time    0.0127: real time    0.0127
    TRIAL :  cpu time   12.7065: real time   12.7251
    CORREC:  cpu time    4.2534: real time    4.2586
    CHARGE:  cpu time    0.3794: real time    0.3796
    --------------------------------------------
      LOOP:  cpu time   17.3980: real time   17.4219

 eigenvalue-minimisations  :     0
 total energy-change (2. order) :-0.2032345E+03  (-0.5313334E+03)
 number of electron     257.9999981 magnetization       6.0000001
 augmentation part       76.4120076 magnetization       3.2812067

 Free energy of the ion-electron system (eV)
  ---------------------------------------------------
  alpha Z        PSCENC =       838.62972555
  Ewald energy   TEWEN  =    -15438.91383452
  -Hartree energ DENC   =     -5784.97994927
  -exchange      EXHF   =         0.00000000
  -V(xc)+E(xc)   XCENC  =       830.39980145
  PAW double counting   =     36500.36754238   -37129.69594582
  entropy T*S    EENTRO =        -0.01652802
  eigenvalues    EBANDS =       885.94337308
  atomic energy  EATOM  =     20168.87094289
  ---------------------------------------------------
  free energy    TOTEN  =       870.60150646 eV

  energy without entropy =      870.61803447  energy(sigma->0) =      870.60977047


--------------------------------------------------------------------------------------------------------




--------------------------------------- Iteration      1(  22)  ---------------------------------------


    POTLOK:  cpu time    0.0412: real time    0.0412
    SETDIJ:  cpu time    0.0127: real time    0.0128
    TRIAL :  cpu time   12.5192: real time   12.5310
    CORREC:  cpu time    4.3766: real time    4.3802
    CHARGE:  cpu time    0.4446: real time    0.4449
    --------------------------------------------
      LOOP:  cpu time   17.3988: real time   17.4145

 eigenvalue-minimisations  :     0
 total energy-change (2. order) :-0.3377899E+03  (-0.7934402E+02)
 number of electron     257.9999979 magnetization       6.0000001
 augmentation part       76.3849754 magnetization       3.3846442

 Free energy of the ion-electron system (eV)
  ---------------------------------------------------
  alpha Z        PSCENC =       838.62972555
  Ewald energy   TEWEN  =    -15438.91383452
  -Hartree energ DENC   =     -5412.95296209
  -exchange      EXHF   =         0.00000000
  -V(xc)+E(xc)   XCENC  =       829.91377226
  PAW double counting   =     34956.21354062   -35562.95654052
  entropy T*S    EENTRO =        -0.02088528
  eigenvalues    EBANDS =       154.02351573
  atomic energy  EATOM  =     20168.87094289
  ---------------------------------------------------
  free energy    TOTEN  =       532.81163190 eV

  energy without entropy =      532.83251717  energy(sigma->0) =      532.82207454


--------------------------------------------------------------------------------------------------------




--------------------------------------- Iteration      1(  23)  ---------------------------------------


    POTLOK:  cpu time    0.0411: real time    0.0411
    SETDIJ:  cpu time    0.0128: real time    0.0128
    TRIAL :  cpu time   13.1535: real time   13.1719
    CORREC:  cpu time    4.4221: real time    4.4266
    CHARGE:  cpu time    0.3786: real time    0.3788
    --------------------------------------------
      LOOP:  cpu time   18.0123: real time   18.0353

 eigenvalue-minimisations  :     0
 total energy-change (2. order) :-0.8488073E+02  (-0.1781372E+03)
 number of electron     257.9999984 magnetization       6.0000001
 augmentation part       75.9116647 magnetization       3.7545061

 Free energy of the ion-electron system (eV)
  ---------------------------------------------------
  alpha Z        PSCENC =       838.62972555
  Ewald energy   TEWEN  =    -15438.91383452
  -Hartree energ DENC   =     -5466.75050934
  -exchange      EXHF   =         0.00000000
  -V(xc)+E(xc)   XCENC  =       832.74714234
  PAW double counting   =     34169.60165118   -34767.93045716
  entropy T*S    EENTRO =        -0.01588669
  eigenvalues    EBANDS =       111.69712890
  atomic energy  EATOM  =     20168.87094289
  ---------------------------------------------------
  free energy    TOTEN  =       447.93090456 eV

  energy without entropy =      447.94679125  energy(sigma->0) =      447.93884790


--------------------------------------------------------------------------------------------------------




--------------------------------------- Iteration      1(  24)  ---------------------------------------


    POTLOK:  cpu time    0.0505: real time    0.0506
    SETDIJ:  cpu time    0.0127: real time    0.0127
    TRIAL :  cpu time   13.0296: real time   13.0413
    CORREC:  cpu time    4.4581: real time    4.4615
    CHARGE:  cpu time    0.3889: real time    0.3889
    --------------------------------------------
      LOOP:  cpu time   17.9443: real time   17.9596

 eigenvalue-minimisations  :     0
 total energy-change (2. order) :-0.1915802E+03  (-0.4499838E+02)
 number of electron     257.9999984 magnetization       6.0000001
 augmentation part       75.8570229 magnetization       3.7637803

 Free energy of the ion-electron system (eV)
  ---------------------------------------------------
  alpha Z        PSCENC =       838.62972555
  Ewald energy   TEWEN  =    -15438.91383452
  -Hartree energ DENC   =     -5704.92508083
  -exchange      EXHF   =         0.00000000
  -V(xc)+E(xc)   XCENC  =       846.88079434
  PAW double counting   =     29817.97227254   -30363.10479810
  entropy T*S    EENTRO =        -0.01626628
  eigenvalues    EBANDS =        90.95657501
  atomic energy  EATOM  =     20168.87094289
  ---------------------------------------------------
  free energy    TOTEN  =       256.35071019 eV

  energy without entropy =      256.36697647  energy(sigma->0) =      256.35884333


--------------------------------------------------------------------------------------------------------




--------------------------------------- Iteration      1(  25)  ---------------------------------------


    POTLOK:  cpu time    0.0414: real time    0.0414
    SETDIJ:  cpu time    0.0128: real time    0.0128
    TRIAL :  cpu time   12.5595: real time   12.5727
    CORREC:  cpu time    4.6284: real time    4.6302
    CHARGE:  cpu time    0.3827: real time    0.3827
    --------------------------------------------
      LOOP:  cpu time   17.6292: real time   17.6449

 eigenvalue-minimisations  :     0
[...]
   20        1.585   3.380   0.000   4.965
   21        1.589   3.396   0.000   4.984
   22        1.578   3.412   0.000   4.989
   23        1.575   3.396   0.000   4.971
   24        1.579   3.433   0.000   5.012
   25        1.579   3.399   0.000   4.978
   26        1.587   3.403   0.000   4.990
   27        1.558   3.545   0.000   5.103
   28        1.564   3.480   0.000   5.043
   29        1.558   3.543   0.000   5.101
   30        1.559   3.517   0.000   5.075
   31        1.585   3.384   0.000   4.969
   32        1.578   3.403   0.000   4.980
   33        1.575   3.428   0.000   5.003
   34        1.573   3.412   0.000   4.985
   35        1.589   3.362   0.000   4.951
   36        1.576   3.432   0.000   5.008
   37        1.576   3.402   0.000   4.978
   38        1.578   3.428   0.000   5.005
   39        1.560   3.520   0.000   5.080
   40        1.567   3.478   0.000   5.046
   41        1.563   3.476   0.000   5.039
   42        1.565   3.464   0.000   5.029
--------------------------------------------------
tot         44.116  93.228  88.325 225.669
 


 magnetization (x)
 
# of ion       s       p       d       tot
------------------------------------------
    1        0.001   0.001   0.000   0.002
    2        0.000   0.000   0.000   0.001
    3        0.000   0.000   0.000   0.001
    4        0.001   0.000   0.000   0.001
    5        0.000  -0.001   0.000  -0.000
    6       -0.000  -0.001   0.000  -0.001
    7        0.004   0.005  -0.026  -0.017
    8        0.013   0.016   1.237   1.266
    9        0.015   0.019   1.376   1.410
   10        0.012   0.015   1.212   1.239
   11        0.002   0.001  -0.015  -0.012
   12        0.009   0.006   1.308   1.323
   13        0.001   0.001  -0.004  -0.002
   14        0.001   0.001  -0.085  -0.083
   15        0.003   0.005  -0.009  -0.001
   16        0.008   0.010   1.121   1.139
   17        0.013   0.011   1.616   1.640
   18        0.003   0.004  -0.009  -0.002
   19        0.000  -0.127   0.000  -0.127
   20        0.001  -0.107   0.000  -0.106
   21        0.002  -0.106   0.000  -0.105
   22        0.000  -0.093   0.000  -0.093
   23        0.000  -0.121   0.000  -0.121
   24        0.001  -0.094   0.000  -0.093
   25        0.001  -0.100   0.000  -0.100
   26        0.002  -0.087   0.000  -0.085
   27       -0.001  -0.012   0.000  -0.012
   28        0.001  -0.028   0.000  -0.028
   29        0.001  -0.016   0.000  -0.015
   30        0.001  -0.020   0.000  -0.020
   31       -0.000  -0.077   0.000  -0.077
   32        0.000  -0.089   0.000  -0.089
   33        0.000  -0.090   0.000  -0.090
   34       -0.001  -0.036   0.000  -0.037
   35        0.002  -0.133   0.000  -0.132
   36        0.000  -0.031   0.000  -0.031
   37        0.000  -0.083   0.000  -0.083
   38        0.001  -0.089   0.000  -0.088
   39        0.001  -0.022   0.000  -0.022
   40        0.001  -0.058   0.000  -0.056
   41        0.002  -0.047   0.000  -0.045
   42        0.000  -0.020   0.000  -0.020
--------------------------------------------------
tot          0.103  -1.596   7.721   6.228
 
    FORLOC:  cpu time    0.0078: real time    0.0078
    FORNL :  cpu time    3.8305: real time    3.8653
    STRESS:  cpu time   11.4906: real time   11.5904
    FORCOR:  cpu time    0.0439: real time    0.0442
    OFIELD:  cpu time    0.0004: real time    0.0004

  DFT-D2 method for vdW energy calculation
  -------------------------------------------------------------------

  Parameters of vdW forcefield:
         C6(Jnm^6/mol)     R0(A)
   -----------------------------
   Li       1.610          0.825
   Co      10.800          1.562
   O        0.700          1.342

  IVDW =   1
  VDW_RADIUS =    50.000 A
  VDW_S6 =     0.750
  VDW_SR =     1.000
  VDW_D =    20.000
  LVDW_EWALD = F

  Number of pair interactions contributing to vdW energy: 1352871
  Edisp (eV):  -11.04732
    FORVDW:  cpu time    0.1892: real time    0.1905

  FORCE on cell =-STRESS in cart. coord.  units (eV):
  Direction    XX          YY          ZZ          XY          YZ          ZX
  --------------------------------------------------------------------------------------
  Alpha Z   838.62973   838.62973   838.62973
  Ewald   -2976.94494 -2970.61409 -9491.42281    39.46580   -16.75962    18.46552
  Hartree  3493.22993  3488.30484 -1097.13139    17.10859    -9.72890     9.94268
  E(xc)   -1291.73829 -1291.88101 -1291.81236     0.00379     0.03600    -0.00605
  Local   -5562.18565 -5568.67240  5512.40566   -56.89008    27.42248   -31.16048
  n-local  -583.75856  -584.92410  -589.50422     0.90890    -0.29026     0.71932
  augment  2019.87924  2024.20912  1993.43680     0.95390    -0.80733     1.36774
  Kinetic  4097.71290  4099.00820  4157.43832     0.34113    -1.36792     3.10828
  Fock        0.00000     0.00000     0.00000     0.00000     0.00000     0.00000
  vdW        -7.66923    -7.79556   -15.02402     0.15024    -0.27936    -0.24357
  -------------------------------------------------------------------------------------
  Total      27.15512    26.26472    17.01571     2.04226    -1.77490     2.19345
  in kB     124.45656   120.37570    77.98591     9.36001    -8.13466    10.05298
  external pressure =      107.61 kB  Pullay stress =        0.00 kB


 VOLUME and BASIS-vectors are now :
 -----------------------------------------------------------------------------
  energy-cutoff  :      600.00
  volume of cell :      349.58
      direct lattice vectors                 reciprocal lattice vectors
     5.501475811  0.000000000  0.000000000     0.181769408  0.104698338 -0.003060624
    -2.751168966  4.776373386  0.000000000     0.000000000  0.209363866 -0.005427972
     0.025338965  0.344907671 13.303532600     0.000000000  0.000000000  0.075168005

  length of vectors
     5.501475811  5.512048023 13.308027014     0.209788529  0.209434218  0.075168005


 FORCES acting on ions:
    Electron-Ion                     Ewald-Force                    Non-Local-Force
 -----------------------------------------------------------------------------------------------
   -.398E+01 -.129E+01 -.823E+01   0.347E+01 0.155E+01 0.849E+01   0.103E+01 -.219E+00 0.302E+00
   -.130E+01 -.607E+00 0.110E+02   0.996E+00 0.747E+00 -.110E+02   0.334E+00 0.614E-01 -.282E+00
   0.365E+01 0.247E+01 -.242E+01   -.324E+01 -.214E+01 0.192E+01   -.482E+00 0.260E+00 0.241E+00
   0.574E+01 0.363E+01 -.119E+02   -.550E+01 -.361E+01 0.120E+02   -.920E+00 -.835E+00 0.809E+00
   0.343E+01 -.624E+01 -.151E+02   -.332E+01 0.607E+01 0.147E+02   -.154E+01 0.154E+01 0.160E+01
   -.348E+01 0.686E+00 -.987E+01   0.333E+01 -.985E+00 0.970E+01   0.316E+00 -.647E+00 0.755E+00
   -.961E+01 0.341E+02 0.516E+02   0.111E+02 -.361E+02 -.513E+02   -.520E+00 0.347E+00 0.264E+00
   0.124E+02 -.648E+02 0.591E+01   -.121E+02 0.677E+02 -.517E+01   0.363E+00 0.160E+00 -.147E+00
   0.312E+02 0.109E+02 0.501E+01   -.323E+02 -.120E+02 -.534E+01   0.416E+00 -.259E-01 0.330E+00
   -.632E+02 0.142E+02 0.710E+02   0.649E+02 -.138E+02 -.712E+02   0.591E+00 -.209E+00 -.183E+00
   0.381E+02 -.144E+02 0.731E+02   -.385E+02 0.148E+02 -.761E+02   -.390E+00 0.575E+00 0.267E+01
   -.157E+02 -.187E+02 0.836E+02   0.161E+02 0.188E+02 -.844E+02   -.533E-01 0.463E+00 0.114E+01
   -.131E+02 0.419E+02 0.173E+02   0.146E+02 -.421E+02 -.223E+02   -.126E+00 -.625E+00 0.238E+01
   -.832E+01 -.191E+02 0.690E+02   0.709E+01 0.196E+02 -.701E+02   0.344E+00 -.303E-01 0.126E+01
   -.113E+02 -.351E+02 -.129E+03   0.131E+02 0.364E+02 0.131E+03   0.302E+00 0.102E+01 -.983E+00
   -.266E+02 -.161E+02 -.865E+02   0.270E+02 0.163E+02 0.857E+02   0.904E-02 0.431E+00 -.101E+01
   0.602E+01 0.105E+02 -.751E+02   -.616E+01 -.103E+02 0.768E+02   0.192E+00 -.416E-01 -.193E+01
   0.409E+01 0.182E+02 -.850E+02   -.414E+01 -.190E+02 0.872E+02   0.640E+00 0.299E+00 -.184E+00
   -.163E+02 0.729E+01 -.255E+03   0.174E+02 -.419E+01 0.277E+03   -.631E+00 -.496E+01 -.220E+02
   0.130E+02 0.235E+02 -.273E+03   -.930E+01 -.278E+02 0.299E+03   -.448E+01 0.339E+01 -.269E+02
   0.188E+02 -.358E+02 -.278E+03   -.197E+02 0.376E+02 0.306E+03   0.838E-01 -.800E+00 -.274E+02
   -.176E+02 0.204E+02 -.258E+03   0.137E+02 -.235E+02 0.281E+03   0.506E+01 0.334E+01 -.230E+02
   -.108E+01 -.716E+01 0.287E+03   -.200E+01 0.950E+01 -.307E+03   0.362E+01 -.231E+01 0.200E+02
   -.335E+01 -.417E+01 0.327E+03   0.226E+01 0.175E+01 -.352E+03   0.141E+00 0.367E+01 0.243E+02
   -.467E+01 -.497E+00 0.315E+03   0.710E+01 0.254E+01 -.340E+03   -.276E+01 -.157E+01 0.245E+02
   0.434E+02 0.109E+01 0.326E+03   -.470E+02 -.168E+01 -.354E+03   0.105E+01 0.924E-01 0.276E+02
   0.629E+01 0.243E+02 -.247E+03   -.946E+01 -.215E+02 0.261E+03   0.398E+01 -.433E+01 -.142E+02
   0.101E+02 -.219E+02 -.221E+03   -.904E+01 0.182E+02 0.236E+03   -.193E+01 0.531E+01 -.170E+02
   -.133E+02 0.167E+02 -.235E+03   0.166E+02 -.155E+02 0.247E+03   -.194E+01 -.218E+01 -.127E+02
   -.850E+01 -.193E+02 -.257E+03   0.853E+01 0.189E+02 0.272E+03   0.222E+00 0.934E+00 -.146E+02
   0.536E+01 0.271E+02 0.329E+03   -.392E+01 -.288E+02 -.356E+03   -.256E+01 0.329E+00 0.277E+02
   -.208E+02 -.874E+01 0.321E+03   0.259E+02 0.119E+02 -.346E+03   -.427E+01 -.405E+01 0.252E+02
   -.390E+01 0.289E+02 0.331E+03   0.335E+01 -.354E+02 -.355E+03   0.297E+00 0.688E+01 0.231E+02
   0.167E+02 -.381E+02 0.311E+03   -.226E+02 0.421E+02 -.334E+03   0.649E+01 -.284E+01 0.235E+02
   -.956E+01 0.386E+02 -.348E+03   0.920E+01 -.414E+02 0.376E+03   0.507E+00 0.134E+01 -.285E+02
   0.457E+02 -.103E+02 -.346E+03   -.532E+02 0.718E+01 0.370E+03   0.613E+01 0.370E+01 -.242E+02
   0.230E+02 -.230E+02 -.325E+03   -.255E+02 0.293E+02 0.348E+03   0.182E+01 -.597E+01 -.238E+02
   -.395E+02 -.745E+01 -.342E+03   0.453E+02 0.621E+01 0.367E+03   -.562E+01 0.168E+01 -.242E+02
   0.230E+02 0.330E+01 0.223E+03   -.229E+02 -.444E+01 -.240E+03   -.115E+01 0.612E+00 0.166E+02
   0.258E+02 0.233E+02 0.225E+03   -.257E+02 -.228E+02 -.243E+03   -.118E+01 -.166E+01 0.184E+02
   -.260E+02 -.191E+02 0.207E+03   0.264E+02 0.181E+02 -.220E+03   0.689E+00 0.848E+00 0.142E+02
   -.189E+02 0.163E+02 0.206E+03   0.182E+02 -.182E+02 -.224E+03   0.878E+00 0.122E+01 0.183E+02
 -----------------------------------------------------------------------------------------------
   -.496E+01 -.522E+01 -.121E+02   -.853E-13 0.213E-13 -.114E-12   0.496E+01 0.520E+01 0.121E+02
 
 
 POSITION                                       TOTAL-FORCE (eV/Angst)
 -----------------------------------------------------------------------------------
     -0.14540      5.04219     13.25308         0.358931      0.100566      0.523103
      2.64485      3.33121      4.51118         0.023360      0.169607     -0.316274
     -0.01196      1.77965      8.90700         0.002902      0.420842     -0.322301
     -1.33218      4.38121      8.64999        -0.635099     -0.650872      0.956904
      2.82744      1.75377      8.75761        -1.126903      1.051995      0.972546
      1.36009      4.38289      8.73956         0.106063     -0.696851      0.455801
      0.08460      1.60389      2.21968         0.997443     -1.534133      0.621748
     -1.22375      3.90068      2.28224         0.511467      2.688257      0.496662
      2.91371      1.59254      2.28327        -0.598960     -1.024613     -0.057265
      1.48496      3.94200      2.20905         1.939762      0.240679     -0.243812
      5.42539      0.29252      6.59624        -0.595049      0.740841     -0.207187
     -1.36613      2.65682      6.57302         0.232378      0.488284      0.517122
      2.63867      0.26442      6.75368         1.407124     -0.561122     -2.637030
      1.36799      2.65398      6.62177        -0.844687      0.455581      0.348894
      1.26638      1.01208     11.10358         1.921261      2.035595      0.118551
     -0.03376      3.44986     11.12588         0.266814      0.556159     -1.692600
      4.08291      1.09043     11.10048        -0.045770      0.166973     -0.325797
      2.70603      3.44953     10.99968         0.493881     -0.449691      1.582124
     -2.69179      4.85267      3.21066         0.475830     -1.786370     -0.052523
     -1.21355      2.44618      3.34630        -0.739139     -0.911111     -0.823678
      0.18573      4.69073      3.15457        -0.880517      1.022212      0.776206
      1.46216      2.37046      3.22428         1.044720      0.151672     -0.227991
      1.49032      0.75085      1.25747         0.505287      0.069404      0.597350
      0.19574      3.10591      1.25194        -0.924437      1.171229     -0.767751
      4.22428      0.73664      1.23889        -0.308495      0.475037      0.002997
      3.05347      3.15946      1.31640        -2.570242     -0.499460     -0.740579
      1.25081      1.16700      7.69762         0.772334     -1.565765     -0.187279
      0.02041      3.33869      7.82627        -0.906985      1.586982     -2.193435
      4.02113      1.14514      7.72175         1.311612     -1.076065     -1.243268
      2.74819      3.44306      7.57255         0.247944      0.487904      1.024790
      0.02415      1.97282      5.63641        -1.118288     -1.452891      0.255658
     -1.47104      4.30957      5.65095         0.817524     -0.873378      0.486741
      2.75840      1.80633      5.71228        -0.251559      0.306868     -0.564702
      1.26283      4.19387      5.65673         0.479499      1.224900      0.716252
     -0.03970      1.97003     12.09788         0.155632     -1.557932     -0.018863
     -1.34979      4.18441     12.08348        -1.351730      0.584716     -0.342286
      2.74413      1.82428     12.06958        -0.683916      0.345972     -0.899618
      1.32625      4.23002     11.99428         0.329186      0.412637      0.587014
      5.47307      0.29354     10.02488        -1.082674     -0.501184      0.295167
     -1.32936      2.73805     10.04118        -1.074499     -1.072334      0.310595
      2.59631      0.26805      9.98628         1.101423     -0.083253      1.203172
      1.30952      2.70486     10.00048         0.236571     -0.657885      1.014841
 -----------------------------------------------------------------------------------
    total drift:                               -0.005248     -0.016378     -0.007742


--------------------------------------------------------------------------------------------------------



  FREE ENERGIE OF THE ION-ELECTRON SYSTEM (eV)
  ---------------------------------------------------
  free  energy   TOTEN  =      -232.36430624 eV

  energy  without entropy=     -232.35436585  energy(sigma->0) =     -232.35933604
 


--------------------------------------------------------------------------------------------------------


    POTLOK:  cpu time    0.0668: real time    0.0673


--------------------------------------------------------------------------------------------------------


     LOOP+:  cpu time 4077.6505: real time 4099.9965
    4ORBIT:  cpu time    0.0000: real time    0.0000
 


 total charge     
 
# of ion       s       p       d       tot
------------------------------------------
    1        0.109   0.242   0.000   0.351
    2        0.103   0.228   0.000   0.331
    3        0.140   0.325   0.000   0.465
    4        0.133   0.304   0.000   0.437
    5        0.137   0.318   0.000   0.455
    6        0.121   0.274   0.000   0.395
    7        0.465   0.772   7.438   8.674
    8        0.501   0.834   7.326   8.661
    9        0.459   0.730   7.228   8.417
   10        0.498   0.826   7.313   8.637
   11        0.439   0.679   7.418   8.536
   12        0.475   0.762   7.285   8.522
   13        0.432   0.672   7.395   8.499
   14        0.487   0.817   7.513   8.816
   15        0.439   0.693   7.412   8.544
   16        0.518   0.873   7.356   8.747
   17        0.453   0.702   7.258   8.413
   18        0.435   0.690   7.384   8.509
   19        1.579   3.396   0.000   4.975
   20        1.585   3.380   0.000   4.965
   21        1.589   3.396   0.000   4.984
   22        1.578   3.412   0.000   4.989
   23        1.575   3.396   0.000   4.971
   24        1.579   3.433   0.000   5.012
   25        1.579   3.399   0.000   4.978
   26        1.587   3.403   0.000   4.990
   27        1.558   3.545   0.000   5.103
   28        1.564   3.480   0.000   5.043
   29        1.558   3.543   0.000   5.101
   30        1.559   3.517   0.000   5.075
   31        1.585   3.384   0.000   4.969
   32        1.578   3.403   0.000   4.980
   33        1.575   3.428   0.000   5.003
   34        1.573   3.412   0.000   4.985
   35        1.589   3.362   0.000   4.951
   36        1.576   3.432   0.000   5.008
   37        1.576   3.402   0.000   4.978
   38        1.578   3.428   0.000   5.005
   39        1.560   3.520   0.000   5.080
   40        1.567   3.478   0.000   5.046
   41        1.563   3.476   0.000   5.039
   42        1.565   3.464   0.000   5.029
--------------------------------------------------
tot         44.116  93.228  88.325 225.669
 


 magnetization (x)
 
# of ion       s       p       d       tot
------------------------------------------
    1        0.001   0.001   0.000   0.002
    2        0.000   0.000   0.000   0.001
    3        0.000   0.000   0.000   0.001
    4        0.001   0.000   0.000   0.001
    5        0.000  -0.001   0.000  -0.000
    6       -0.000  -0.001   0.000  -0.001
    7        0.004   0.005  -0.026  -0.017
    8        0.013   0.016   1.237   1.266
    9        0.015   0.019   1.376   1.410
   10        0.012   0.015   1.212   1.239
   11        0.002   0.001  -0.015  -0.012
   12        0.009   0.006   1.308   1.323
   13        0.001   0.001  -0.004  -0.002
   14        0.001   0.001  -0.085  -0.083
   15        0.003   0.005  -0.009  -0.001
   16        0.008   0.010   1.121   1.139
   17        0.013   0.011   1.616   1.640
   18        0.003   0.004  -0.009  -0.002
   19        0.000  -0.127   0.000  -0.127
   20        0.001  -0.107   0.000  -0.106
   21        0.002  -0.106   0.000  -0.105
   22        0.000  -0.093   0.000  -0.093
   23        0.000  -0.121   0.000  -0.121
   24        0.001  -0.094   0.000  -0.093
   25        0.001  -0.100   0.000  -0.100
   26        0.002  -0.087   0.000  -0.085
   27       -0.001  -0.012   0.000  -0.012
   28        0.001  -0.028   0.000  -0.028
   29        0.001  -0.016   0.000  -0.015
   30        0.001  -0.020   0.000  -0.020
   31       -0.000  -0.077   0.000  -0.077
   32        0.000  -0.089   0.000  -0.089
   33        0.000  -0.090   0.000  -0.090
   34       -0.001  -0.036   0.000  -0.037
   35        0.002  -0.133   0.000  -0.132
   36        0.000  -0.031   0.000  -0.031
   37        0.000  -0.083   0.000  -0.083
   38        0.001  -0.089   0.000  -0.088
   39        0.001  -0.022   0.000  -0.022
   40        0.001  -0.058   0.000  -0.056
   41        0.002  -0.047   0.000  -0.045
   42        0.000  -0.020   0.000  -0.020
--------------------------------------------------
tot          0.103  -1.596   7.721   6.228
 

 total amount of memory used by VASP MPI-rank0   145892. kBytes
=======================================================================

   base      :      30000. kBytes
   nonlr-proj:       4299. kBytes
   fftplans  :       1504. kBytes
   grid      :       4132. kBytes
   one-center:        342. kBytes
   wavefun   :     105615. kBytes
 
  
  
 General timing and accounting informations for this job:
 ========================================================
  
                  Total CPU time used (sec):     4102.491
                            User time (sec):     3758.747
                          System time (sec):      343.744
                         Elapsed time (sec):     4125.315
  
                   Maximum memory used (kb):      942824.
                   Average memory used (kb):           0.
  
                          Minor page faults:        67478
                          Major page faults:           75
                 Voluntary context switches:          514
