 vasp.5.4.4.18Apr17-6-g9f103f2a35 (build Nov 22 2021 14:44:17) complex          
  
 executed on             LinuxIFC date 2022.08.08  11:51:34
 running on   64 total cores
 distrk:  each k-point on   64 cores,    1 groups
 distr:  one band on NCORES_PER_BAND=   4 cores,   16 groups


--------------------------------------------------------------------------------------------------------


 INCAR:
 POTCAR:    PAW_PBE Li 17Jan2003                  
 POTCAR:    PAW_PBE Co 02Aug2007                  
 POTCAR:    PAW_PBE O 08Apr2002                   
 POTCAR:    PAW_PBE Li 17Jan2003                  
   VRHFIN =Li: s1p0                                                             
   LEXCH  = PE                                                                  
   EATOM  =     5.3001 eV,    0.3895 Ry                                         
                                                                                
   TITEL  = PAW_PBE Li 17Jan2003                                                
   LULTRA =        F    use ultrasoft PP ?                                      
   IUNSCR =        1    unscreen: 0-lin 1-nonlin 2-no                           
   RPACOR =    1.500    partial core radius                                     
   POMASS =    7.010; ZVAL   =    1.000    mass and valenz                      
   RCORE  =    2.050    outmost cutoff radius                                   
   RWIGS  =    2.600; RWIGS  =    1.376    wigner-seitz radius (au A)           
   ENMAX  =  140.000; ENMIN  =  100.000 eV                                      
   ICORE  =        2    local potential                                         
   LCOR   =        T    correct aug charges                                     
   LPAW   =        T    paw PP                                                  
   EAUG   =  331.638                                                            
   DEXC   =    0.000                                                            
   RMAX   =    2.098    core radius for proj-oper                               
   RAUG   =    1.300    factor for augmentation sphere                          
   RDEP   =    2.094    radius for radial grids                                 
   RDEPT  =    1.810    core radius for aug-charge                              
                                                                                
   Atomic configuration                                                         
    4 entries                                                                   
     n  l   j            E        occ.                                          
     1  0  0.50       -51.8549   2.0000                                         
     2  0  0.50        -2.8742   1.0000                                         
     2  1  0.50        -1.3606   0.0000                                         
     3  2  1.50        -1.3606   0.0000                                         
   Description                                                                  
     l       E           TYP  RCUT    TYP  RCUT                                 
     0     -2.8742052     23  2.050                                             
     0     27.2116520     23  2.050                                             
     1     -1.3605826     23  2.050                                             
     2     -1.3605826     23  2.050                                             
  local pseudopotential read in
  partial core-charges read in
  partial kinetic energy density read in
  atomic valenz-charges read in
  non local Contribution for L=           0  read in
    real space projection operators read in
  non local Contribution for L=           0  read in
    real space projection operators read in
  non local Contribution for L=           1  read in
    real space projection operators read in
    PAW grid and wavefunctions read in
 
   number of l-projection  operators is LMAX  =           3
   number of lm-projection operators is LMMAX =           5
 
 POTCAR:    PAW_PBE Co 02Aug2007                  
   VRHFIN =Co: d8 s1                                                            
   LEXCH  = PE                                                                  
   EATOM  =   813.3670 eV,   59.7808 Ry                                         
                                                                                
   TITEL  = PAW_PBE Co 02Aug2007                                                
   LULTRA =        F    use ultrasoft PP ?                                      
   IUNSCR =        1    unscreen: 0-lin 1-nonlin 2-no                           
   RPACOR =    2.000    partial core radius                                     
   POMASS =   58.933; ZVAL   =    9.000    mass and valenz                      
   RCORE  =    2.300    outmost cutoff radius                                   
   RWIGS  =    2.460; RWIGS  =    1.302    wigner-seitz radius (au A)           
   ENMAX  =  267.968; ENMIN  =  200.976 eV                                      
   RCLOC  =    1.203    cutoff for local pot                                    
   LCOR   =        T    correct aug charges                                     
   LPAW   =        T    paw PP                                                  
   EAUG   =  477.818                                                            
   DEXC   =    0.000                                                            
   RMAX   =    2.360    core radius for proj-oper                               
   RAUG   =    1.300    factor for augmentation sphere                          
   RDEP   =    2.393    radius for radial grids                                 
   RDEPT  =    1.864    core radius for aug-charge                              
                                                                                
   Atomic configuration                                                         
    9 entries                                                                   
     n  l   j            E        occ.                                          
     1  0  0.50     -7587.6674   2.0000                                         
     2  0  0.50      -893.6084   2.0000                                         
     2  1  1.50      -764.5805   6.0000                                         
     3  0  0.50       -97.5973   2.0000                                         
     3  1  1.50       -60.9648   6.0000                                         
     3  2  2.50        -4.2382   8.0000                                         
     4  0  0.50        -4.3746   1.0000                                         
     4  1  1.50        -4.0817   0.0000                                         
     4  3  2.50        -1.3606   0.0000                                         
   Description                                                                  
     l       E           TYP  RCUT    TYP  RCUT                                 
     2     -4.2382362     23  2.300                                             
     2     -5.5988188     23  2.300                                             
     0     -4.3745797     23  2.300                                             
     0      5.7660125     23  2.300                                             
     1     -2.7211652     23  2.300                                             
     1     16.9860234     23  2.300                                             
  local pseudopotential read in
  partial core-charges read in
  partial kinetic energy density read in
  atomic valenz-charges read in
  non local Contribution for L=           2  read in
    real space projection operators read in
  non local Contribution for L=           2  read in
    real space projection operators read in
  non local Contribution for L=           0  read in
    real space projection operators read in
  non local Contribution for L=           0  read in
    real space projection operators read in
  non local Contribution for L=           1  read in
    real space projection operators read in
  non local Contribution for L=           1  read in
    real space projection operators read in
    PAW grid and wavefunctions read in
 
   number of l-projection  operators is LMAX  =           6
   number of lm-projection operators is LMMAX =          18
 
 POTCAR:    PAW_PBE O 08Apr2002                   
   VRHFIN =O: s2p4                                                              
   LEXCH  = PE                                                                  
   EATOM  =   432.3788 eV,   31.7789 Ry                                         
                                                                                
   TITEL  = PAW_PBE O 08Apr2002                                                 
   LULTRA =        F    use ultrasoft PP ?                                      
   IUNSCR =        1    unscreen: 0-lin 1-nonlin 2-no                           
   RPACOR =    1.200    partial core radius                                     
   POMASS =   16.000; ZVAL   =    6.000    mass and valenz                      
   RCORE  =    1.520    outmost cutoff radius                                   
   RWIGS  =    1.550; RWIGS  =    0.820    wigner-seitz radius (au A)           
   ENMAX  =  400.000; ENMIN  =  300.000 eV                                      
   ICORE  =        2    local potential                                         
   LCOR   =        T    correct aug charges                                     
   LPAW   =        T    paw PP                                                  
   EAUG   =  605.392                                                            
   DEXC   =    0.000                                                            
   RMAX   =    1.553    core radius for proj-oper                               
   RAUG   =    1.300    factor for augmentation sphere                          
   RDEP   =    1.550    radius for radial grids                                 
   RDEPT  =    1.329    core radius for aug-charge                              
                                                                                
   Atomic configuration                                                         
    4 entries                                                                   
     n  l   j            E        occ.                                          
     1  0  0.50      -514.6923   2.0000                                         
     2  0  0.50       -23.9615   2.0000                                         
     2  1  0.50        -9.0305   4.0000                                         
     3  2  1.50        -9.5241   0.0000                                         
   Description                                                                  
     l       E           TYP  RCUT    TYP  RCUT                                 
     0    -23.9615318     23  1.200                                             
     0     -9.5240782     23  1.200                                             
     1     -9.0304911     23  1.520                                             
     1      8.1634956     23  1.520                                             
     2     -9.5240782      7  1.500                                             
  local pseudopotential read in
  partial core-charges read in
  partial kinetic energy density read in
  kinetic energy density of atom read in
  atomic valenz-charges read in
  non local Contribution for L=           0  read in
    real space projection operators read in
  non local Contribution for L=           0  read in
    real space projection operators read in
  non local Contribution for L=           1  read in
    real space projection operators read in
  non local Contribution for L=           1  read in
    real space projection operators read in
    PAW grid and wavefunctions read in
 
   number of l-projection  operators is LMAX  =           4
   number of lm-projection operators is LMMAX =           8
 
 Optimization of the real space projectors (new method)

 maximal supplied QI-value         = 18.33
 optimisation between [QCUT,QGAM] = [ 12.46, 24.93] = [ 43.51,174.03] Ry 
 Optimized for a Real-space Cutoff    1.13 Angstroem

   l    n(q)    QCUT    max X(q) W(low)/X(q) W(high)/X(q)  e(spline) 
   0      8    12.465    33.825    0.12E-03    0.29E-03    0.99E-07
   0      8    12.465     8.944    0.86E-04    0.22E-03    0.72E-07
   1      8    12.465     4.214    0.27E-03    0.11E-03    0.82E-07
 Optimization of the real space projectors (new method)

 maximal supplied QI-value         = 16.25
 optimisation between [QCUT,QGAM] = [ 12.51, 25.03] = [ 43.85,175.40] Ry 
 Optimized for a Real-space Cutoff    1.31 Angstroem

   l    n(q)    QCUT    max X(q) W(low)/X(q) W(high)/X(q)  e(spline) 
   2      9    12.514    65.824    0.30E-03    0.46E-03    0.43E-06
   2      9    12.514    61.429    0.31E-03    0.46E-03    0.44E-06
   0     10    12.514    56.174    0.90E-04    0.33E-03    0.30E-06
   0     10    12.514    31.263    0.81E-04    0.30E-03    0.28E-06
   1      9    12.514    19.828    0.38E-03    0.65E-04    0.24E-06
   1      9    12.514    15.139    0.32E-03    0.60E-04    0.20E-06
 Optimization of the real space projectors (new method)

 maximal supplied QI-value         = 24.76
 optimisation between [QCUT,QGAM] = [ 12.38, 25.00] = [ 42.90,175.06] Ry 
 Optimized for a Real-space Cutoff    1.13 Angstroem

   l    n(q)    QCUT    max X(q) W(low)/X(q) W(high)/X(q)  e(spline) 
   0      8    12.378    20.381    0.16E-03    0.54E-05    0.27E-06
   0      8    12.378    15.268    0.17E-03    0.61E-05    0.29E-06
   1      8    12.378     5.964    0.38E-03    0.23E-03    0.28E-06
   1      8    12.378     5.382    0.33E-03    0.20E-03    0.25E-06
  PAW_PBE Li 17Jan2003                  :
 energy of atom  1       EATOM=   -5.3001
 kinetic energy error for atom=    0.0000 (will be added to EATOM!!)
  PAW_PBE Co 02Aug2007                  :
 energy of atom  2       EATOM= -813.3670
 kinetic energy error for atom=    0.0018 (will be added to EATOM!!)
  PAW_PBE O 08Apr2002                   :
 energy of atom  3       EATOM= -432.3788
 kinetic energy error for atom=    0.0168 (will be added to EATOM!!)
 
 
 POSCAR: Li6 Co12 O24                            
  positions in cartesian coordinates
  No initial velocities read in
 exchange correlation table for  LEXCH =        8
   RHO(1)=    0.500       N(1)  =     2000
   RHO(2)=  100.500       N(2)  =     4000
 


--------------------------------------------------------------------------------------------------------


 ion  position               nearest neighbor table
   1  0.518  0.012  0.000-  23 1.84  38 1.86  37 1.86  25 1.86  24 2.03  36 2.05   9 2.58  17 2.61
                            16 2.64  10 2.69   8 2.71  15 2.77
   2  0.783  0.133  0.343-  33 1.83  21 1.85  34 1.87  31 1.92  20 2.13  19 2.17  13 2.46  12 2.63
                             3 2.65  11 2.65   9 2.74   3 2.76  10 2.81   7 2.94
   3  0.827  0.644  0.347-  33 1.77  32 1.84  34 1.88  22 2.07  20 2.10  19 2.10  12 2.53  11 2.58
                            14 2.60   2 2.65   2 2.76   8 2.84   9 2.84  10 2.85
   4  0.156  0.382  0.664-  28 1.70  40 1.90  29 1.92  42 2.02  39 2.06  27 2.18   5 2.46  12 2.48
                            14 2.61   6 2.66  16 2.68  17 2.70   6 2.77  15 2.81  11 2.84   5 2.94
   5  0.138  0.828  0.660-  30 1.77  27 1.80  40 1.96  28 1.97  39 2.04  41 2.11   6 2.45   4 2.46
                            11 2.53  18 2.62  12 2.65  13 2.67  16 2.84  15 2.89   6 2.93   4 2.94
   6  0.685  0.833  0.670-  42 1.87  30 1.87  39 1.89  29 1.94  41 2.06  28 2.09   5 2.45  18 2.50
                            11 2.65   4 2.66  16 2.67  14 2.70  13 2.75  17 2.75   4 2.77   5 2.93
   7  0.169  0.320  0.165-  20 1.83  22 1.84  24 1.85  19 1.85  25 1.87  23 1.91  10 2.65   9 2.66
                             8 2.68   8 2.72   9 2.72  10 2.74   2 2.94
   8  0.180  0.829  0.169-  23 1.79  21 1.81  26 1.82  19 1.83  20 1.85  24 1.86  10 2.65   9 2.66
                             7 2.68   1 2.71   7 2.72  10 2.73   9 2.73   3 2.84
   9  0.676  0.321  0.163-  23 1.82  26 1.82  22 1.83  21 1.86  25 1.86  20 1.87   1 2.58   7 2.66
                             8 2.66  10 2.68  10 2.72   7 2.72   8 2.73   2 2.74   3 2.84
  10  0.684  0.822  0.161-  25 1.82  26 1.83  24 1.84  22 1.84  21 1.90  19 1.90   7 2.65   8 2.65
                             9 2.68   1 2.69   9 2.72   8 2.73   7 2.74   2 2.81   3 2.85
  11  0.996  0.989  0.500-  32 1.78  27 1.80  30 1.84  31 1.84  34 1.93  29 1.96   5 2.53   3 2.58
                             2 2.65   6 2.65  14 2.67  12 2.67  13 2.68  13 2.69  14 2.72  12 2.73
  12  0.981  0.477  0.502-  29 1.79  31 1.80  32 1.86  28 1.87  33 1.88  30 1.90   4 2.48   3 2.53
                            13 2.63   2 2.63   5 2.65  11 2.67  14 2.69  14 2.69  11 2.73  13 2.76
  13  0.495  0.988  0.501-  29 1.85  28 1.85  27 1.86  34 1.86  32 1.88  33 1.90   2 2.46  12 2.63
                             5 2.67  14 2.67  11 2.68  11 2.69  14 2.72   6 2.75  12 2.76
  14  0.488  0.489  0.505-  34 1.81  28 1.83  33 1.88  30 1.89  27 1.90  31 1.99   3 2.60   4 2.61
                            11 2.67  13 2.67  12 2.69  12 2.69   6 2.70  11 2.72  13 2.72
  15  0.333  0.200  0.836-  35 1.77  42 1.80  37 1.81  36 1.82  39 1.85  41 1.93  16 2.58  17 2.67
                            18 2.67  17 2.70  18 2.71   1 2.77   4 2.81  16 2.82   5 2.89
  16  0.350  0.686  0.836-  38 1.77  42 1.78  35 1.80  41 1.86  40 1.93  36 1.96  15 2.58  18 2.60
                             1 2.64  17 2.67   6 2.67   4 2.68  17 2.72  18 2.77  15 2.82   5 2.84
  17  0.833  0.193  0.835-  40 1.80  38 1.83  39 1.85  37 1.87  41 1.87  35 1.88   1 2.61  16 2.67
                            15 2.67  18 2.68   4 2.70  15 2.70  18 2.71  16 2.72   6 2.75
  18  0.841  0.700  0.831-  40 1.80  39 1.81  36 1.82  38 1.85  42 1.87  37 2.05   6 2.50  16 2.60
                             5 2.62  15 2.67  17 2.68  15 2.71  17 2.71  16 2.77
  19  0.016  0.994  0.245-   8 1.83   7 1.85  10 1.90   3 2.10   2 2.17
  20  0.009  0.487  0.242-   7 1.83   8 1.85   9 1.87   3 2.10   2 2.13
  21  0.511  0.989  0.241-   8 1.81   2 1.85   9 1.86  10 1.90
  22  0.509  0.489  0.236-   9 1.83  10 1.84   7 1.84   3 2.07
  23  0.345  0.142  0.090-   8 1.79   9 1.82   1 1.84   7 1.91
  24  0.343  0.658  0.091-  10 1.84   7 1.85   8 1.86   1 2.03
  25  0.836  0.148  0.085-  10 1.82   9 1.86   1 1.86   7 1.87
  26  0.857  0.655  0.091-   9 1.82   8 1.82  10 1.83
  27  0.312  0.139  0.578-  11 1.80   5 1.80  13 1.86  14 1.90   4 2.18
  28  0.320  0.655  0.578-   4 1.70  14 1.83  13 1.85  12 1.87   5 1.97   6 2.09
  29  0.820  0.165  0.582-  12 1.79  13 1.85   4 1.92   6 1.94  11 1.96
  30  0.831  0.667  0.581-   5 1.77  11 1.84   6 1.87  14 1.89  12 1.90
  31  0.132  0.315  0.421-  12 1.80  11 1.84   2 1.92  14 1.99
  32  0.148  0.818  0.428-  11 1.78   3 1.84  12 1.86  13 1.88
  33  0.651  0.327  0.420-   3 1.77   2 1.83  12 1.88  14 1.88  13 1.90
  34  0.643  0.802  0.423-  14 1.81  13 1.86   2 1.87   3 1.88  11 1.93
  35  0.176  0.360  0.910-  15 1.77  16 1.80  17 1.88
  36  0.164  0.867  0.908-  18 1.82  15 1.82  16 1.96   1 2.05
  37  0.645  0.333  0.917-  15 1.81   1 1.86  17 1.87  18 2.05
  38  0.669  0.858  0.909-  16 1.77  17 1.83  18 1.85   1 1.86
  39  0.003  0.030  0.758-  18 1.81  15 1.85  17 1.85   6 1.89   5 2.04   4 2.06
  40  0.992  0.519  0.761-  18 1.80  17 1.80   4 1.90  16 1.93   5 1.96
  41  0.500  0.017  0.756-  16 1.86  17 1.87  15 1.93   6 2.06   5 2.11
  42  0.496  0.520  0.758-  16 1.78  15 1.80   6 1.87  18 1.87   4 2.02
 

IMPORTANT INFORMATION: All symmetrisations will be switched off!
NOSYMM: (Re-)initialisation of all symmetry stuff for point group C_1.

 
 

Automatic generation of k-mesh.
 generate k-points for:    6    6    2
Space group operators:
 irot       det(A)        alpha          n_x          n_y          n_z        tau_x        tau_y        tau_z
    1     1.000000     0.000001     1.000000     0.000000     0.000000     0.000000     0.000000     0.000000
 
 Subroutine IBZKPT returns following result:
 ===========================================
 
 Found     36 irreducible k-points:
 
 Following reciprocal coordinates:
            Coordinates               Weight
  0.083333  0.083333  0.250000      2.000000
  0.250000  0.083333  0.250000      2.000000
  0.416667  0.083333  0.250000      2.000000
 -0.416667  0.083333  0.250000      2.000000
 -0.250000  0.083333  0.250000      2.000000
 -0.083333  0.083333  0.250000      2.000000
  0.083333  0.250000  0.250000      2.000000
  0.250000  0.250000  0.250000      2.000000
  0.416667  0.250000  0.250000      2.000000
 -0.416667  0.250000  0.250000      2.000000
 -0.250000  0.250000  0.250000      2.000000
 -0.083333  0.250000  0.250000      2.000000
  0.083333  0.416667  0.250000      2.000000
  0.250000  0.416667  0.250000      2.000000
  0.416667  0.416667  0.250000      2.000000
 -0.416667  0.416667  0.250000      2.000000
 -0.250000  0.416667  0.250000      2.000000
 -0.083333  0.416667  0.250000      2.000000
  0.083333 -0.416667  0.250000      2.000000
  0.250000 -0.416667  0.250000      2.000000
  0.416667 -0.416667  0.250000      2.000000
 -0.416667 -0.416667  0.250000      2.000000
 -0.250000 -0.416667  0.250000      2.000000
 -0.083333 -0.416667  0.250000      2.000000
  0.083333 -0.250000  0.250000      2.000000
  0.250000 -0.250000  0.250000      2.000000
  0.416667 -0.250000  0.250000      2.000000
 -0.416667 -0.250000  0.250000      2.000000
 -0.250000 -0.250000  0.250000      2.000000
 -0.083333 -0.250000  0.250000      2.000000
  0.083333 -0.083333  0.250000      2.000000
  0.250000 -0.083333  0.250000      2.000000
  0.416667 -0.083333  0.250000      2.000000
 -0.416667 -0.083333  0.250000      2.000000
 -0.250000 -0.083333  0.250000      2.000000
 -0.083333 -0.083333  0.250000      2.000000
 
 Following cartesian coordinates:
            Coordinates               Weight
  0.015503  0.026787  0.018934      2.000000
  0.046509  0.044690  0.018762      2.000000
  0.077516  0.062593  0.018589      2.000000
 -0.077516 -0.026923  0.019452      2.000000
 -0.046509 -0.009020  0.019280      2.000000
 -0.015503  0.008883  0.019107      2.000000
  0.015503  0.062456  0.018813      2.000000
  0.046509  0.080360  0.018640      2.000000
  0.077516  0.098263  0.018468      2.000000
 -0.077516  0.008746  0.019331      2.000000
 -0.046509  0.026650  0.019158      2.000000
 -0.015503  0.044553  0.018985      2.000000
  0.015503  0.098126  0.018691      2.000000
  0.046509  0.116029  0.018519      2.000000
  0.077516  0.133933  0.018346      2.000000
 -0.077516  0.044416  0.019209      2.000000
 -0.046509  0.062320  0.019036      2.000000
 -0.015503  0.080223  0.018864      2.000000
  0.015503 -0.080223  0.019299      2.000000
  0.046509 -0.062320  0.019127      2.000000
  0.077516 -0.044416  0.018954      2.000000
 -0.077516 -0.133933  0.019817      2.000000
 -0.046509 -0.116029  0.019645      2.000000
 -0.015503 -0.098126  0.019472      2.000000
  0.015503 -0.044553  0.019178      2.000000
  0.046509 -0.026650  0.019005      2.000000
  0.077516 -0.008746  0.018832      2.000000
 -0.077516 -0.098263  0.019696      2.000000
 -0.046509 -0.080360  0.019523      2.000000
 -0.015503 -0.062456  0.019350      2.000000
  0.015503 -0.008883  0.019056      2.000000
  0.046509  0.009020  0.018883      2.000000
  0.077516  0.026923  0.018711      2.000000
 -0.077516 -0.062593  0.019574      2.000000
 -0.046509 -0.044690  0.019401      2.000000
 -0.015503 -0.026787  0.019229      2.000000
 


--------------------------------------------------------------------------------------------------------




 Dimension of arrays:
   k-points           NKPTS =     36   k-points in BZ     NKDIM =     36   number of bands    NBANDS=    160
   number of dos      NEDOS =    301   number of ions     NIONS =     42
   non local maximal  LDIM  =      6   non local SUM 2l+1 LMDIM =     18
   total plane-waves  NPLWV =  81920
   max r-space proj   IRMAX =   2376   max aug-charges    IRDMAX=  10017
   dimension x,y,z NGX =    32 NGY =   32 NGZ =   80
   dimension x,y,z NGXF=    64 NGYF=   64 NGZF=  160
   support grid    NGXF=    64 NGYF=   64 NGZF=  160
   ions per type =               6  12  24
   NGX,Y,Z   is equivalent  to a cutoff of   9.90,  9.86, 10.15 a.u.
   NGXF,Y,Z  is equivalent  to a cutoff of  19.79, 19.72, 20.30 a.u.

 SYSTEM =  LiCoO2                                  
 POSCAR =  Li6 Co12 O24                            

 Startparameter for this run:
   NWRITE =      2    write-flag & timer
   PREC   = normal    normal or accurate (medium, high low for compatibility)
   ISTART =      0    job   : 0-new  1-cont  2-samecut
   ICHARG =      2    charge: 1-file 2-atom 10-const
   ISPIN  =      2    spin polarized calculation?
   LNONCOLLINEAR =      F non collinear calculations
   LSORBIT =      F    spin-orbit coupling
   INIWAV =      1    electr: 0-lowe 1-rand  2-diag
   LASPH  =      F    aspherical Exc in radial PAW
   METAGGA=      F    non-selfconsistent MetaGGA calc.

 Electronic Relaxation 1
   ENCUT  =  600.0 eV  44.10 Ry    6.64 a.u.  10.74 10.78 26.17*2*pi/ulx,y,z
   ENINI  =  600.0     initial cutoff
   ENAUG  =  605.4 eV  augmentation charge cutoff
   NELM   =    600;   NELMIN=  2; NELMDL= -5     # of ELM steps 
   EDIFF  = 0.1E-05   stopping-criterion for ELM
   LREAL  =      T    real-space projection
   NLSPLINE    = F    spline interpolate recip. space projectors
   LCOMPAT=      F    compatible to vasp.4.4
   GGA_COMPAT  = T    GGA compatible to vasp.4.4-vasp.4.6
   LMAXPAW     = -100 max onsite density
   LMAXMIX     =    2 max onsite mixed and CHGCAR
   VOSKOWN=      0    Vosko Wilk Nusair interpolation
   ROPT   =   -0.00050  -0.00050  -0.00050
 Ionic relaxation
   EDIFFG = 0.1E-04   stopping-criterion for IOM
   NSW    =      0    number of steps for IOM
   NBLOCK =      1;   KBLOCK =      1    inner block; outer block 
   IBRION =     -1    ionic relax: 0-MD 1-quasi-New 2-CG
   NFREE  =      0    steps in history (QN), initial steepest desc. (CG)
   ISIF   =      2    stress and relaxation
   IWAVPR =     10    prediction:  0-non 1-charg 2-wave 3-comb
   ISYM   =      0    0-nonsym 1-usesym 2-fastsym
   LCORR  =      T    Harris-Foulkes like correction to forces

   POTIM  = 0.5000    time-step for ionic-motion
   TEIN   =    0.0    initial temperature
   TEBEG  =    0.0;   TEEND  =   0.0 temperature during run
   SMASS  =  -3.00    Nose mass-parameter (am)
   estimated Nose-frequenzy (Omega)   =  0.10E-29 period in steps =****** mass=  -0.660E-27a.u.
   SCALEE = 1.0000    scale energy and forces
   NPACO  =    256;   APACO  = 16.0  distance and # of slots for P.C.
   PSTRESS=    0.0 pullay stress

  Mass of Ions in am
   POMASS =   7.01 58.93 16.00
  Ionic Valenz
   ZVAL   =   1.00  9.00  6.00
  Atomic Wigner-Seitz radii
   RWIGS  =  -1.00 -1.00 -1.00
  virtual crystal weights 
   VCA    =   1.00  1.00  1.00
   NELECT =     258.0000    total number of electrons
   NUPDOWN=       6.0000    fix difference up-down

 DOS related values:
   EMIN   =  10.00;   EMAX   =-10.00  energy-range for DOS
   EFERMI =   0.00
   ISMEAR =     0;   SIGMA  =   0.05  broadening in eV -4-tet -1-fermi 0-gaus

 Electronic relaxation 2 (details)
   IALGO  =     58    algorithm
   LDIAG  =      T    sub-space diagonalisation (order eigenvalues)
   LSUBROT=      F    optimize rotation matrix (better conditioning)
   TURBO    =      0    0=normal 1=particle mesh
   IRESTART =      0    0=no restart 2=restart with 2 vectors
   NREBOOT  =      0    no. of reboots
   NMIN     =      0    reboot dimension
   EREF     =   0.00    reference energy to select bands
   IMIX   =      4    mixing-type and parameters
     AMIX     =   0.40;   BMIX     =  1.00
     AMIX_MAG =   1.60;   BMIX_MAG =  1.00
     AMIN     =   0.10
     WC   =   100.;   INIMIX=   1;  MIXPRE=   1;  MAXMIX= -45

 Intra band minimization:
   WEIMIN = 0.0000     energy-eigenvalue tresh-hold
   EBREAK =  0.16E-08  absolut break condition
   DEPER  =   0.30     relativ break condition  

   TIME   =   0.40     timestep for ELM

  volume/ion in A,a.u.               =       7.83        52.87
  Fermi-wavevector in a.u.,A,eV,Ry     =   1.509584  2.852701 31.005572  2.278845
  Thomas-Fermi vector in A             =   2.619887
 
 Write flags
   LWAVE        =      F    write WAVECAR
   LDOWNSAMPLE  =      F    k-point downsampling of WAVECAR
   LCHARG       =      F    write CHGCAR
   LVTOT        =      F    write LOCPOT, total local potential
   LVHAR        =      F    write LOCPOT, Hartree potential only
   LELF         =      F    write electronic localiz. function (ELF)
   LORBIT       =     11    0 simple, 1 ext, 2 COOP (PROOUT), +10 PAW based schemes


 Dipole corrections
   LMONO  =      F    monopole corrections only (constant potential shift)
   LDIPOL =      F    correct potential (dipole corrections)
   IDIPOL =      0    1-x, 2-y, 3-z, 4-all directions 
   EPSILON=  1.0000000 bulk dielectric constant

 LDA+U is selected, type is set to LDAUTYPE =  2
   angular momentum for each species LDAUL =    -1    2   -1
   U (eV)           for each species LDAUU =   0.0  5.1  0.0
   J (eV)           for each species LDAUJ =   0.0  0.0  0.0
 Exchange correlation treatment:
   GGA     =    --    GGA type
   LEXCH   =     8    internal setting for exchange type
   VOSKOWN=      0    Vosko Wilk Nusair interpolation
   LHFCALC =     F    Hartree Fock is set to
   LHFONE  =     F    Hartree Fock one center treatment
   AEXX    =    0.0000 exact exchange contribution

 Linear response parameters
   LEPSILON=     F    determine dielectric tensor
   LRPA    =     F    only Hartree local field effects (RPA)
   LNABLA  =     F    use nabla operator in PAW spheres
   LVEL    =     F    velocity operator in full k-point grid
   LINTERFAST=   F  fast interpolation
   KINTER  =     0    interpolate to denser k-point grid
   CSHIFT  =0.1000    complex shift for real part using Kramers Kronig
   OMEGAMAX=  -1.0    maximum frequency
   DEG_THRESHOLD= 0.2000000E-02 threshold for treating states as degnerate
   RTIME   =   -0.100 relaxation time in fs
  (WPLASMAI=    0.000 imaginary part of plasma frequency in eV, 0.658/RTIME)
   DFIELD  = 0.0000000 0.0000000 0.0000000 field for delta impulse in time
 
 Orbital magnetization related:
   ORBITALMAG=     F  switch on orbital magnetization
   LCHIMAG   =     F  perturbation theory with respect to B field
   DQ        =  0.001000  dq finite difference perturbation B field
   LLRAUG    =     F  two centre corrections for induced B field



--------------------------------------------------------------------------------------------------------


 Static calculation
 charge density and potential will be updated during run
 spin polarized calculation
 Conjugate gradient for all bands (Freysoldt, et al. PRB 79, 241103 (2009))
 preconditioned conjugated gradient                                        
 perform sub-space diagonalisation
    before iterative eigenvector-optimisation
 modified Broyden-mixing scheme, WC =      100.0
 initial mixing is a Kerker type mixing with AMIX =  0.4000 and BMIX =      1.0000
 Hartree-type preconditioning will be used
 using additional bands           31
 real space projection scheme for non local part
 use partial core corrections
 no Harris-corrections to forces 
 use gradient corrections 
 use of overlap-Matrix (Vanderbilt PP)
 Gauss-broadening in eV      SIGMA  =   0.05


--------------------------------------------------------------------------------------------------------


  energy-cutoff  :      600.00
  volume of cell :      329.06
      direct lattice vectors                 reciprocal lattice vectors
     5.375248909  0.000000000  0.000000000     0.186037896  0.107419748 -0.001035705
    -2.697931528  4.672488213  0.000000000     0.000000000  0.214018731 -0.000729716
     0.047145542  0.044671178 13.101624489     0.000000000  0.000000000  0.076326413

  length of vectors
     5.375248909  5.395459260 13.101785468     0.214825915  0.214019975  0.076326413


 
 k-points in units of 2pi/SCALE and weight: read from INCAR                         
   0.01550316  0.02678654  0.01893448       0.028
   0.04650947  0.04468983  0.01876187       0.028
   0.07751579  0.06259312  0.01858925       0.028
  -0.07751579 -0.02692333  0.01945234       0.028
  -0.04650947 -0.00902004  0.01927972       0.028
  -0.01550316  0.00888325  0.01910710       0.028
   0.01550316  0.06245633  0.01881287       0.028
   0.04650947  0.08035962  0.01864025       0.028
   0.07751579  0.09826291  0.01846763       0.028
  -0.07751579  0.00874645  0.01933072       0.028
  -0.04650947  0.02664975  0.01915810       0.028
  -0.01550316  0.04455304  0.01898548       0.028
   0.01550316  0.09812612  0.01869125       0.028
   0.04650947  0.11602941  0.01851863       0.028
   0.07751579  0.13393270  0.01834601       0.028
  -0.07751579  0.04441624  0.01920910       0.028
  -0.04650947  0.06231953  0.01903648       0.028
  -0.01550316  0.08022283  0.01886386       0.028
   0.01550316 -0.08022283  0.01929934       0.028
   0.04650947 -0.06231953  0.01912673       0.028
   0.07751579 -0.04441624  0.01895411       0.028
  -0.07751579 -0.13393270  0.01981720       0.028
  -0.04650947 -0.11602941  0.01964458       0.028
  -0.01550316 -0.09812612  0.01947196       0.028
   0.01550316 -0.04455304  0.01917772       0.028
   0.04650947 -0.02664975  0.01900511       0.028
   0.07751579 -0.00874645  0.01883249       0.028
  -0.07751579 -0.09826291  0.01969558       0.028
  -0.04650947 -0.08035962  0.01952296       0.028
  -0.01550316 -0.06245633  0.01935034       0.028
   0.01550316 -0.00888325  0.01905610       0.028
   0.04650947  0.00902004  0.01888349       0.028
   0.07751579  0.02692333  0.01871087       0.028
  -0.07751579 -0.06259312  0.01957396       0.028
  -0.04650947 -0.04468983  0.01940134       0.028
  -0.01550316 -0.02678654  0.01922872       0.028
 
 k-points in reciprocal lattice and weights: read from INCAR                         
   0.08333333  0.08333333  0.25000000       0.028
   0.25000000  0.08333333  0.25000000       0.028
   0.41666667  0.08333333  0.25000000       0.028
  -0.41666667  0.08333333  0.25000000       0.028
  -0.25000000  0.08333333  0.25000000       0.028
  -0.08333333  0.08333333  0.25000000       0.028
   0.08333333  0.25000000  0.25000000       0.028
   0.25000000  0.25000000  0.25000000       0.028
   0.41666667  0.25000000  0.25000000       0.028
  -0.41666667  0.25000000  0.25000000       0.028
  -0.25000000  0.25000000  0.25000000       0.028
  -0.08333333  0.25000000  0.25000000       0.028
   0.08333333  0.41666667  0.25000000       0.028
   0.25000000  0.41666667  0.25000000       0.028
   0.41666667  0.41666667  0.25000000       0.028
  -0.41666667  0.41666667  0.25000000       0.028
  -0.25000000  0.41666667  0.25000000       0.028
  -0.08333333  0.41666667  0.25000000       0.028
   0.08333333 -0.41666667  0.25000000       0.028
   0.25000000 -0.41666667  0.25000000       0.028
   0.41666667 -0.41666667  0.25000000       0.028
  -0.41666667 -0.41666667  0.25000000       0.028
  -0.25000000 -0.41666667  0.25000000       0.028
  -0.08333333 -0.41666667  0.25000000       0.028
   0.08333333 -0.25000000  0.25000000       0.028
   0.25000000 -0.25000000  0.25000000       0.028
   0.41666667 -0.25000000  0.25000000       0.028
  -0.41666667 -0.25000000  0.25000000       0.028
  -0.25000000 -0.25000000  0.25000000       0.028
  -0.08333333 -0.25000000  0.25000000       0.028
   0.08333333 -0.08333333  0.25000000       0.028
   0.25000000 -0.08333333  0.25000000       0.028
   0.41666667 -0.08333333  0.25000000       0.028
  -0.41666667 -0.08333333  0.25000000       0.028
  -0.25000000 -0.08333333  0.25000000       0.028
  -0.08333333 -0.08333333  0.25000000       0.028
 
 position of ions in fractional coordinates (direct lattice) 
   0.51794000  0.01189714  0.00024043
   0.78316479  0.13323868  0.34325973
   0.82659359  0.64419857  0.34652803
   0.15626461  0.38200725  0.66386421
   0.13812597  0.82806075  0.66029143
   0.68517287  0.83308321  0.67019553
   0.16915478  0.31982116  0.16452311
   0.18021382  0.82864385  0.16926756
   0.67567132  0.32104211  0.16306910
   0.68358398  0.82175552  0.16133266
   0.99606046  0.98930865  0.50002730
   0.98115587  0.47695225  0.50158359
   0.49492810  0.98830475  0.50072186
   0.48782770  0.48925905  0.50486335
   0.33331178  0.19998609  0.83560249
   0.34969158  0.68610169  0.83583906
   0.83279433  0.19310758  0.83537349
   0.84104362  0.70024026  0.83086259
   0.01581864  0.99363068  0.24494977
   0.00929295  0.48667236  0.24152349
   0.51067923  0.98891446  0.24107315
   0.50900269  0.48863039  0.23639892
   0.34454210  0.14237893  0.09012775
   0.34298248  0.65826670  0.09125586
   0.83648431  0.14810585  0.08522608
   0.85726593  0.65462668  0.09121082
   0.31158211  0.13882149  0.57840997
   0.31960177  0.65522984  0.57791612
   0.81971414  0.16462518  0.58160038
   0.83093200  0.66680239  0.58077224
   0.13153806  0.31500944  0.42112333
   0.14820112  0.81819987  0.42780878
   0.65088973  0.32686112  0.42007617
   0.64280947  0.80248177  0.42294524
   0.17607206  0.35954561  0.90970013
   0.16379295  0.86723353  0.90822707
   0.64515996  0.33283926  0.91720309
   0.66887004  0.85835288  0.90855528
   0.00253394  0.02970750  0.75825330
   0.99243246  0.51886801  0.76123764
   0.49979620  0.01681316  0.75620774
   0.49589228  0.51950092  0.75794037
 
 position of ions in cartesian coordinates  (Angst):
   2.75197005  0.05560000  0.00315000
   3.86642003  0.63788998  4.49726009
   2.72147989  3.02549005  4.54008007
  -0.15937001  1.81457996  8.69769955
  -1.46045995  3.89860010  8.65089035
   1.46696997  3.92250991  8.78065014
   0.05415000  1.50171006  2.15551996
  -1.25895000  3.87939000  2.21767998
   2.77343988  1.50734997  2.13647008
   1.46500003  3.84684992  2.11371994
   2.70855999  4.64486980  6.55116987
   4.01081991  2.25096011  6.57155991
   0.01759000  4.64021015  6.56026983
   1.32600999  2.30860996  6.61453009
   1.29147995  0.97175998 10.94775009
   0.06803000  3.24313998 10.95084953
   3.99486995  0.93961000 10.94474983
   2.67078996  3.30897999 10.88564968
  -2.58417010  4.65366983  3.20923996
  -1.25167000  2.28476000  3.16435003
   0.08837000  4.63146019  3.15844989
   1.42886996  2.29367995  3.09720993
   1.47212005  0.66929001  1.18081999
   0.07196000  3.07981992  1.19560003
   4.10074997  0.69582999  1.11660004
   2.84617996  3.06280994  1.19500995
   1.32756996  0.67448002  7.57811022
  -0.02258000  3.08736992  7.57164001
   3.98943996  0.79518998  7.61990976
   2.69485998  3.14157009  7.60905981
  -0.12297000  1.49068999  5.51739979
  -1.39066005  3.84213996  5.60499001
   2.63665009  1.54602003  5.50368023
   1.31016004  3.76848006  5.54126978
   0.01929000  1.72061002 11.91854954
  -1.41648996  4.09271002 11.89925003
   2.61315989  1.59616005 12.01685047
   1.32239997  4.05122995 11.90355015
  -0.03078000  0.17268001  9.93435001
   3.97059011  2.45841002  9.97344971
   2.67682004  0.11234000  9.90754986
   1.29970002  2.46122003  9.93025017
 


--------------------------------------------------------------------------------------------------------


 k-point  1 :   0.0833 0.0833 0.2500  plane waves:   10979
 k-point  2 :   0.2500 0.0833 0.2500  plane waves:   10972
 k-point  3 :   0.4167 0.0833 0.2500  plane waves:   10992
 k-point  4 :  -0.4167 0.0833 0.2500  plane waves:   10984
 k-point  5 :  -0.2500 0.0833 0.2500  plane waves:   10970
 k-point  6 :  -0.0833 0.0833 0.2500  plane waves:   10989
 k-point  7 :   0.0833 0.2500 0.2500  plane waves:   10979
 k-point  8 :   0.2500 0.2500 0.2500  plane waves:   10987
 k-point  9 :   0.4167 0.2500 0.2500  plane waves:   10991
 k-point 10 :  -0.4167 0.2500 0.2500  plane waves:   10973
 k-point 11 :  -0.2500 0.2500 0.2500  plane waves:   10977
 k-point 12 :  -0.0833 0.2500 0.2500  plane waves:   10974
 k-point 13 :   0.0833 0.4167 0.2500  plane waves:   10976
 k-point 14 :   0.2500 0.4167 0.2500  plane waves:   10990
 k-point 15 :   0.4167 0.4167 0.2500  plane waves:   10985
 k-point 16 :  -0.4167 0.4167 0.2500  plane waves:   10986
 k-point 17 :  -0.2500 0.4167 0.2500  plane waves:   10987
 k-point 18 :  -0.0833 0.4167 0.2500  plane waves:   10990
 k-point 19 :   0.0833-0.4167 0.2500  plane waves:   10985
 k-point 20 :   0.2500-0.4167 0.2500  plane waves:   10982
 k-point 21 :   0.4167-0.4167 0.2500  plane waves:   10986
 k-point 22 :  -0.4167-0.4167 0.2500  plane waves:   10988
 k-point 23 :  -0.2500-0.4167 0.2500  plane waves:   10974
 k-point 24 :  -0.0833-0.4167 0.2500  plane waves:   10988
 k-point 25 :   0.0833-0.2500 0.2500  plane waves:   10976
 k-point 26 :   0.2500-0.2500 0.2500  plane waves:   10975
 k-point 27 :   0.4167-0.2500 0.2500  plane waves:   10976
 k-point 28 :  -0.4167-0.2500 0.2500  plane waves:   10978
 k-point 29 :  -0.2500-0.2500 0.2500  plane waves:   10970
 k-point 30 :  -0.0833-0.2500 0.2500  plane waves:   10980
 k-point 31 :   0.0833-0.0833 0.2500  plane waves:   10992
 k-point 32 :   0.2500-0.0833 0.2500  plane waves:   10964
 k-point 33 :   0.4167-0.0833 0.2500  plane waves:   10975
 k-point 34 :  -0.4167-0.0833 0.2500  plane waves:   10981
 k-point 35 :  -0.2500-0.0833 0.2500  plane waves:   10970
 k-point 36 :  -0.0833-0.0833 0.2500  plane waves:   10985

 maximum and minimum number of plane-waves per node :      2769     2725

 maximum number of plane-waves:     10992
 maximum index in each direction: 
   IXMAX=   11   IYMAX=   11   IZMAX=   25
   IXMIN=  -11   IYMIN=  -11   IZMIN=  -26


 real space projection operators:
  total allocation   :       6321.35 KBytes
  max/ min on nodes  :       1583.50       1576.32


 parallel 3D FFT for wavefunctions:
    minimum data exchange during FFTs selected (reduces bandwidth)
 parallel 3D FFT for charge:
    minimum data exchange during FFTs selected (reduces bandwidth)


 total amount of memory used by VASP MPI-rank0   137057. kBytes
=======================================================================

   base      :      30000. kBytes
   nonlr-proj:       3615. kBytes
   fftplans  :       1013. kBytes
   grid      :       2556. kBytes
   one-center:        342. kBytes
   wavefun   :      99531. kBytes
 
     INWAV:  cpu time    0.0000: real time    0.0003
 Broyden mixing: mesh for mixing (old mesh)
   NGX = 21   NGY = 21   NGZ = 53
  (NGX  = 64   NGY  = 64   NGZ  =160)
  gives a total of  23373 points

 initial charge density was supplied:
 charge density of overlapping atoms calculated
 number of electron     258.0000000 magnetization       6.0000000
 keeping initial charge density in first step


--------------------------------------------------------------------------------------------------------


 Maximum index for non-local projection operator          568
 Maximum index for augmentation-charges          494 (set IRDMAX)


--------------------------------------------------------------------------------------------------------


 First call to EWALD:  gamma=   0.257
 Maximum number of real-space cells 4x 4x 2
 Maximum number of reciprocal cells 2x 2x 5

    FEWALD:  cpu time    0.0058: real time    0.0058


--------------------------------------- Iteration      1(   1)  ---------------------------------------


    POTLOK:  cpu time    0.0556: real time    0.0638
    SETDIJ:  cpu time    0.0179: real time    0.0205
    TRIAL :  cpu time   19.0698: real time   19.2919
    CORREC:  cpu time    0.0043: real time    0.0043
    --------------------------------------------
      LOOP:  cpu time   19.3267: real time   19.5612

 eigenvalue-minimisations  : 23040
 total energy-change (2. order) : 0.3608434E+04  (-0.1409281E+05)
 number of electron     258.0000000 magnetization       6.0000000
 augmentation part      258.0000000 magnetization       6.0000000

 Free energy of the ion-electron system (eV)
  ---------------------------------------------------
  alpha Z        PSCENC =       890.92832377
  Ewald energy   TEWEN  =    -15864.44759748
  -Hartree energ DENC   =     -5714.19406386
  -exchange      EXHF   =         0.00000000
  -V(xc)+E(xc)   XCENC  =       854.43072930
  PAW double counting   =     17015.18481625   -17491.61297812
  entropy T*S    EENTRO =        -0.00604577
  eigenvalues    EBANDS =      3749.27940339
  atomic energy  EATOM  =     20168.87094289
  ---------------------------------------------------
  free energy    TOTEN  =      3608.43353037 eV

  energy without entropy =     3608.43957613  energy(sigma->0) =     3608.43655325


--------------------------------------------------------------------------------------------------------




--------------------------------------- Iteration      1(   2)  ---------------------------------------


    TRIAL :  cpu time   19.0768: real time   19.2777
    CORREC:  cpu time    0.0047: real time    0.0047
    --------------------------------------------
      LOOP:  cpu time   19.0859: real time   19.2868

 eigenvalue-minimisations  : 24640
 total energy-change (2. order) :-0.3197442E+04  (-0.2941637E+04)
 number of electron     258.0000000 magnetization       6.0000000
 augmentation part      258.0000000 magnetization       6.0000000

 Free energy of the ion-electron system (eV)
  ---------------------------------------------------
  alpha Z        PSCENC =       890.92832377
  Ewald energy   TEWEN  =    -15864.44759748
  -Hartree energ DENC   =     -5714.19406386
  -exchange      EXHF   =         0.00000000
  -V(xc)+E(xc)   XCENC  =       854.43072930
  PAW double counting   =     17015.18481625   -17491.61297812
  entropy T*S    EENTRO =        -0.01646260
  eigenvalues    EBANDS =       551.84828417
  atomic energy  EATOM  =     20168.87094289
  ---------------------------------------------------
  free energy    TOTEN  =       410.99199431 eV

  energy without entropy =      411.00845692  energy(sigma->0) =      411.00022562


--------------------------------------------------------------------------------------------------------




--------------------------------------- Iteration      1(   3)  ---------------------------------------


    TRIAL :  cpu time   18.7550: real time   18.9760
    CORREC:  cpu time    0.0050: real time    0.0050
    --------------------------------------------
      LOOP:  cpu time   18.7609: real time   18.9860

 eigenvalue-minimisations  : 24528
 total energy-change (2. order) :-0.6317729E+03  (-0.5677407E+03)
 number of electron     258.0000000 magnetization       6.0000000
 augmentation part      258.0000000 magnetization       6.0000000

 Free energy of the ion-electron system (eV)
  ---------------------------------------------------
  alpha Z        PSCENC =       890.92832377
  Ewald energy   TEWEN  =    -15864.44759748
  -Hartree energ DENC   =     -5714.19406386
  -exchange      EXHF   =         0.00000000
  -V(xc)+E(xc)   XCENC  =       854.43072930
  PAW double counting   =     17015.18481625   -17491.61297812
  entropy T*S    EENTRO =        -0.02887797
  eigenvalues    EBANDS =       -79.91224903
  atomic energy  EATOM  =     20168.87094289
  ---------------------------------------------------
  free energy    TOTEN  =      -220.78095425 eV

  energy without entropy =     -220.75207628  energy(sigma->0) =     -220.76651527


--------------------------------------------------------------------------------------------------------




--------------------------------------- Iteration      1(   4)  ---------------------------------------


    TRIAL :  cpu time   19.6891: real time   19.7831
    CORREC:  cpu time    0.0047: real time    0.0047
    --------------------------------------------
      LOOP:  cpu time   19.6979: real time   19.7920

 eigenvalue-minimisations  : 25344
 total energy-change (2. order) :-0.4965315E+02  (-0.4880140E+02)
 number of electron     258.0000000 magnetization       6.0000000
 augmentation part      258.0000000 magnetization       6.0000000

 Free energy of the ion-electron system (eV)
  ---------------------------------------------------
  alpha Z        PSCENC =       890.92832377
  Ewald energy   TEWEN  =    -15864.44759748
  -Hartree energ DENC   =     -5714.19406386
  -exchange      EXHF   =         0.00000000
  -V(xc)+E(xc)   XCENC  =       854.43072930
  PAW double counting   =     17015.18481625   -17491.61297812
  entropy T*S    EENTRO =        -0.03032078
  eigenvalues    EBANDS =      -129.56396032
  atomic energy  EATOM  =     20168.87094289
  ---------------------------------------------------
  free energy    TOTEN  =      -270.43410835 eV

  energy without entropy =     -270.40378757  energy(sigma->0) =     -270.41894796


--------------------------------------------------------------------------------------------------------




--------------------------------------- Iteration      1(   5)  ---------------------------------------


    TRIAL :  cpu time   20.9963: real time   21.2512
    CORREC:  cpu time    0.0054: real time    0.0054
    CHARGE:  cpu time    0.2878: real time    0.2984
    --------------------------------------------
      LOOP:  cpu time   21.2937: real time   21.5591

 eigenvalue-minimisations  : 27504
 total energy-change (2. order) :-0.1446370E+01  (-0.1443946E+01)
 number of electron     257.9999945 magnetization       5.9999991
 augmentation part       68.5225357 magnetization       4.3555164

 Free energy of the ion-electron system (eV)
  ---------------------------------------------------
  alpha Z        PSCENC =       890.92832377
  Ewald energy   TEWEN  =    -15864.44759748
  -Hartree energ DENC   =     -5714.19406386
  -exchange      EXHF   =         0.00000000
  -V(xc)+E(xc)   XCENC  =       854.43072930
  PAW double counting   =     17015.18481625   -17491.61297812
  entropy T*S    EENTRO =        -0.03017268
  eigenvalues    EBANDS =      -131.01047807
  atomic energy  EATOM  =     20168.87094289
  ---------------------------------------------------
  free energy    TOTEN  =      -271.88047800 eV

  energy without entropy =     -271.85030532  energy(sigma->0) =     -271.86539166


--------------------------------------------------------------------------------------------------------




--------------------------------------- Iteration      1(   6)  ---------------------------------------


    POTLOK:  cpu time    0.0270: real time    0.0270
    SETDIJ:  cpu time    0.0117: real time    0.0117
    TRIAL :  cpu time   10.6450: real time   10.9684
    CORREC:  cpu time    4.1944: real time    4.2208
    CHARGE:  cpu time    0.3008: real time    0.3024
    --------------------------------------------
      LOOP:  cpu time   15.1832: real time   15.5344

 eigenvalue-minimisations  :     0
 total energy-change (2. order) : 0.3839738E+03  (-0.3595195E+03)
 number of electron     257.9999933 magnetization       5.9999996
 augmentation part       71.3917259 magnetization       4.4965514

 Free energy of the ion-electron system (eV)
  ---------------------------------------------------
  alpha Z        PSCENC =       890.92832377
  Ewald energy   TEWEN  =    -15864.44759748
  -Hartree energ DENC   =     -5445.73535679
  -exchange      EXHF   =         0.00000000
  -V(xc)+E(xc)   XCENC  =       888.30697535
  PAW double counting   =     25636.80922979   -25854.43434030
  entropy T*S    EENTRO =        -0.03682269
  eigenvalues    EBANDS =      -308.17468441
  atomic energy  EATOM  =     20168.87094289
  ---------------------------------------------------
  free energy    TOTEN  =       112.09332013 eV

  energy without entropy =      112.13014282  energy(sigma->0) =      112.11173148


--------------------------------------------------------------------------------------------------------




--------------------------------------- Iteration      1(   7)  ---------------------------------------


    POTLOK:  cpu time    0.0266: real time    0.0266
    SETDIJ:  cpu time    0.0120: real time    0.0120
    TRIAL :  cpu time   10.7864: real time   10.9391
    CORREC:  cpu time    4.1349: real time    4.1502
    CHARGE:  cpu time    0.3063: real time    0.3075
    --------------------------------------------
      LOOP:  cpu time   15.2706: real time   15.4397

 eigenvalue-minimisations  :     0
 total energy-change (2. order) :-0.1164814E+03  (-0.1605008E+03)
 number of electron     257.9999942 magnetization       5.9999982
 augmentation part       73.5880819 magnetization       4.5024715

 Free energy of the ion-electron system (eV)
  ---------------------------------------------------
  alpha Z        PSCENC =       890.92832377
  Ewald energy   TEWEN  =    -15864.44759748
  -Hartree energ DENC   =     -5449.44402686
  -exchange      EXHF   =         0.00000000
  -V(xc)+E(xc)   XCENC  =       878.44710063
  PAW double counting   =     25675.45684506   -26010.05321065
  entropy T*S    EENTRO =        -0.02600861
  eigenvalues    EBANDS =      -294.10962953
  atomic energy  EATOM  =     20168.87094289
  ---------------------------------------------------
  free energy    TOTEN  =        -4.38807486 eV

  energy without entropy =       -4.36206624  energy(sigma->0) =       -4.37507055


--------------------------------------------------------------------------------------------------------




--------------------------------------- Iteration      1(   8)  ---------------------------------------


    POTLOK:  cpu time    0.0266: real time    0.0266
    SETDIJ:  cpu time    0.0117: real time    0.0117
    TRIAL :  cpu time   10.9008: real time   10.9465
    CORREC:  cpu time    4.2439: real time    4.3606
    CHARGE:  cpu time    0.2947: real time    0.2974
    --------------------------------------------
      LOOP:  cpu time   15.4819: real time   15.6477

 eigenvalue-minimisations  :     0
 total energy-change (2. order) :-0.3400943E+02  (-0.6992883E+03)
 number of electron     257.9999948 magnetization       5.9999998
 augmentation part       77.8529862 magnetization       3.3139485

 Free energy of the ion-electron system (eV)
  ---------------------------------------------------
  alpha Z        PSCENC =       890.92832377
  Ewald energy   TEWEN  =    -15864.44759748
  -Hartree energ DENC   =     -5567.45418050
  -exchange      EXHF   =         0.00000000
  -V(xc)+E(xc)   XCENC  =       871.78270924
  PAW double counting   =     25923.42912060   -26355.29553176
  entropy T*S    EENTRO =        -0.04259823
  eigenvalues    EBANDS =      -106.18528451
  atomic energy  EATOM  =     20168.87094289
  ---------------------------------------------------
  free energy    TOTEN  =       -38.39750637 eV

  energy without entropy =      -38.35490813  energy(sigma->0) =      -38.37620725


--------------------------------------------------------------------------------------------------------




--------------------------------------- Iteration      1(   9)  ---------------------------------------


    POTLOK:  cpu time    0.0266: real time    0.0266
    SETDIJ:  cpu time    0.0116: real time    0.0116
    TRIAL :  cpu time   10.5511: real time   10.6077
    CORREC:  cpu time    3.9666: real time    4.0901
    CHARGE:  cpu time    0.2772: real time    0.2812
    --------------------------------------------
      LOOP:  cpu time   14.8376: real time   15.0217

 eigenvalue-minimisations  :     0
 total energy-change (2. order) : 0.1166058E+04  (-0.7421797E+04)
 number of electron     257.9999929 magnetization       6.0000002
 augmentation part       77.6191863 magnetization       2.4856279

 Free energy of the ion-electron system (eV)
  ---------------------------------------------------
  alpha Z        PSCENC =       890.92832377
  Ewald energy   TEWEN  =    -15864.44759748
  -Hartree energ DENC   =     -6828.59312054
  -exchange      EXHF   =         0.00000000
  -V(xc)+E(xc)   XCENC  =       856.58219101
  PAW double counting   =     29431.35574140   -30029.45458467
  entropy T*S    EENTRO =        -0.00922918
  eigenvalues    EBANDS =      2502.46103072
  atomic energy  EATOM  =     20168.87094289
  ---------------------------------------------------
  free energy    TOTEN  =      1127.66032887 eV

  energy without entropy =     1127.66955805  energy(sigma->0) =     1127.66494346


--------------------------------------------------------------------------------------------------------




--------------------------------------- Iteration      1(  10)  ---------------------------------------


    POTLOK:  cpu time    0.0266: real time    0.0306
    SETDIJ:  cpu time    0.0118: real time    0.0119
    TRIAL :  cpu time   11.0182: real time   11.1478
    CORREC:  cpu time    4.2405: real time    4.3274
    CHARGE:  cpu time    0.2951: real time    0.3031
    --------------------------------------------
      LOOP:  cpu time   15.5927: real time   15.8226

 eigenvalue-minimisations  :     0
 total energy-change (2. order) : 0.2891720E+04  (-0.1518506E+04)
 number of electron     257.9999953 magnetization       5.9999993
 augmentation part       73.7130578 magnetization       3.3495218

 Free energy of the ion-electron system (eV)
  ---------------------------------------------------
  alpha Z        PSCENC =       890.92832377
  Ewald energy   TEWEN  =    -15864.44759748
  -Hartree energ DENC   =     -9279.82877053
  -exchange      EXHF   =         0.00000000
  -V(xc)+E(xc)   XCENC  =       880.61142590
  PAW double counting   =     31374.15419209   -32102.38840313
  entropy T*S    EENTRO =        -0.03199161
  eigenvalues    EBANDS =      7951.48928805
  atomic energy  EATOM  =     20168.87094289
  ---------------------------------------------------
  free energy    TOTEN  =      4019.38017237 eV

  energy without entropy =     4019.41216398  energy(sigma->0) =     4019.39616817


--------------------------------------------------------------------------------------------------------




--------------------------------------- Iteration      1(  11)  ---------------------------------------


    POTLOK:  cpu time    0.0258: real time    0.0262
    SETDIJ:  cpu time    0.0116: real time    0.0118
    TRIAL :  cpu time   10.4317: real time   10.8354
    CORREC:  cpu time    4.1726: real time    4.2486
    CHARGE:  cpu time    0.2831: real time    0.2882
    --------------------------------------------
      LOOP:  cpu time   14.9254: real time   15.4150

 eigenvalue-minimisations  :     0
 total energy-change (2. order) :-0.1602431E+04  (-0.2994676E+04)
 number of electron     257.9999934 magnetization       6.0000001
 augmentation part       78.3167722 magnetization       2.7806870

 Free energy of the ion-electron system (eV)
  ---------------------------------------------------
  alpha Z        PSCENC =       890.92832377
  Ewald energy   TEWEN  =    -15864.44759748
  -Hartree energ DENC   =     -7806.40643338
  -exchange      EXHF   =         0.00000000
  -V(xc)+E(xc)   XCENC  =       864.34662653
  PAW double counting   =     31904.08045578   -32418.09964394
  entropy T*S    EENTRO =        -0.01987774
  eigenvalues    EBANDS =      4677.70888219
  atomic energy  EATOM  =     20168.87094289
  ---------------------------------------------------
  free energy    TOTEN  =      2416.94956476 eV

  energy without entropy =     2416.96944249  energy(sigma->0) =     2416.95950362


--------------------------------------------------------------------------------------------------------




--------------------------------------- Iteration      1(  12)  ---------------------------------------


    POTLOK:  cpu time    0.0287: real time    0.0303
    SETDIJ:  cpu time    0.0118: real time    0.0124
    TRIAL :  cpu time   12.5570: real time   12.6598
    CORREC:  cpu time    4.0922: real time    4.1098
    CHARGE:  cpu time    0.2887: real time    0.2905
    --------------------------------------------
      LOOP:  cpu time   16.9900: real time   17.1160

 eigenvalue-minimisations  :     0
 total energy-change (2. order) : 0.1009448E+04  (-0.5088300E+04)
 number of electron     257.9999950 magnetization       6.0000003
 augmentation part       75.4891140 magnetization       2.6443162

 Free energy of the ion-electron system (eV)
  ---------------------------------------------------
  alpha Z        PSCENC =       890.92832377
  Ewald energy   TEWEN  =    -15864.44759748
  -Hartree energ DENC   =     -8632.41100294
  -exchange      EXHF   =         0.00000000
  -V(xc)+E(xc)   XCENC  =       874.42920757
  PAW double counting   =     34035.42583919   -34756.17645826
  entropy T*S    EENTRO =        -0.01791698
  eigenvalues    EBANDS =      6709.79843112
  atomic energy  EATOM  =     20168.87094289
  ---------------------------------------------------
  free energy    TOTEN  =      3426.39780813 eV

  energy without entropy =     3426.41572511  energy(sigma->0) =     3426.40676662


--------------------------------------------------------------------------------------------------------




--------------------------------------- Iteration      1(  13)  ---------------------------------------


    POTLOK:  cpu time    0.0264: real time    0.0264
    SETDIJ:  cpu time    0.0119: real time    0.0119
    TRIAL :  cpu time   11.1318: real time   11.1803
    CORREC:  cpu time    4.1882: real time    4.2047
    CHARGE:  cpu time    0.2931: real time    0.2940
    --------------------------------------------
      LOOP:  cpu time   15.6557: real time   15.7216

 eigenvalue-minimisations  :     0
 total energy-change (2. order) : 0.7507348E+02  (-0.2865631E+04)
 number of electron     257.9999932 magnetization       5.9999999
 augmentation part       79.3770196 magnetization       3.1950614

 Free energy of the ion-electron system (eV)
  ---------------------------------------------------
  alpha Z        PSCENC =       890.92832377
  Ewald energy   TEWEN  =    -15864.44759748
  -Hartree energ DENC   =     -8847.38066130
  -exchange      EXHF   =         0.00000000
  -V(xc)+E(xc)   XCENC  =       867.93877712
  PAW double counting   =     38015.14750009   -38646.39194132
  entropy T*S    EENTRO =        -0.02825265
  eigenvalues    EBANDS =      6916.82385731
  atomic energy  EATOM  =     20168.87094289
  ---------------------------------------------------
  free energy    TOTEN  =      3501.47128409 eV

  energy without entropy =     3501.49953674  energy(sigma->0) =     3501.48541042


--------------------------------------------------------------------------------------------------------




--------------------------------------- Iteration      1(  14)  ---------------------------------------


    POTLOK:  cpu time    0.0263: real time    0.0263
    SETDIJ:  cpu time    0.0117: real time    0.0117
    TRIAL :  cpu time   11.1440: real time   11.1489
    CORREC:  cpu time    4.4579: real time    4.4598
    CHARGE:  cpu time    0.2921: real time    0.2921
    --------------------------------------------
      LOOP:  cpu time   15.9360: real time   15.9429

 eigenvalue-minimisations  :     0
 total energy-change (2. order) :-0.2963716E+04  (-0.8506702E+03)
 number of electron     257.9999920 magnetization       6.0000001
 augmentation part       79.0922452 magnetization       3.2976158

 Free energy of the ion-electron system (eV)
  ---------------------------------------------------
  alpha Z        PSCENC =       890.92832377
  Ewald energy   TEWEN  =    -15864.44759748
  -Hartree energ DENC   =     -6075.48998464
  -exchange      EXHF   =         0.00000000
  -V(xc)+E(xc)   XCENC  =       858.71383037
  PAW double counting   =     34618.65682815   -35290.12596879
  entropy T*S    EENTRO =        -0.02351508
  eigenvalues    EBANDS =      1230.67738219
  atomic energy  EATOM  =     20168.87094289
  ---------------------------------------------------
  free energy    TOTEN  =       537.75550380 eV

  energy without entropy =      537.77901888  energy(sigma->0) =      537.76726134


--------------------------------------------------------------------------------------------------------




--------------------------------------- Iteration      1(  15)  ---------------------------------------


    POTLOK:  cpu time    0.0266: real time    0.0266
    SETDIJ:  cpu time    0.0117: real time    0.0117
    TRIAL :  cpu time   10.9192: real time   10.9220
    CORREC:  cpu time    4.4114: real time    4.4132
    CHARGE:  cpu time    0.2940: real time    0.2940
    --------------------------------------------
      LOOP:  cpu time   15.6672: real time   15.6719

 eigenvalue-minimisations  :     0
 total energy-change (2. order) :-0.4712217E+02  (-0.7481156E+03)
 number of electron     257.9999927 magnetization       6.0000000
 augmentation part       78.4079173 magnetization       3.1992740

 Free energy of the ion-electron system (eV)
  ---------------------------------------------------
  alpha Z        PSCENC =       890.92832377
  Ewald energy   TEWEN  =    -15864.44759748
  -Hartree energ DENC   =     -6034.85382798
  -exchange      EXHF   =         0.00000000
  -V(xc)+E(xc)   XCENC  =       858.95347715
  PAW double counting   =     31650.97550330   -32272.95780701
  entropy T*S    EENTRO =        -0.02631753
  eigenvalues    EBANDS =      1093.18783779
  atomic energy  EATOM  =     20168.87094289
  ---------------------------------------------------
  free energy    TOTEN  =       490.63333735 eV

  energy without entropy =      490.65965488  energy(sigma->0) =      490.64649611


--------------------------------------------------------------------------------------------------------




--------------------------------------- Iteration      1(  16)  ---------------------------------------


    POTLOK:  cpu time    0.0272: real time    0.0272
    SETDIJ:  cpu time    0.0117: real time    0.0117
    TRIAL :  cpu time   10.9734: real time   10.9791
    CORREC:  cpu time    4.4398: real time    4.4416
    CHARGE:  cpu time    0.2926: real time    0.2928
    --------------------------------------------
      LOOP:  cpu time   15.7485: real time   15.7561

 eigenvalue-minimisations  :     0
 total energy-change (2. order) :-0.2759423E+03  (-0.2038399E+03)
 number of electron     257.9999924 magnetization       6.0000001
 augmentation part       77.9993948 magnetization       3.1674434

 Free energy of the ion-electron system (eV)
  ---------------------------------------------------
  alpha Z        PSCENC =       890.92832377
  Ewald energy   TEWEN  =    -15864.44759748
  -Hartree energ DENC   =     -5830.87209269
  -exchange      EXHF   =         0.00000000
  -V(xc)+E(xc)   XCENC  =       858.17610994
  PAW double counting   =     31777.25546277   -32377.49978534
  entropy T*S    EENTRO =        -0.02227532
  eigenvalues    EBANDS =       592.30601978
  atomic energy  EATOM  =     20168.87094289
  ---------------------------------------------------
  free energy    TOTEN  =       214.69106609 eV

  energy without entropy =      214.71334141  energy(sigma->0) =      214.70220375


--------------------------------------------------------------------------------------------------------




--------------------------------------- Iteration      1(  17)  ---------------------------------------


    POTLOK:  cpu time    0.0266: real time    0.0266
    SETDIJ:  cpu time    0.0117: real time    0.0117
    TRIAL :  cpu time   10.5373: real time   10.5398
    CORREC:  cpu time    4.3227: real time    4.3655
    CHARGE:  cpu time    0.2871: real time    0.2930
    --------------------------------------------
      LOOP:  cpu time   15.1897: real time   15.2409

 eigenvalue-minimisations  :     0
 total energy-change (2. order) :-0.1707849E+03  (-0.5843877E+02)
 number of electron     257.9999927 magnetization       6.0000001
 augmentation part       77.2871885 magnetization       3.4212899

 Free energy of the ion-electron system (eV)
  ---------------------------------------------------
  alpha Z        PSCENC =       890.92832377
  Ewald energy   TEWEN  =    -15864.44759748
  -Hartree energ DENC   =     -5625.41934684
  -exchange      EXHF   =         0.00000000
  -V(xc)+E(xc)   XCENC  =       857.32316389
  PAW double counting   =     30679.70602344   -31254.32329614
  entropy T*S    EENTRO =        -0.02230548
  eigenvalues    EBANDS =       191.29025274
  atomic energy  EATOM  =     20168.87094289
  ---------------------------------------------------
  free energy    TOTEN  =        43.90619095 eV

  energy without entropy =       43.92849643  energy(sigma->0) =       43.91734369


--------------------------------------------------------------------------------------------------------




--------------------------------------- Iteration      1(  18)  ---------------------------------------


    POTLOK:  cpu time    0.0264: real time    0.0264
    SETDIJ:  cpu time    0.0117: real time    0.0117
    TRIAL :  cpu time   10.5405: real time   10.6661
    CORREC:  cpu time    4.4184: real time    4.4585
    CHARGE:  cpu time    0.2903: real time    0.2910
    --------------------------------------------
      LOOP:  cpu time   15.2914: real time   15.4579

 eigenvalue-minimisations  :     0
 total energy-change (2. order) :-0.5754392E+02  (-0.9218356E+02)
 number of electron     257.9999927 magnetization       6.0000000
 augmentation part       75.8255124 magnetization       3.7344413

 Free energy of the ion-electron system (eV)
  ---------------------------------------------------
  alpha Z        PSCENC =       890.92832377
  Ewald energy   TEWEN  =    -15864.44759748
  -Hartree energ DENC   =     -5664.08947313
  -exchange      EXHF   =         0.00000000
  -V(xc)+E(xc)   XCENC  =       860.10701059
  PAW double counting   =     29188.66451253   -29727.26868124
  entropy T*S    EENTRO =        -0.01730427
  eigenvalues    EBANDS =       133.61954184
  atomic energy  EATOM  =     20168.87094289
  ---------------------------------------------------
  free energy    TOTEN  =       -13.63772572 eV

  energy without entropy =      -13.62042145  energy(sigma->0) =      -13.62907358


--------------------------------------------------------------------------------------------------------




--------------------------------------- Iteration      1(  19)  ---------------------------------------


    POTLOK:  cpu time    0.0267: real time    0.0268
    SETDIJ:  cpu time    0.0117: real time    0.0117
    TRIAL :  cpu time   10.7552: real time   10.9357
    CORREC:  cpu time    4.2778: real time    4.2961
    CHARGE:  cpu time    0.2863: real time    0.2918
    --------------------------------------------
      LOOP:  cpu time   15.3622: real time   15.5666

 eigenvalue-minimisations  :     0
 total energy-change (2. order) :-0.8235966E+02  (-0.3912285E+02)
 number of electron     257.9999929 magnetization       5.9999999
 augmentation part       75.5705764 magnetization       3.8693541

 Free energy of the ion-electron system (eV)
  ---------------------------------------------------
  alpha Z        PSCENC =       890.92832377
  Ewald energy   TEWEN  =    -15864.44759748
  -Hartree energ DENC   =     -5601.83282183
  -exchange      EXHF   =         0.00000000
  -V(xc)+E(xc)   XCENC  =       862.51490920
  PAW double counting   =     27382.75195647   -27855.68983651
  entropy T*S    EENTRO =        -0.02095457
  eigenvalues    EBANDS =       -79.07595552
  atomic energy  EATOM  =     20168.87094289
  ---------------------------------------------------
  free energy    TOTEN  =       -95.99738330 eV

  energy without entropy =      -95.97642873  energy(sigma->0) =      -95.98690601


--------------------------------------------------------------------------------------------------------




--------------------------------------- Iteration      1(  20)  ---------------------------------------


    POTLOK:  cpu time    0.0264: real time    0.0279
    SETDIJ:  cpu time    0.0117: real time    0.0118
    TRIAL :  cpu time   10.7650: real time   11.0347
    CORREC:  cpu time    4.3385: real time    4.4051
    CHARGE:  cpu time    0.2806: real time    0.2896
    --------------------------------------------
      LOOP:  cpu time   15.4228: real time   15.7739

 eigenvalue-minimisations  :     0
 total energy-change (2. order) :-0.3227182E+02  (-0.3355810E+02)
 number of electron     257.9999927 magnetization       5.9999999
 augmentation part       75.9758277 magnetization       4.0636344

 Free energy of the ion-electron system (eV)
  ---------------------------------------------------
  alpha Z        PSCENC =       890.92832377
  Ewald energy   TEWEN  =    -15864.44759748
  -Hartree energ DENC   =     -5599.60292995
  -exchange      EXHF   =         0.00000000
  -V(xc)+E(xc)   XCENC  =       862.25957815
  PAW double counting   =     27010.78619923   -27469.97528228
  entropy T*S    EENTRO =        -0.01626012
  eigenvalues    EBANDS =      -127.06748215
  atomic energy  EATOM  =     20168.87094289
  ---------------------------------------------------
  free energy    TOTEN  =      -128.26920239 eV

  energy without entropy =     -128.25294227  energy(sigma->0) =     -128.26107233


--------------------------------------------------------------------------------------------------------




--------------------------------------- Iteration      1(  21)  ---------------------------------------


    POTLOK:  cpu time    0.0258: real time    0.0262
    SETDIJ:  cpu time    0.0111: real time    0.0118
    TRIAL :  cpu time   10.5885: real time   10.6837
    CORREC:  cpu time    4.1942: real time    4.2151
    CHARGE:  cpu time    0.2849: real time    0.2946
    --------------------------------------------
      LOOP:  cpu time   15.1051: real time   15.2365

 eigenvalue-minimisations  :     0
 total energy-change (2. order) :-0.3234461E+02  (-0.9572506E+01)
 number of electron     257.9999927 magnetization       5.9999999
 augmentation part       76.3001277 magnetization       4.1099475

 Free energy of the ion-electron system (eV)
  ---------------------------------------------------
  alpha Z        PSCENC =       890.92832377
  Ewald energy   TEWEN  =    -15864.44759748
  -Hartree energ DENC   =     -5616.45855591
  -exchange      EXHF   =         0.00000000
  -V(xc)+E(xc)   XCENC  =       862.02678635
  PAW double counting   =     26771.25711913   -27241.50652476
  entropy T*S    EENTRO =        -0.01878622
  eigenvalues    EBANDS =      -131.26804457
  atomic energy  EATOM  =     20168.87094289
  ---------------------------------------------------
  free energy    TOTEN  =      -160.61381072 eV

  energy without entropy =     -160.59502450  energy(sigma->0) =     -160.60441761


--------------------------------------------------------------------------------------------------------




--------------------------------------- Iteration      1(  22)  ---------------------------------------


    POTLOK:  cpu time    0.0265: real time    0.0265
    SETDIJ:  cpu time    0.0119: real time    0.0119
    TRIAL :  cpu time   10.8521: real time   10.8550
    CORREC:  cpu time    4.2919: real time    4.3916
    CHARGE:  cpu time    0.2867: real time    0.2889
    --------------------------------------------
      LOOP:  cpu time   15.4732: real time   15.5780

 eigenvalue-minimisations  :     0
 total energy-change (2. order) :-0.1021464E+02  (-0.1417802E+02)
 number of electron     257.9999923 magnetization       5.9999999
 augmentation part       76.9839413 magnetization       4.2003932

 Free energy of the ion-electron system (eV)
  ---------------------------------------------------
  alpha Z        PSCENC =       890.92832377
  Ewald energy   TEWEN  =    -15864.44759748
  -Hartree energ DENC   =     -5639.48544183
  -exchange      EXHF   =         0.00000000
  -V(xc)+E(xc)   XCENC  =       862.02587260
  PAW double counting   =     26714.79720355   -27196.57530674
  entropy T*S    EENTRO =        -0.01477362
  eigenvalues    EBANDS =      -106.92366323
  atomic energy  EATOM  =     20168.87094289
  ---------------------------------------------------
  free energy    TOTEN  =      -170.82845269 eV

  energy without entropy =     -170.81367907  energy(sigma->0) =     -170.82106588


--------------------------------------------------------------------------------------------------------




--------------------------------------- Iteration      1(  23)  ---------------------------------------


    POTLOK:  cpu time    0.0267: real time    0.0267
    SETDIJ:  cpu time    0.0118: real time    0.0118
    TRIAL :  cpu time   11.0058: real time   11.0600
    CORREC:  cpu time    4.2205: real time    4.2850
    CHARGE:  cpu time    0.3352: real time    0.3579
    --------------------------------------------
      LOOP:  cpu time   15.6043: real time   15.7458

 eigenvalue-minimisations  :     0
 total energy-change (2. order) :-0.1440425E+02  (-0.9682448E+01)
 number of electron     257.9999924 magnetization       5.9999997
 augmentation part       77.0220155 magnetization       4.2651098

 Free energy of the ion-electron system (eV)
  ---------------------------------------------------
  alpha Z        PSCENC =       890.92832377
  Ewald energy   TEWEN  =    -15864.44759748
  -Hartree energ DENC   =     -5686.78446114
  -exchange      EXHF   =         0.00000000
  -V(xc)+E(xc)   XCENC  =       862.80135404
  PAW double counting   =     26508.28101476   -27012.41313657
  entropy T*S    EENTRO =        -0.01457955
  eigenvalues    EBANDS =       -52.45437067
  atomic energy  EATOM  =     20168.87094289
  ---------------------------------------------------
  free energy    TOTEN  =      -185.23270403 eV

  energy without entropy =     -185.21812448  energy(sigma->0) =     -185.22541425


--------------------------------------------------------------------------------------------------------




--------------------------------------- Iteration      1(  24)  ---------------------------------------


    POTLOK:  cpu time    0.0265: real time    0.0265
    SETDIJ:  cpu time    0.0118: real time    0.0118
    TRIAL :  cpu time   10.5979: real time   10.7777
    CORREC:  cpu time    4.1930: real time    4.2114
    CHARGE:  cpu time    0.2976: real time    0.2985
    --------------------------------------------
      LOOP:  cpu time   15.1274: real time   15.3310

 eigenvalue-minimisations  :     0
 total energy-change (2. order) :-0.9902146E+01  (-0.6408174E+01)
 number of electron     257.9999926 magnetization       5.9999996
 augmentation part       76.4610618 magnetization       4.3236678

 Free energy of the ion-electron system (eV)
  ---------------------------------------------------
  alpha Z        PSCENC =       890.92832377
  Ewald energy   TEWEN  =    -15864.44759748
  -Hartree energ DENC   =     -5702.01602491
  -exchange      EXHF   =         0.00000000
  -V(xc)+E(xc)   XCENC  =       863.10599302
  PAW double counting   =     26322.66000638   -26825.69149960
  entropy T*S    EENTRO =        -0.01605079
  eigenvalues    EBANDS =       -48.53041495
  atomic energy  EATOM  =     20168.87094289
  ---------------------------------------------------
  free energy    TOTEN  =      -195.13485045 eV

  energy without entropy =     -195.11879966  energy(sigma->0) =     -195.12682505


--------------------------------------------------------------------------------------------------------




--------------------------------------- Iteration      1(  25)  ---------------------------------------


    POTLOK:  cpu time    0.0261: real time    0.0261
    SETDIJ:  cpu time    0.0118: real time    0.0118
    TRIAL :  cpu time   10.9087: real time   10.9542
    CORREC:  cpu time    4.1733: real time    4.1932
    CHARGE:  cpu time    0.2889: real time    0.2897
    --------------------------------------------
      LOOP:  cpu time   15.4131: real time   15.4793

 eigenvalue-minimisations  :     0
[...]
   20        1.576   3.453   0.000   5.030
   21        1.581   3.447   0.000   5.028
   22        1.581   3.434   0.000   5.015
   23        1.583   3.451   0.000   5.034
   24        1.582   3.421   0.000   5.004
   25        1.582   3.441   0.000   5.023
   26        1.592   3.391   0.000   4.983
   27        1.570   3.493   0.000   5.062
   28        1.561   3.557   0.000   5.118
   29        1.569   3.494   0.000   5.062
   30        1.561   3.536   0.000   5.097
   31        1.571   3.453   0.000   5.025
   32        1.573   3.471   0.000   5.044
   33        1.566   3.505   0.000   5.071
   34        1.567   3.498   0.000   5.065
   35        1.585   3.425   0.000   5.010
   36        1.580   3.419   0.000   4.999
   37        1.579   3.411   0.000   4.991
   38        1.576   3.483   0.000   5.059
   39        1.565   3.531   0.000   5.096
   40        1.566   3.517   0.000   5.083
   41        1.569   3.463   0.000   5.032
   42        1.571   3.521   0.000   5.092
--------------------------------------------------
tot         44.540  95.130  89.269 228.938
 


 magnetization (x)
 
# of ion       s       p       d       tot
------------------------------------------
    1        0.000  -0.003   0.000  -0.002
    2        0.000  -0.000   0.000   0.000
    3       -0.001  -0.004   0.000  -0.005
    4       -0.001  -0.004   0.000  -0.006
    5        0.000   0.000   0.000   0.001
    6       -0.000  -0.001   0.000  -0.001
    7        0.004   0.005  -0.000   0.009
    8        0.010   0.014   1.151   1.175
    9        0.011   0.016   1.186   1.213
   10        0.011   0.016   1.216   1.244
   11        0.004   0.004  -0.015  -0.006
   12        0.001   0.001  -0.018  -0.016
   13        0.007   0.010   1.169   1.185
   14        0.000   0.001  -0.012  -0.011
   15        0.007   0.008   1.094   1.110
   16        0.007   0.009  -0.005   0.011
   17        0.002   0.003  -0.012  -0.006
   18        0.008   0.010   1.176   1.194
   19        0.001  -0.052   0.000  -0.051
   20        0.001  -0.054   0.000  -0.053
   21        0.001  -0.064   0.000  -0.063
   22        0.001  -0.062   0.000  -0.060
   23        0.001  -0.062   0.000  -0.061
   24        0.001  -0.079   0.000  -0.078
   25        0.001  -0.051   0.000  -0.050
   26        0.002  -0.094   0.000  -0.092
   27        0.000  -0.031   0.000  -0.031
   28       -0.000  -0.037   0.000  -0.038
   29        0.001  -0.008   0.000  -0.007
   30       -0.000  -0.001   0.000  -0.001
   31       -0.001  -0.010   0.000  -0.011
   32        0.000  -0.032   0.000  -0.032
   33       -0.000  -0.041   0.000  -0.041
   34        0.001  -0.009   0.000  -0.009
   35        0.001  -0.016   0.000  -0.016
   36        0.001  -0.058   0.000  -0.057
   37       -0.000  -0.099   0.000  -0.099
   38        0.000  -0.027   0.000  -0.027
   39        0.000  -0.053   0.000  -0.053
   40        0.001  -0.003   0.000  -0.002
   41        0.001  -0.014   0.000  -0.013
   42        0.001  -0.018   0.000  -0.017
--------------------------------------------------
tot          0.083  -0.889   6.930   6.125
 
    FORLOC:  cpu time    0.0057: real time    0.0057
    FORNL :  cpu time    2.9020: real time    2.9152
    STRESS:  cpu time    8.6351: real time    8.7223
    FORCOR:  cpu time    0.0285: real time    0.0287
    OFIELD:  cpu time    0.0002: real time    0.0002

  DFT-D2 method for vdW energy calculation
  -------------------------------------------------------------------

  Parameters of vdW forcefield:
         C6(Jnm^6/mol)     R0(A)
   -----------------------------
   Li       1.610          0.825
   Co      10.800          1.562
   O        0.700          1.342

  IVDW =   1
  VDW_RADIUS =    50.000 A
  VDW_S6 =     0.750
  VDW_SR =     1.000
  VDW_D =    20.000
  LVDW_EWALD = F

  Number of pair interactions contributing to vdW energy: 1437475
  Edisp (eV):  -11.56780
    FORVDW:  cpu time    0.1968: real time    0.1979

  FORCE on cell =-STRESS in cart. coord.  units (eV):
  Direction    XX          YY          ZZ          XY          YZ          ZX
  --------------------------------------------------------------------------------------
  Alpha Z   890.92832   890.92832   890.92832
  Ewald   -3261.21272 -3118.81519 -9484.49063   -24.35128   -40.16352    -5.26640
  Hartree  3321.66825  3381.18420 -1049.50127    -8.56749   -18.47646    -0.77772
  E(xc)   -1297.85997 -1298.50872 -1297.99593    -0.06220     0.39759    -0.02104
  Local   -5154.22700 -5373.13749  5403.12108    28.74064    68.85304     4.08679
  n-local  -574.27764  -572.45316  -579.05259    -1.14602    -1.12812    -0.94644
  augment  2010.88735  2026.22790  1989.76499     1.91511    -6.85999     1.25590
  Kinetic  4123.72871  4132.40368  4178.61758     2.88997    -9.99110     0.53572
  Fock        0.00000     0.00000     0.00000     0.00000     0.00000     0.00000
  vdW        -8.45261    -8.90301   -15.62681     0.20518    -0.23649     0.20904
  -------------------------------------------------------------------------------------
  Total      51.18267    58.92653    35.76475    -0.37609    -7.60506    -0.92415
  in kB     249.20779   286.91253   174.13810    -1.83116   -37.02892    -4.49967
  external pressure =      236.75 kB  Pullay stress =        0.00 kB


 VOLUME and BASIS-vectors are now :
 -----------------------------------------------------------------------------
  energy-cutoff  :      600.00
  volume of cell :      329.06
      direct lattice vectors                 reciprocal lattice vectors
     5.375248909  0.000000000  0.000000000     0.186037896  0.107419748 -0.001035705
    -2.697931528  4.672488213  0.000000000     0.000000000  0.214018731 -0.000729716
     0.047145542  0.044671178 13.101624489     0.000000000  0.000000000  0.076326413

  length of vectors
     5.375248909  5.395459260 13.101785468     0.214825915  0.214019975  0.076326413


 FORCES acting on ions:
    Electron-Ion                     Ewald-Force                    Non-Local-Force
 -----------------------------------------------------------------------------------------------
   0.186E+01 0.544E+01 -.114E+01   -.175E+01 -.511E+01 0.892E+00   -.326E+00 -.926E+00 -.133E+00
   -.236E+01 0.644E+00 0.129E+02   0.235E+01 -.553E+00 -.125E+02   0.832E+00 0.161E+00 -.991E+00
   0.756E+00 -.207E+01 0.189E+02   -.806E+00 0.191E+01 -.184E+02   -.296E-01 0.632E+00 -.177E+01
   -.298E+01 0.553E+01 -.463E+01   0.270E+01 -.522E+01 0.447E+01   0.555E+00 -.177E+01 0.110E+01
   -.410E+01 -.624E-01 -.110E+02   0.403E+01 0.181E+00 0.107E+02   0.901E+00 0.551E-01 0.148E+01
   0.374E+01 -.523E+00 0.441E+01   -.365E+01 0.572E+00 -.482E+01   -.926E+00 0.280E+00 -.110E+00
   -.874E+01 0.141E+01 0.704E+01   0.979E+01 -.774E+00 -.771E+01   0.221E+00 -.511E+00 -.163E+00
   0.253E+01 0.174E+02 -.506E+02   -.209E+01 -.185E+02 0.509E+02   0.272E-01 -.361E+00 -.378E+00
   -.373E+01 -.921E+01 -.133E+02   0.381E+01 0.957E+01 0.132E+02   0.484E+00 -.361E+00 0.366E+00
   -.491E+01 0.416E+01 -.719E+01   0.437E+01 -.475E+01 0.699E+01   -.126E+00 0.386E+00 0.801E+00
   0.363E+02 -.169E+02 0.533E+02   -.369E+02 0.174E+02 -.544E+02   -.206E+01 -.482E+00 0.893E+00
   0.950E+01 -.107E+02 0.319E+02   -.995E+01 0.122E+02 -.330E+02   -.425E+00 0.890E+00 0.781E+00
   -.482E+01 -.121E+02 0.601E+02   0.320E+01 0.121E+02 -.606E+02   0.274E+00 -.111E+00 0.149E-01
   0.150E+01 0.359E+02 0.162E+02   -.121E+01 -.373E+02 -.178E+02   -.483E+00 -.470E+00 0.145E+00
   -.371E+02 0.200E+02 0.145E+01   0.393E+02 -.216E+02 -.496E+00   -.566E+00 -.487E+00 -.852E+00
   0.676E+02 -.155E+02 -.387E+02   -.710E+02 0.167E+02 0.400E+02   -.117E+01 -.123E+00 -.930E+00
   0.159E+02 -.272E+02 -.359E+02   -.172E+02 0.278E+02 0.372E+02   0.886E+00 -.681E+00 -.505E+00
   -.158E+02 0.502E+02 -.350E+02   0.165E+02 -.522E+02 0.387E+02   -.864E+00 -.498E+00 -.479E+00
   0.842E+01 -.223E+01 -.302E+03   -.768E+01 0.540E+01 0.326E+03   -.156E+01 -.383E+01 -.246E+02
   -.329E+01 -.366E+01 -.300E+03   0.634E+01 0.426E+01 0.323E+03   -.394E+01 -.571E+00 -.234E+02
   -.119E+02 0.728E+01 -.310E+03   0.114E+02 -.925E+01 0.334E+03   0.104E+01 0.206E+01 -.244E+02
   0.108E+02 -.172E+01 -.305E+03   -.146E+02 0.193E+00 0.330E+03   0.429E+01 0.181E+01 -.253E+02
   0.288E+02 -.178E+02 0.280E+03   -.349E+02 0.207E+02 -.305E+03   0.517E+01 -.202E+01 0.255E+02
   0.110E+01 0.172E+02 0.281E+03   -.246E+01 -.212E+02 -.307E+03   0.127E+01 0.430E+01 0.254E+02
   -.185E+02 -.125E+02 0.278E+03   0.232E+02 0.158E+02 -.303E+03   -.444E+01 -.281E+01 0.261E+02
   0.435E+00 -.101E+01 0.296E+03   0.107E+01 0.116E+01 -.326E+03   -.204E+01 0.180E+00 0.300E+02
   -.174E+02 -.272E+02 -.264E+03   0.201E+02 0.306E+02 0.285E+03   -.174E+01 -.189E+01 -.217E+02
   -.118E+01 -.407E+01 -.258E+03   0.319E+00 0.596E+01 0.274E+03   0.112E+01 -.792E+00 -.158E+02
   0.164E+01 0.129E+02 -.267E+03   -.329E+01 -.129E+02 0.288E+03   0.180E+01 -.171E+01 -.214E+02
   0.949E+01 0.213E+02 -.262E+03   -.887E+01 -.260E+02 0.279E+03   -.135E+01 0.375E+01 -.173E+02
   -.362E+02 -.122E+02 0.314E+03   0.423E+02 0.153E+02 -.338E+03   -.430E+01 -.290E+01 0.241E+02
   -.268E+02 -.304E+01 0.321E+03   0.311E+02 0.330E+01 -.345E+03   -.252E+01 -.250E+00 0.227E+02
   0.237E+02 0.128E+02 0.301E+03   -.293E+02 -.140E+02 -.319E+03   0.563E+01 0.384E-01 0.200E+02
   0.854E+01 -.180E+01 0.311E+03   -.103E+02 -.111E+01 -.331E+03   0.158E+01 0.433E+01 0.204E+02
   0.302E+02 -.562E+01 -.333E+03   -.335E+02 0.584E+01 0.362E+03   0.287E+01 -.648E+00 -.284E+02
   -.761E+01 0.347E+02 -.301E+03   0.762E+01 -.374E+02 0.326E+03   0.401E+00 0.226E+01 -.249E+02
   -.175E+02 -.457E+02 -.289E+03   0.183E+02 0.526E+02 0.312E+03   -.483E+00 -.498E+01 -.246E+02
   -.220E+02 0.675E+01 -.322E+03   0.264E+02 -.725E+01 0.348E+03   -.285E+01 0.407E+00 -.251E+02
   -.600E+01 -.561E+01 0.285E+03   0.619E+01 0.931E+01 -.304E+03   0.953E-01 -.356E+01 0.180E+02
   -.168E+01 -.748E+01 0.266E+03   0.180E+01 0.561E+01 -.285E+03   0.356E+00 0.296E+01 0.183E+02
   0.195E+02 -.118E+02 0.275E+03   -.210E+02 0.150E+02 -.296E+03   0.102E+01 -.297E+01 0.213E+02
   -.249E+02 0.113E+02 0.298E+03   0.282E+02 -.144E+02 -.321E+03   -.200E+01 0.330E+01 0.221E+02
 -----------------------------------------------------------------------------------------------
   0.333E+01 0.792E+01 0.357E+01   0.178E-13 -.124E-13 0.114E-11   -.337E+01 -.792E+01 -.360E+01
 
 
 POSITION                                       TOTAL-FORCE (eV/Angst)
 -----------------------------------------------------------------------------------
      2.75197      0.05560      0.00315        -0.135272     -0.426958     -0.356610
      3.86642      0.63789      4.49726         0.739606      0.260871     -0.485825
      2.72148      3.02549      4.54008        -0.082747      0.357885     -1.031270
     -0.15937      1.81458      8.69770         0.198281     -1.076319      0.850066
     -1.46046      3.89860      8.65089         0.659751      0.054049      0.835837
      1.46697      3.92251      8.78065        -0.609835      0.280860     -0.607326
      0.05415      1.50171      2.15552         1.134837      0.151693     -0.626692
     -1.25895      3.87939      2.21768         0.469181     -1.359501     -0.081297
      2.77344      1.50735      2.13647         0.534830     -0.004940      0.293038
      1.46500      3.84685      2.11372        -0.680965     -0.189404      0.611728
      2.70856      4.64487      6.55117        -2.379656     -0.018579     -0.120941
      4.01082      2.25096      6.57156        -0.802475      2.128505     -0.357702
      0.01759      4.64021      6.56027        -1.357511     -0.277041     -0.159922
      1.32601      2.30861      6.61453        -0.183206     -1.543339     -1.272186
      1.29148      0.97176     10.94775         1.437936     -1.923000      0.203061
      0.06803      3.24314     10.95085        -4.041650      1.036102      0.086517
      3.99487      0.93961     10.94475        -0.384012     -0.245318      0.665862
      2.67079      3.30898     10.88565        -0.006159     -2.107789      2.892772
     -2.58417      4.65367      3.20924        -0.767219     -0.605086     -0.290658
     -1.25167      2.28476      3.16435        -0.805052      0.071336      0.219503
      0.08837      4.63146      3.15845         0.484713      0.071348     -0.226020
      1.42887      2.29368      3.09721         0.408742      0.243714      0.465119
      1.47212      0.66929      1.18082        -0.997117      0.889729      0.043963
      0.07196      3.07982      1.19560        -0.077023      0.221829     -0.302577
      4.10075      0.69583      1.11660         0.291466      0.505567      0.622276
      2.84618      3.06281      1.19501        -0.550739      0.325617     -0.436529
      1.32757      0.67448      7.57811         0.975863      1.571934     -0.137389
     -0.02258      3.08737      7.57164         0.262038      1.029496      0.056557
      3.98944      0.79519      7.61991         0.092144     -1.605158     -0.369637
      2.69486      3.14157      7.60906        -0.713762     -1.028776     -0.160904
     -0.12297      1.49069      5.51740         1.802418      0.313635      0.368075
     -1.39066      3.84214      5.60499         1.821880      0.050059     -0.548485
      2.63665      1.54602      5.50368         0.053677     -1.170455      1.387753
      1.31016      3.76848      5.54127        -0.216000      1.405285      0.334022
      0.01929      1.72061     11.91855        -0.459322     -0.425574      0.784524
     -1.41649      4.09271     11.89925         0.328557     -0.525824     -0.066639
      2.61316      1.59616     12.01685         0.372758      2.018079     -1.392854
      1.32240      4.05123     11.90355         1.598798     -0.129010      0.369430
     -0.03078      0.17268      9.93435         0.274188      0.122217     -0.987562
      3.97059      2.45841      9.97345         0.424535      1.050702     -0.579122
      2.67682      0.11234      9.90755        -0.489810      0.379871      0.338088
      1.29970      2.46122      9.93025         1.373333      0.121686     -0.830046
 -----------------------------------------------------------------------------------
    total drift:                               -0.041753     -0.008598     -0.035022


--------------------------------------------------------------------------------------------------------



  FREE ENERGIE OF THE ION-ELECTRON SYSTEM (eV)
  ---------------------------------------------------
  free  energy   TOTEN  =      -231.11756905 eV

  energy  without entropy=     -231.11756905  energy(sigma->0) =     -231.11756905
 


--------------------------------------------------------------------------------------------------------


    POTLOK:  cpu time    0.0542: real time    0.0542


--------------------------------------------------------------------------------------------------------


     LOOP+:  cpu time 1985.6560: real time 2009.3395
    4ORBIT:  cpu time    0.0000: real time    0.0000
 


 total charge     
 
# of ion       s       p       d       tot
------------------------------------------
    1        0.139   0.322   0.000   0.460
    2        0.135   0.310   0.000   0.445
    3        0.132   0.306   0.000   0.438
    4        0.138   0.321   0.000   0.459
    5        0.143   0.334   0.000   0.477
    6        0.134   0.307   0.000   0.441
    7        0.471   0.782   7.472   8.725
    8        0.521   0.902   7.368   8.791
    9        0.513   0.873   7.359   8.744
   10        0.501   0.842   7.336   8.678
   11        0.493   0.823   7.584   8.900
   12        0.493   0.831   7.565   8.889
   13        0.481   0.800   7.294   8.576
   14        0.459   0.751   7.459   8.669
   15        0.523   0.896   7.388   8.807
   16        0.498   0.833   7.589   8.920
   17        0.486   0.818   7.534   8.838
   18        0.494   0.822   7.322   8.638
   19        1.578   3.442   0.000   5.019
   20        1.576   3.453   0.000   5.030
   21        1.581   3.447   0.000   5.028
   22        1.581   3.434   0.000   5.015
   23        1.583   3.451   0.000   5.034
   24        1.582   3.421   0.000   5.004
   25        1.582   3.441   0.000   5.023
   26        1.592   3.391   0.000   4.983
   27        1.570   3.493   0.000   5.062
   28        1.561   3.557   0.000   5.118
   29        1.569   3.494   0.000   5.062
   30        1.561   3.536   0.000   5.097
   31        1.571   3.453   0.000   5.025
   32        1.573   3.471   0.000   5.044
   33        1.566   3.505   0.000   5.071
   34        1.567   3.498   0.000   5.065
   35        1.585   3.425   0.000   5.010
   36        1.580   3.419   0.000   4.999
   37        1.579   3.411   0.000   4.991
   38        1.576   3.483   0.000   5.059
   39        1.565   3.531   0.000   5.096
   40        1.566   3.517   0.000   5.083
   41        1.569   3.463   0.000   5.032
   42        1.571   3.521   0.000   5.092
--------------------------------------------------
tot         44.540  95.130  89.269 228.938
 


 magnetization (x)
 
# of ion       s       p       d       tot
------------------------------------------
    1        0.000  -0.003   0.000  -0.002
    2        0.000  -0.000   0.000   0.000
    3       -0.001  -0.004   0.000  -0.005
    4       -0.001  -0.004   0.000  -0.006
    5        0.000   0.000   0.000   0.001
    6       -0.000  -0.001   0.000  -0.001
    7        0.004   0.005  -0.000   0.009
    8        0.010   0.014   1.151   1.175
    9        0.011   0.016   1.186   1.213
   10        0.011   0.016   1.216   1.244
   11        0.004   0.004  -0.015  -0.006
   12        0.001   0.001  -0.018  -0.016
   13        0.007   0.010   1.169   1.185
   14        0.000   0.001  -0.012  -0.011
   15        0.007   0.008   1.094   1.110
   16        0.007   0.009  -0.005   0.011
   17        0.002   0.003  -0.012  -0.006
   18        0.008   0.010   1.176   1.194
   19        0.001  -0.052   0.000  -0.051
   20        0.001  -0.054   0.000  -0.053
   21        0.001  -0.064   0.000  -0.063
   22        0.001  -0.062   0.000  -0.060
   23        0.001  -0.062   0.000  -0.061
   24        0.001  -0.079   0.000  -0.078
   25        0.001  -0.051   0.000  -0.050
   26        0.002  -0.094   0.000  -0.092
   27        0.000  -0.031   0.000  -0.031
   28       -0.000  -0.037   0.000  -0.038
   29        0.001  -0.008   0.000  -0.007
   30       -0.000  -0.001   0.000  -0.001
   31       -0.001  -0.010   0.000  -0.011
   32        0.000  -0.032   0.000  -0.032
   33       -0.000  -0.041   0.000  -0.041
   34        0.001  -0.009   0.000  -0.009
   35        0.001  -0.016   0.000  -0.016
   36        0.001  -0.058   0.000  -0.057
   37       -0.000  -0.099   0.000  -0.099
   38        0.000  -0.027   0.000  -0.027
   39        0.000  -0.053   0.000  -0.053
   40        0.001  -0.003   0.000  -0.002
   41        0.001  -0.014   0.000  -0.013
   42        0.001  -0.018   0.000  -0.017
--------------------------------------------------
tot          0.083  -0.889   6.930   6.125
 

 total amount of memory used by VASP MPI-rank0   137057. kBytes
=======================================================================

   base      :      30000. kBytes
   nonlr-proj:       3615. kBytes
   fftplans  :       1013. kBytes
   grid      :       2556. kBytes
   one-center:        342. kBytes
   wavefun   :      99531. kBytes
 
  
  
 General timing and accounting informations for this job:
 ========================================================
  
                  Total CPU time used (sec):     2009.684
                            User time (sec):     1825.462
                          System time (sec):      184.222
                         Elapsed time (sec):     2033.910
  
                   Maximum memory used (kb):      665632.
                   Average memory used (kb):           0.
  
                          Minor page faults:       242920
                          Major page faults:           56
                 Voluntary context switches:          541
