 vasp.5.4.4.18Apr17-6-g9f103f2a35 (build Nov 22 2021 14:44:17) complex          
  
 executed on             LinuxIFC date 2022.08.06  11:36:56
 running on   64 total cores
 distrk:  each k-point on   64 cores,    1 groups
 distr:  one band on NCORES_PER_BAND=   4 cores,   16 groups


--------------------------------------------------------------------------------------------------------


 INCAR:
 POTCAR:    PAW_PBE Li 17Jan2003                  
 POTCAR:    PAW_PBE Co 02Aug2007                  
 POTCAR:    PAW_PBE O 08Apr2002                   
 POTCAR:    PAW_PBE Li 17Jan2003                  
   VRHFIN =Li: s1p0                                                             
   LEXCH  = PE                                                                  
   EATOM  =     5.3001 eV,    0.3895 Ry                                         
                                                                                
   TITEL  = PAW_PBE Li 17Jan2003                                                
   LULTRA =        F    use ultrasoft PP ?                                      
   IUNSCR =        1    unscreen: 0-lin 1-nonlin 2-no                           
   RPACOR =    1.500    partial core radius                                     
   POMASS =    7.010; ZVAL   =    1.000    mass and valenz                      
   RCORE  =    2.050    outmost cutoff radius                                   
   RWIGS  =    2.600; RWIGS  =    1.376    wigner-seitz radius (au A)           
   ENMAX  =  140.000; ENMIN  =  100.000 eV                                      
   ICORE  =        2    local potential                                         
   LCOR   =        T    correct aug charges                                     
   LPAW   =        T    paw PP                                                  
   EAUG   =  331.638                                                            
   DEXC   =    0.000                                                            
   RMAX   =    2.098    core radius for proj-oper                               
   RAUG   =    1.300    factor for augmentation sphere                          
   RDEP   =    2.094    radius for radial grids                                 
   RDEPT  =    1.810    core radius for aug-charge                              
                                                                                
   Atomic configuration                                                         
    4 entries                                                                   
     n  l   j            E        occ.                                          
     1  0  0.50       -51.8549   2.0000                                         
     2  0  0.50        -2.8742   1.0000                                         
     2  1  0.50        -1.3606   0.0000                                         
     3  2  1.50        -1.3606   0.0000                                         
   Description                                                                  
     l       E           TYP  RCUT    TYP  RCUT                                 
     0     -2.8742052     23  2.050                                             
     0     27.2116520     23  2.050                                             
     1     -1.3605826     23  2.050                                             
     2     -1.3605826     23  2.050                                             
  local pseudopotential read in
  partial core-charges read in
  partial kinetic energy density read in
  atomic valenz-charges read in
  non local Contribution for L=           0  read in
    real space projection operators read in
  non local Contribution for L=           0  read in
    real space projection operators read in
  non local Contribution for L=           1  read in
    real space projection operators read in
    PAW grid and wavefunctions read in
 
   number of l-projection  operators is LMAX  =           3
   number of lm-projection operators is LMMAX =           5
 
 POTCAR:    PAW_PBE Co 02Aug2007                  
   VRHFIN =Co: d8 s1                                                            
   LEXCH  = PE                                                                  
   EATOM  =   813.3670 eV,   59.7808 Ry                                         
                                                                                
   TITEL  = PAW_PBE Co 02Aug2007                                                
   LULTRA =        F    use ultrasoft PP ?                                      
   IUNSCR =        1    unscreen: 0-lin 1-nonlin 2-no                           
   RPACOR =    2.000    partial core radius                                     
   POMASS =   58.933; ZVAL   =    9.000    mass and valenz                      
   RCORE  =    2.300    outmost cutoff radius                                   
   RWIGS  =    2.460; RWIGS  =    1.302    wigner-seitz radius (au A)           
   ENMAX  =  267.968; ENMIN  =  200.976 eV                                      
   RCLOC  =    1.203    cutoff for local pot                                    
   LCOR   =        T    correct aug charges                                     
   LPAW   =        T    paw PP                                                  
   EAUG   =  477.818                                                            
   DEXC   =    0.000                                                            
   RMAX   =    2.360    core radius for proj-oper                               
   RAUG   =    1.300    factor for augmentation sphere                          
   RDEP   =    2.393    radius for radial grids                                 
   RDEPT  =    1.864    core radius for aug-charge                              
                                                                                
   Atomic configuration                                                         
    9 entries                                                                   
     n  l   j            E        occ.                                          
     1  0  0.50     -7587.6674   2.0000                                         
     2  0  0.50      -893.6084   2.0000                                         
     2  1  1.50      -764.5805   6.0000                                         
     3  0  0.50       -97.5973   2.0000                                         
     3  1  1.50       -60.9648   6.0000                                         
     3  2  2.50        -4.2382   8.0000                                         
     4  0  0.50        -4.3746   1.0000                                         
     4  1  1.50        -4.0817   0.0000                                         
     4  3  2.50        -1.3606   0.0000                                         
   Description                                                                  
     l       E           TYP  RCUT    TYP  RCUT                                 
     2     -4.2382362     23  2.300                                             
     2     -5.5988188     23  2.300                                             
     0     -4.3745797     23  2.300                                             
     0      5.7660125     23  2.300                                             
     1     -2.7211652     23  2.300                                             
     1     16.9860234     23  2.300                                             
  local pseudopotential read in
  partial core-charges read in
  partial kinetic energy density read in
  atomic valenz-charges read in
  non local Contribution for L=           2  read in
    real space projection operators read in
  non local Contribution for L=           2  read in
    real space projection operators read in
  non local Contribution for L=           0  read in
    real space projection operators read in
  non local Contribution for L=           0  read in
    real space projection operators read in
  non local Contribution for L=           1  read in
    real space projection operators read in
  non local Contribution for L=           1  read in
    real space projection operators read in
    PAW grid and wavefunctions read in
 
   number of l-projection  operators is LMAX  =           6
   number of lm-projection operators is LMMAX =          18
 
 POTCAR:    PAW_PBE O 08Apr2002                   
   VRHFIN =O: s2p4                                                              
   LEXCH  = PE                                                                  
   EATOM  =   432.3788 eV,   31.7789 Ry                                         
                                                                                
   TITEL  = PAW_PBE O 08Apr2002                                                 
   LULTRA =        F    use ultrasoft PP ?                                      
   IUNSCR =        1    unscreen: 0-lin 1-nonlin 2-no                           
   RPACOR =    1.200    partial core radius                                     
   POMASS =   16.000; ZVAL   =    6.000    mass and valenz                      
   RCORE  =    1.520    outmost cutoff radius                                   
   RWIGS  =    1.550; RWIGS  =    0.820    wigner-seitz radius (au A)           
   ENMAX  =  400.000; ENMIN  =  300.000 eV                                      
   ICORE  =        2    local potential                                         
   LCOR   =        T    correct aug charges                                     
   LPAW   =        T    paw PP                                                  
   EAUG   =  605.392                                                            
   DEXC   =    0.000                                                            
   RMAX   =    1.553    core radius for proj-oper                               
   RAUG   =    1.300    factor for augmentation sphere                          
   RDEP   =    1.550    radius for radial grids                                 
   RDEPT  =    1.329    core radius for aug-charge                              
                                                                                
   Atomic configuration                                                         
    4 entries                                                                   
     n  l   j            E        occ.                                          
     1  0  0.50      -514.6923   2.0000                                         
     2  0  0.50       -23.9615   2.0000                                         
     2  1  0.50        -9.0305   4.0000                                         
     3  2  1.50        -9.5241   0.0000                                         
   Description                                                                  
     l       E           TYP  RCUT    TYP  RCUT                                 
     0    -23.9615318     23  1.200                                             
     0     -9.5240782     23  1.200                                             
     1     -9.0304911     23  1.520                                             
     1      8.1634956     23  1.520                                             
     2     -9.5240782      7  1.500                                             
  local pseudopotential read in
  partial core-charges read in
  partial kinetic energy density read in
  kinetic energy density of atom read in
  atomic valenz-charges read in
  non local Contribution for L=           0  read in
    real space projection operators read in
  non local Contribution for L=           0  read in
    real space projection operators read in
  non local Contribution for L=           1  read in
    real space projection operators read in
  non local Contribution for L=           1  read in
    real space projection operators read in
    PAW grid and wavefunctions read in
 
   number of l-projection  operators is LMAX  =           4
   number of lm-projection operators is LMMAX =           8
 
 Optimization of the real space projectors (new method)

 maximal supplied QI-value         = 18.33
 optimisation between [QCUT,QGAM] = [ 12.46, 24.93] = [ 43.51,174.03] Ry 
 Optimized for a Real-space Cutoff    1.13 Angstroem

   l    n(q)    QCUT    max X(q) W(low)/X(q) W(high)/X(q)  e(spline) 
   0      8    12.465    33.825    0.12E-03    0.29E-03    0.99E-07
   0      8    12.465     8.944    0.86E-04    0.22E-03    0.72E-07
   1      8    12.465     4.214    0.27E-03    0.11E-03    0.82E-07
 Optimization of the real space projectors (new method)

 maximal supplied QI-value         = 16.25
 optimisation between [QCUT,QGAM] = [ 12.51, 25.03] = [ 43.85,175.40] Ry 
 Optimized for a Real-space Cutoff    1.31 Angstroem

   l    n(q)    QCUT    max X(q) W(low)/X(q) W(high)/X(q)  e(spline) 
   2      9    12.514    65.824    0.30E-03    0.46E-03    0.43E-06
   2      9    12.514    61.429    0.31E-03    0.46E-03    0.44E-06
   0     10    12.514    56.174    0.90E-04    0.33E-03    0.30E-06
   0     10    12.514    31.263    0.81E-04    0.30E-03    0.28E-06
   1      9    12.514    19.828    0.38E-03    0.65E-04    0.24E-06
   1      9    12.514    15.139    0.32E-03    0.60E-04    0.20E-06
 Optimization of the real space projectors (new method)

 maximal supplied QI-value         = 24.76
 optimisation between [QCUT,QGAM] = [ 12.38, 25.00] = [ 42.90,175.06] Ry 
 Optimized for a Real-space Cutoff    1.13 Angstroem

   l    n(q)    QCUT    max X(q) W(low)/X(q) W(high)/X(q)  e(spline) 
   0      8    12.378    20.381    0.16E-03    0.54E-05    0.27E-06
   0      8    12.378    15.268    0.17E-03    0.61E-05    0.29E-06
   1      8    12.378     5.964    0.38E-03    0.23E-03    0.28E-06
   1      8    12.378     5.382    0.33E-03    0.20E-03    0.25E-06
  PAW_PBE Li 17Jan2003                  :
 energy of atom  1       EATOM=   -5.3001
 kinetic energy error for atom=    0.0000 (will be added to EATOM!!)
  PAW_PBE Co 02Aug2007                  :
 energy of atom  2       EATOM= -813.3670
 kinetic energy error for atom=    0.0018 (will be added to EATOM!!)
  PAW_PBE O 08Apr2002                   :
 energy of atom  3       EATOM= -432.3788
 kinetic energy error for atom=    0.0168 (will be added to EATOM!!)
 
 
 POSCAR: Li6 Co12 O24                            
  positions in cartesian coordinates
  No initial velocities read in
 exchange correlation table for  LEXCH =        8
   RHO(1)=    0.500       N(1)  =     2000
   RHO(2)=  100.500       N(2)  =     4000
 


--------------------------------------------------------------------------------------------------------


 ion  position               nearest neighbor table
   1  0.483  0.028  0.992-  37 1.90  24 2.01  38 2.22  23 2.22  36 2.24  25 2.52  15 2.76  17 2.81
                             8 2.84  10 3.10  16 3.11
   2  0.900  0.764  0.347-  34 1.89  32 1.94  19 2.15  22 2.39  20 2.40  11 2.44  33 2.52  10 2.94
                             8 2.96  12 3.05  14 3.08   9 3.15
   3  0.186  0.311  0.669-  42 1.88  39 2.04  27 2.08  28 2.13  40 2.24   5 2.26  29 2.28   4 2.56
                            15 2.63  14 2.73   6 2.73  12 2.82  16 2.84  17 2.95  11 3.03   6 3.05
   4  0.107  0.824  0.671-  39 1.90  41 1.93  27 1.99  40 1.99  30 2.12  28 2.42   3 2.56  11 2.70
                             6 2.72  18 2.74  15 2.76   5 2.78  16 2.84   6 2.89   5 2.97  12 3.08
   5  0.588  0.309  0.677-  42 1.75  41 1.84  27 2.04  40 2.17  30 2.19   3 2.26  29 2.55  15 2.59
                            14 2.75  17 2.76   4 2.78   6 2.80  18 2.82   6 2.86   4 2.97  12 3.12
   6  0.620  0.820  0.672-  41 1.89  29 1.95  28 1.98  42 2.06  39 2.12  30 2.43   4 2.72  16 2.73
                             3 2.73  17 2.79   5 2.80  13 2.83   5 2.86  18 2.87   4 2.89  14 3.02
   7  0.221  0.406  0.162-  23 1.86  20 1.88  25 1.91  22 1.93  24 1.94  19 1.95  10 2.78   9 2.79
                             8 2.81   9 2.83   8 2.85  10 2.97
   8  0.225  0.904  0.171-  24 1.87  26 1.91  21 1.92  20 1.94  19 1.96  23 1.98  10 2.78   9 2.80
                             7 2.81  10 2.83   1 2.84   7 2.85   9 2.94   2 2.96
   9  0.716  0.388  0.174-  26 1.82  23 1.86  25 1.89  21 1.89  20 1.92  22 1.95   7 2.79   8 2.80
                            10 2.81   7 2.83  10 2.84   8 2.94   2 3.15
  10  0.710  0.884  0.169-  26 1.80  24 1.85  22 1.88  19 1.89  21 1.94  25 1.96   8 2.78   7 2.78
                             9 2.81   8 2.83   9 2.84   2 2.94   7 2.97   1 3.10
  11  0.998  0.960  0.500-  32 1.87  31 1.89  27 1.91  34 1.92  30 1.92  29 1.94   2 2.44   4 2.70
                            13 2.71  12 2.78  14 2.83  12 2.87  13 2.90  14 2.91   3 3.03   6 3.07
  12  0.986  0.446  0.507-  33 1.78  30 1.91  29 1.94  31 1.98  28 2.03  32 2.10  14 2.71  11 2.78
                            13 2.79   3 2.82  11 2.87  14 2.90  13 2.97   2 3.05   4 3.08   5 3.12
  13  0.489  0.975  0.498-  32 1.76  33 1.89  27 1.91  28 1.92  34 1.92  29 1.99  11 2.71  12 2.79
                            14 2.80   6 2.83  14 2.85  11 2.90  12 2.97   4 3.09   5 3.13
  14  0.479  0.465  0.505-  31 1.76  28 1.88  30 1.89  27 1.97  33 1.98  34 2.02  12 2.71   3 2.73
                             5 2.75  13 2.80  11 2.83  13 2.85  12 2.90  11 2.91   6 3.02   2 3.08
  15  0.288  0.130  0.827-  37 1.86  36 1.89  39 1.89  42 1.95  35 1.96  41 1.98   5 2.59   3 2.63
                             4 2.76   1 2.76  17 2.78  16 2.79  18 2.81  17 2.83  16 2.86  18 2.93
  16  0.289  0.637  0.827-  35 1.85  38 1.89  36 1.91  40 1.93  42 2.01  41 2.07   6 2.73  18 2.74
                            15 2.79  17 2.83   4 2.84   3 2.84  15 2.86  18 2.87  17 2.91   1 3.11
  17  0.792  0.147  0.826-  37 1.75  35 1.89  39 1.95  38 1.97  40 1.97  41 2.14  18 2.75   5 2.76
                            15 2.78   6 2.79   1 2.81  15 2.83  16 2.83  18 2.90  16 2.91   3 2.95
  18  0.801  0.637  0.833-  36 1.89  37 1.92  40 1.96  38 1.98  42 1.99  39 2.00  16 2.74   4 2.74
                            17 2.75  15 2.81   5 2.82   6 2.87  16 2.87  17 2.90  15 2.93
  19  0.037  0.068  0.236-  10 1.89   7 1.95   8 1.96   2 2.15
  20  0.057  0.555  0.237-   7 1.88   9 1.92   8 1.94   2 2.40
  21  0.550  0.056  0.244-   9 1.89   8 1.92  10 1.94
  22  0.535  0.557  0.240-  10 1.88   7 1.93   9 1.95   2 2.39
  23  0.407  0.256  0.101-   9 1.86   7 1.86   8 1.98   1 2.22
  24  0.399  0.759  0.099-  10 1.85   8 1.87   7 1.94   1 2.01
  25  0.880  0.234  0.100-   9 1.89   7 1.91  10 1.96   1 2.52
  26  0.876  0.719  0.115-  10 1.80   9 1.82   8 1.91
  27  0.313  0.117  0.576-  11 1.91  13 1.91  14 1.97   4 1.99   5 2.04   3 2.08
  28  0.342  0.652  0.575-  14 1.88  13 1.92   6 1.98  12 2.03   3 2.13   4 2.42
  29  0.815  0.105  0.577-  12 1.94  11 1.94   6 1.95  13 1.99   3 2.28   5 2.55
  30  0.812  0.619  0.568-  14 1.89  12 1.91  11 1.92   4 2.12   5 2.19   6 2.43
  31  0.188  0.301  0.437-  14 1.76  11 1.89  12 1.98
  32  0.186  0.820  0.434-  13 1.76  11 1.87   2 1.94  12 2.10
  33  0.688  0.320  0.438-  12 1.78  13 1.89  14 1.98   2 2.52
  34  0.670  0.818  0.430-   2 1.89  11 1.92  13 1.92  14 2.02
  35  0.118  0.310  0.893-  16 1.85  17 1.89  15 1.96
  36  0.129  0.804  0.899-  15 1.89  18 1.89  16 1.91   1 2.24
  37  0.618  0.280  0.889-  17 1.75  15 1.86   1 1.90  18 1.92
  38  0.607  0.801  0.898-  16 1.89  17 1.97  18 1.98   1 2.22
  39  0.970  0.982  0.756-  15 1.89   4 1.90  17 1.95  18 2.00   3 2.04   6 2.12
  40  0.970  0.486  0.750-  16 1.93  18 1.96  17 1.97   4 1.99   5 2.17   3 2.24
  41  0.444  0.977  0.739-   5 1.84   6 1.89   4 1.93  15 1.98  16 2.07  17 2.14
  42  0.472  0.469  0.754-   5 1.75   3 1.88  15 1.95  18 1.99  16 2.01   6 2.06
 

IMPORTANT INFORMATION: All symmetrisations will be switched off!
NOSYMM: (Re-)initialisation of all symmetry stuff for point group C_1.

 
 

Automatic generation of k-mesh.
 generate k-points for:    6    6    2
Space group operators:
 irot       det(A)        alpha          n_x          n_y          n_z        tau_x        tau_y        tau_z
    1     1.000000     0.000000     1.000000     0.000000     0.000000     0.000000     0.000000     0.000000
 
 Subroutine IBZKPT returns following result:
 ===========================================
 
 Found     36 irreducible k-points:
 
 Following reciprocal coordinates:
            Coordinates               Weight
  0.083333  0.083333  0.250000      2.000000
  0.250000  0.083333  0.250000      2.000000
  0.416667  0.083333  0.250000      2.000000
 -0.416667  0.083333  0.250000      2.000000
 -0.250000  0.083333  0.250000      2.000000
 -0.083333  0.083333  0.250000      2.000000
  0.083333  0.250000  0.250000      2.000000
  0.250000  0.250000  0.250000      2.000000
  0.416667  0.250000  0.250000      2.000000
 -0.416667  0.250000  0.250000      2.000000
 -0.250000  0.250000  0.250000      2.000000
 -0.083333  0.250000  0.250000      2.000000
  0.083333  0.416667  0.250000      2.000000
  0.250000  0.416667  0.250000      2.000000
  0.416667  0.416667  0.250000      2.000000
 -0.416667  0.416667  0.250000      2.000000
 -0.250000  0.416667  0.250000      2.000000
 -0.083333  0.416667  0.250000      2.000000
  0.083333 -0.416667  0.250000      2.000000
  0.250000 -0.416667  0.250000      2.000000
  0.416667 -0.416667  0.250000      2.000000
 -0.416667 -0.416667  0.250000      2.000000
 -0.250000 -0.416667  0.250000      2.000000
 -0.083333 -0.416667  0.250000      2.000000
  0.083333 -0.250000  0.250000      2.000000
  0.250000 -0.250000  0.250000      2.000000
  0.416667 -0.250000  0.250000      2.000000
 -0.416667 -0.250000  0.250000      2.000000
 -0.250000 -0.250000  0.250000      2.000000
 -0.083333 -0.250000  0.250000      2.000000
  0.083333 -0.083333  0.250000      2.000000
  0.250000 -0.083333  0.250000      2.000000
  0.416667 -0.083333  0.250000      2.000000
 -0.416667 -0.083333  0.250000      2.000000
 -0.250000 -0.083333  0.250000      2.000000
 -0.083333 -0.083333  0.250000      2.000000
 
 Following cartesian coordinates:
            Coordinates               Weight
  0.014862  0.024937  0.016541      2.000000
  0.044587  0.041184  0.015919      2.000000
  0.074312  0.057430  0.015298      2.000000
 -0.074312 -0.023803  0.018405      2.000000
 -0.044587 -0.007556  0.017783      2.000000
 -0.014862  0.008691  0.017162      2.000000
  0.014862  0.058565  0.015317      2.000000
  0.044587  0.074811  0.014696      2.000000
  0.074312  0.091058  0.014074      2.000000
 -0.074312  0.009825  0.017181      2.000000
 -0.044587  0.026072  0.016560      2.000000
 -0.014862  0.042318  0.015939      2.000000
  0.014862  0.092192  0.014094      2.000000
  0.044587  0.108439  0.013472      2.000000
  0.074312  0.124685  0.012851      2.000000
 -0.074312  0.043453  0.015958      2.000000
 -0.044587  0.059699  0.015336      2.000000
 -0.014862  0.075946  0.014715      2.000000
  0.014862 -0.075946  0.020211      2.000000
  0.044587 -0.059699  0.019590      2.000000
  0.074312 -0.043453  0.018969      2.000000
 -0.074312 -0.124685  0.022075      2.000000
 -0.044587 -0.108439  0.021454      2.000000
 -0.014862 -0.092192  0.020833      2.000000
  0.014862 -0.042318  0.018988      2.000000
  0.044587 -0.026072  0.018366      2.000000
  0.074312 -0.009825  0.017745      2.000000
 -0.074312 -0.091058  0.020852      2.000000
 -0.044587 -0.074811  0.020231      2.000000
 -0.014862 -0.058565  0.019609      2.000000
  0.014862 -0.008691  0.017764      2.000000
  0.044587  0.007556  0.017143      2.000000
  0.074312  0.023803  0.016521      2.000000
 -0.074312 -0.057430  0.019628      2.000000
 -0.044587 -0.041184  0.019007      2.000000
 -0.014862 -0.024937  0.018386      2.000000
 


--------------------------------------------------------------------------------------------------------




 Dimension of arrays:
   k-points           NKPTS =     36   k-points in BZ     NKDIM =     36   number of bands    NBANDS=    160
   number of dos      NEDOS =    301   number of ions     NIONS =     42
   non local maximal  LDIM  =      6   non local SUM 2l+1 LMDIM =     18
   total plane-waves  NPLWV = 116640
   max r-space proj   IRMAX =   2790   max aug-charges    IRDMAX=  11761
   dimension x,y,z NGX =    36 NGY =   36 NGZ =   90
   dimension x,y,z NGXF=    72 NGYF=   72 NGZF=  180
   support grid    NGXF=    72 NGYF=   72 NGZF=  180
   ions per type =               6  12  24
   NGX,Y,Z   is equivalent  to a cutoff of  10.67, 10.60, 10.44 a.u.
   NGXF,Y,Z  is equivalent  to a cutoff of  21.35, 21.19, 20.89 a.u.

 SYSTEM =  LiCoO2                                  
 POSCAR =  Li6 Co12 O24                            

 Startparameter for this run:
   NWRITE =      2    write-flag & timer
   PREC   = normal    normal or accurate (medium, high low for compatibility)
   ISTART =      0    job   : 0-new  1-cont  2-samecut
   ICHARG =      2    charge: 1-file 2-atom 10-const
   ISPIN  =      2    spin polarized calculation?
   LNONCOLLINEAR =      F non collinear calculations
   LSORBIT =      F    spin-orbit coupling
   INIWAV =      1    electr: 0-lowe 1-rand  2-diag
   LASPH  =      F    aspherical Exc in radial PAW
   METAGGA=      F    non-selfconsistent MetaGGA calc.

 Electronic Relaxation 1
   ENCUT  =  600.0 eV  44.10 Ry    6.64 a.u.  11.20 11.28 28.61*2*pi/ulx,y,z
   ENINI  =  600.0     initial cutoff
   ENAUG  =  605.4 eV  augmentation charge cutoff
   NELM   =    600;   NELMIN=  2; NELMDL= -5     # of ELM steps 
   EDIFF  = 0.1E-05   stopping-criterion for ELM
   LREAL  =      T    real-space projection
   NLSPLINE    = F    spline interpolate recip. space projectors
   LCOMPAT=      F    compatible to vasp.4.4
   GGA_COMPAT  = T    GGA compatible to vasp.4.4-vasp.4.6
   LMAXPAW     = -100 max onsite density
   LMAXMIX     =    2 max onsite mixed and CHGCAR
   VOSKOWN=      0    Vosko Wilk Nusair interpolation
   ROPT   =   -0.00050  -0.00050  -0.00050
 Ionic relaxation
   EDIFFG = 0.1E-04   stopping-criterion for IOM
   NSW    =      0    number of steps for IOM
   NBLOCK =      1;   KBLOCK =      1    inner block; outer block 
   IBRION =     -1    ionic relax: 0-MD 1-quasi-New 2-CG
   NFREE  =      0    steps in history (QN), initial steepest desc. (CG)
   ISIF   =      2    stress and relaxation
   IWAVPR =     10    prediction:  0-non 1-charg 2-wave 3-comb
   ISYM   =      0    0-nonsym 1-usesym 2-fastsym
   LCORR  =      T    Harris-Foulkes like correction to forces

   POTIM  = 0.5000    time-step for ionic-motion
   TEIN   =    0.0    initial temperature
   TEBEG  =    0.0;   TEEND  =   0.0 temperature during run
   SMASS  =  -3.00    Nose mass-parameter (am)
   estimated Nose-frequenzy (Omega)   =  0.10E-29 period in steps =****** mass=  -0.718E-27a.u.
   SCALEE = 1.0000    scale energy and forces
   NPACO  =    256;   APACO  = 16.0  distance and # of slots for P.C.
   PSTRESS=    0.0 pullay stress

  Mass of Ions in am
   POMASS =   7.01 58.93 16.00
  Ionic Valenz
   ZVAL   =   1.00  9.00  6.00
  Atomic Wigner-Seitz radii
   RWIGS  =  -1.00 -1.00 -1.00
  virtual crystal weights 
   VCA    =   1.00  1.00  1.00
   NELECT =     258.0000    total number of electrons
   NUPDOWN=       6.0000    fix difference up-down

 DOS related values:
   EMIN   =  10.00;   EMAX   =-10.00  energy-range for DOS
   EFERMI =   0.00
   ISMEAR =     0;   SIGMA  =   0.05  broadening in eV -4-tet -1-fermi 0-gaus

 Electronic relaxation 2 (details)
   IALGO  =     58    algorithm
   LDIAG  =      T    sub-space diagonalisation (order eigenvalues)
   LSUBROT=      F    optimize rotation matrix (better conditioning)
   TURBO    =      0    0=normal 1=particle mesh
   IRESTART =      0    0=no restart 2=restart with 2 vectors
   NREBOOT  =      0    no. of reboots
   NMIN     =      0    reboot dimension
   EREF     =   0.00    reference energy to select bands
   IMIX   =      4    mixing-type and parameters
     AMIX     =   0.40;   BMIX     =  1.00
     AMIX_MAG =   1.60;   BMIX_MAG =  1.00
     AMIN     =   0.10
     WC   =   100.;   INIMIX=   1;  MIXPRE=   1;  MAXMIX= -45

 Intra band minimization:
   WEIMIN = 0.0000     energy-eigenvalue tresh-hold
   EBREAK =  0.16E-08  absolut break condition
   DEPER  =   0.30     relativ break condition  

   TIME   =   0.40     timestep for ELM

  volume/ion in A,a.u.               =       9.47        63.92
  Fermi-wavevector in a.u.,A,eV,Ry     =   1.417038  2.677814 27.320467  2.007998
  Thomas-Fermi vector in A             =   2.538310
 
 Write flags
   LWAVE        =      F    write WAVECAR
   LDOWNSAMPLE  =      F    k-point downsampling of WAVECAR
   LCHARG       =      F    write CHGCAR
   LVTOT        =      F    write LOCPOT, total local potential
   LVHAR        =      F    write LOCPOT, Hartree potential only
   LELF         =      F    write electronic localiz. function (ELF)
   LORBIT       =     11    0 simple, 1 ext, 2 COOP (PROOUT), +10 PAW based schemes


 Dipole corrections
   LMONO  =      F    monopole corrections only (constant potential shift)
   LDIPOL =      F    correct potential (dipole corrections)
   IDIPOL =      0    1-x, 2-y, 3-z, 4-all directions 
   EPSILON=  1.0000000 bulk dielectric constant

 LDA+U is selected, type is set to LDAUTYPE =  2
   angular momentum for each species LDAUL =    -1    2   -1
   U (eV)           for each species LDAUU =   0.0  5.1  0.0
   J (eV)           for each species LDAUJ =   0.0  0.0  0.0
 Exchange correlation treatment:
   GGA     =    --    GGA type
   LEXCH   =     8    internal setting for exchange type
   VOSKOWN=      0    Vosko Wilk Nusair interpolation
   LHFCALC =     F    Hartree Fock is set to
   LHFONE  =     F    Hartree Fock one center treatment
   AEXX    =    0.0000 exact exchange contribution

 Linear response parameters
   LEPSILON=     F    determine dielectric tensor
   LRPA    =     F    only Hartree local field effects (RPA)
   LNABLA  =     F    use nabla operator in PAW spheres
   LVEL    =     F    velocity operator in full k-point grid
   LINTERFAST=   F  fast interpolation
   KINTER  =     0    interpolate to denser k-point grid
   CSHIFT  =0.1000    complex shift for real part using Kramers Kronig
   OMEGAMAX=  -1.0    maximum frequency
   DEG_THRESHOLD= 0.2000000E-02 threshold for treating states as degnerate
   RTIME   =   -0.100 relaxation time in fs
  (WPLASMAI=    0.000 imaginary part of plasma frequency in eV, 0.658/RTIME)
   DFIELD  = 0.0000000 0.0000000 0.0000000 field for delta impulse in time
 
 Orbital magnetization related:
   ORBITALMAG=     F  switch on orbital magnetization
   LCHIMAG   =     F  perturbation theory with respect to B field
   DQ        =  0.001000  dq finite difference perturbation B field
   LLRAUG    =     F  two centre corrections for induced B field



--------------------------------------------------------------------------------------------------------


 Static calculation
 charge density and potential will be updated during run
 spin polarized calculation
 Conjugate gradient for all bands (Freysoldt, et al. PRB 79, 241103 (2009))
 preconditioned conjugated gradient                                        
 perform sub-space diagonalisation
    before iterative eigenvector-optimisation
 modified Broyden-mixing scheme, WC =      100.0
 initial mixing is a Kerker type mixing with AMIX =  0.4000 and BMIX =      1.0000
 Hartree-type preconditioning will be used
 using additional bands           31
 real space projection scheme for non local part
 use partial core corrections
 no Harris-corrections to forces 
 use gradient corrections 
 use of overlap-Matrix (Vanderbilt PP)
 Gauss-broadening in eV      SIGMA  =   0.05


--------------------------------------------------------------------------------------------------------


  energy-cutoff  :      600.00
  volume of cell :      397.83
      direct lattice vectors                 reciprocal lattice vectors
     5.606985092  0.000000000  0.000000000     0.178348967  0.097479179 -0.003728208
    -2.708904743  4.956241608  0.000000000     0.000000000  0.201765789 -0.007341247
     0.014563062  0.520882547 14.315862656     0.000000000  0.000000000  0.069852584

  length of vectors
     5.606985092  5.648229438 14.325343077     0.203284146  0.201899301  0.069852584


 
 k-points in units of 2pi/SCALE and weight: read from INCAR                         
   0.01486241  0.02493708  0.01654069       0.028
   0.04458724  0.04118361  0.01591932       0.028
   0.07431207  0.05743014  0.01529796       0.028
  -0.07431207 -0.02380251  0.01840480       0.028
  -0.04458724 -0.00755598  0.01778343       0.028
  -0.01486241  0.00869055  0.01716206       0.028
   0.01486241  0.05856471  0.01531715       0.028
   0.04458724  0.07481124  0.01469578       0.028
   0.07431207  0.09105777  0.01407441       0.028
  -0.07431207  0.00982512  0.01718125       0.028
  -0.04458724  0.02607165  0.01655989       0.028
  -0.01486241  0.04231818  0.01593852       0.028
   0.01486241  0.09219234  0.01409361       0.028
   0.04458724  0.10843887  0.01347224       0.028
   0.07431207  0.12468540  0.01285087       0.028
  -0.07431207  0.04345275  0.01595771       0.028
  -0.04458724  0.05969928  0.01533635       0.028
  -0.01486241  0.07594581  0.01471498       0.028
   0.01486241 -0.07594581  0.02021131       0.028
   0.04458724 -0.05969928  0.01958995       0.028
   0.07431207 -0.04345275  0.01896858       0.028
  -0.07431207 -0.12468540  0.02207542       0.028
  -0.04458724 -0.10843887  0.02145405       0.028
  -0.01486241 -0.09219234  0.02083268       0.028
   0.01486241 -0.04231818  0.01898777       0.028
   0.04458724 -0.02607165  0.01836641       0.028
   0.07431207 -0.00982512  0.01774504       0.028
  -0.07431207 -0.09105777  0.02085188       0.028
  -0.04458724 -0.07481124  0.02023051       0.028
  -0.01486241 -0.05856471  0.01960914       0.028
   0.01486241 -0.00869055  0.01776423       0.028
   0.04458724  0.00755598  0.01714286       0.028
   0.07431207  0.02380251  0.01652150       0.028
  -0.07431207 -0.05743014  0.01962834       0.028
  -0.04458724 -0.04118361  0.01900697       0.028
  -0.01486241 -0.02493708  0.01838560       0.028
 
 k-points in reciprocal lattice and weights: read from INCAR                         
   0.08333333  0.08333333  0.25000000       0.028
   0.25000000  0.08333333  0.25000000       0.028
   0.41666667  0.08333333  0.25000000       0.028
  -0.41666667  0.08333333  0.25000000       0.028
  -0.25000000  0.08333333  0.25000000       0.028
  -0.08333333  0.08333333  0.25000000       0.028
   0.08333333  0.25000000  0.25000000       0.028
   0.25000000  0.25000000  0.25000000       0.028
   0.41666667  0.25000000  0.25000000       0.028
  -0.41666667  0.25000000  0.25000000       0.028
  -0.25000000  0.25000000  0.25000000       0.028
  -0.08333333  0.25000000  0.25000000       0.028
   0.08333333  0.41666667  0.25000000       0.028
   0.25000000  0.41666667  0.25000000       0.028
   0.41666667  0.41666667  0.25000000       0.028
  -0.41666667  0.41666667  0.25000000       0.028
  -0.25000000  0.41666667  0.25000000       0.028
  -0.08333333  0.41666667  0.25000000       0.028
   0.08333333 -0.41666667  0.25000000       0.028
   0.25000000 -0.41666667  0.25000000       0.028
   0.41666667 -0.41666667  0.25000000       0.028
  -0.41666667 -0.41666667  0.25000000       0.028
  -0.25000000 -0.41666667  0.25000000       0.028
  -0.08333333 -0.41666667  0.25000000       0.028
   0.08333333 -0.25000000  0.25000000       0.028
   0.25000000 -0.25000000  0.25000000       0.028
   0.41666667 -0.25000000  0.25000000       0.028
  -0.41666667 -0.25000000  0.25000000       0.028
  -0.25000000 -0.25000000  0.25000000       0.028
  -0.08333333 -0.25000000  0.25000000       0.028
   0.08333333 -0.08333333  0.25000000       0.028
   0.25000000 -0.08333333  0.25000000       0.028
   0.41666667 -0.08333333  0.25000000       0.028
  -0.41666667 -0.08333333  0.25000000       0.028
  -0.25000000 -0.08333333  0.25000000       0.028
  -0.08333333 -0.08333333  0.25000000       0.028
 
 position of ions in fractional coordinates (direct lattice) 
   0.48265705  0.02788597  0.99220146
   0.89972380  0.76421964  0.34678245
   0.18631633  0.31074484  0.66917869
   0.10739820  0.82431521  0.67096621
   0.58783552  0.30934407  0.67695884
   0.62008511  0.81953149  0.67188619
   0.22136775  0.40645695  0.16188127
   0.22451135  0.90368787  0.17116048
   0.71556461  0.38844772  0.17426054
   0.71004337  0.88422860  0.16949938
   0.99821743  0.96012170  0.50044836
   0.98582404  0.44600700  0.50675816
   0.48871326  0.97526669  0.49760327
   0.47865817  0.46493954  0.50523327
   0.28820766  0.13007986  0.82729349
   0.28870507  0.63669655  0.82711190
   0.79190763  0.14695380  0.82604310
   0.80087780  0.63722609  0.83257433
   0.03656355  0.06831784  0.23588869
   0.05714973  0.55545064  0.23725569
   0.54955061  0.05555703  0.24354034
   0.53547712  0.55658273  0.24015318
   0.40725262  0.25619455  0.10143923
   0.39894086  0.75906617  0.09905236
   0.88015474  0.23362865  0.10046408
   0.87571545  0.71859551  0.11489563
   0.31336921  0.11663473  0.57583049
   0.34150082  0.65172165  0.57487068
   0.81508902  0.10486997  0.57684613
   0.81245198  0.61893768  0.56835344
   0.18837890  0.30066320  0.43674070
   0.18599661  0.81955874  0.43372306
   0.68792687  0.32046682  0.43798549
   0.67024202  0.81789136  0.43004463
   0.11825555  0.31038213  0.89325527
   0.12920083  0.80407588  0.89938833
   0.61792387  0.27985046  0.88911305
   0.60741796  0.80124336  0.89806112
   0.96952070  0.98221217  0.75609972
   0.97003515  0.48647124  0.74995966
   0.44372794  0.97713741  0.73859467
   0.47230356  0.46915860  0.75375268
 
 position of ions in cartesian coordinates  (Angst):
   2.64515996  0.65503001 14.20421982
   2.97958994  3.96829009  4.96448994
   0.21264000  1.88868999  9.57987022
  -1.62103999  4.43499994  9.60546017
   2.46785998  1.88580000  9.69124985
   1.26655996  4.41176987  9.61863041
   0.14251000  2.09881997  2.31747007
  -1.18667996  4.56804991  2.45030999
   2.96243000  2.01601005  2.49468994
   1.58837998  4.47073984  2.42652988
   3.00340009  5.01926994  7.16435003
   4.32669020  2.47447991  7.25468016
   0.10555000  5.09285021  7.12362003
   1.43171000  2.56751990  7.23285007
   1.27565002  1.07562995 11.84342003
  -0.09394000  3.58645010 11.84082031
   4.05416012  1.15860999 11.82551956
   2.77644992  3.59191990 11.91901970
   0.02338000  0.46147001  3.37695003
  -1.18077004  2.87652993  3.39651990
   2.93437004  0.40221000  3.48649001
   1.49818003  2.88365006  3.43799996
   1.59092999  1.32260001  1.45219004
   0.18206000  3.81370997  1.41802001
   4.30359983  1.21025002  1.43823004
   2.96518993  3.62138009  1.64482999
   1.44948995  0.87800998  8.24351025
   0.15771000  3.52953005  8.22976971
   4.29450989  0.82023001  8.25804996
   2.88703990  3.36365008  8.13646984
   0.24812999  1.71765006  6.25231981
  -1.17091000  4.28784990  6.20911980
   2.99546003  1.81645000  6.27014017
   1.54870999  4.27766991  6.15645981
  -0.16473000  2.00360990 12.78771973
  -1.44063997  4.45367002 12.87551975
   2.71954989  1.85012996 12.72842026
   1.24837005  4.43894005 12.85651970
   2.78638005  5.26191998 10.82421970
   4.13209009  2.80170989 10.73631954
  -0.14824000  5.22765017 10.57361984
   1.38827002  2.71788001 10.79061985
 


--------------------------------------------------------------------------------------------------------


 k-point  1 :   0.0833 0.0833 0.2500  plane waves:   13306
 k-point  2 :   0.2500 0.0833 0.2500  plane waves:   13296
 k-point  3 :   0.4167 0.0833 0.2500  plane waves:   13276
 k-point  4 :  -0.4167 0.0833 0.2500  plane waves:   13279
 k-point  5 :  -0.2500 0.0833 0.2500  plane waves:   13285
 k-point  6 :  -0.0833 0.0833 0.2500  plane waves:   13301
 k-point  7 :   0.0833 0.2500 0.2500  plane waves:   13274
 k-point  8 :   0.2500 0.2500 0.2500  plane waves:   13245
 k-point  9 :   0.4167 0.2500 0.2500  plane waves:   13283
 k-point 10 :  -0.4167 0.2500 0.2500  plane waves:   13282
 k-point 11 :  -0.2500 0.2500 0.2500  plane waves:   13285
 k-point 12 :  -0.0833 0.2500 0.2500  plane waves:   13288
 k-point 13 :   0.0833 0.4167 0.2500  plane waves:   13242
 k-point 14 :   0.2500 0.4167 0.2500  plane waves:   13276
 k-point 15 :   0.4167 0.4167 0.2500  plane waves:   13291
 k-point 16 :  -0.4167 0.4167 0.2500  plane waves:   13286
 k-point 17 :  -0.2500 0.4167 0.2500  plane waves:   13291
 k-point 18 :  -0.0833 0.4167 0.2500  plane waves:   13276
 k-point 19 :   0.0833-0.4167 0.2500  plane waves:   13257
 k-point 20 :   0.2500-0.4167 0.2500  plane waves:   13288
 k-point 21 :   0.4167-0.4167 0.2500  plane waves:   13309
 k-point 22 :  -0.4167-0.4167 0.2500  plane waves:   13297
 k-point 23 :  -0.2500-0.4167 0.2500  plane waves:   13265
 k-point 24 :  -0.0833-0.4167 0.2500  plane waves:   13248
 k-point 25 :   0.0833-0.2500 0.2500  plane waves:   13271
 k-point 26 :   0.2500-0.2500 0.2500  plane waves:   13277
 k-point 27 :   0.4167-0.2500 0.2500  plane waves:   13289
 k-point 28 :  -0.4167-0.2500 0.2500  plane waves:   13278
 k-point 29 :  -0.2500-0.2500 0.2500  plane waves:   13251
 k-point 30 :  -0.0833-0.2500 0.2500  plane waves:   13254
 k-point 31 :   0.0833-0.0833 0.2500  plane waves:   13296
 k-point 32 :   0.2500-0.0833 0.2500  plane waves:   13263
 k-point 33 :   0.4167-0.0833 0.2500  plane waves:   13270
 k-point 34 :  -0.4167-0.0833 0.2500  plane waves:   13275
 k-point 35 :  -0.2500-0.0833 0.2500  plane waves:   13266
 k-point 36 :  -0.0833-0.0833 0.2500  plane waves:   13289

 maximum and minimum number of plane-waves per node :      3345     3294

 maximum number of plane-waves:     13309
 maximum index in each direction: 
   IXMAX=   11   IYMAX=   11   IZMAX=   28
   IXMIN=  -11   IYMIN=  -11   IZMIN=  -28


 real space projection operators:
  total allocation   :       7452.75 KBytes
  max/ min on nodes  :       1867.49       1857.22


 parallel 3D FFT for wavefunctions:
    minimum data exchange during FFTs selected (reduces bandwidth)
 parallel 3D FFT for charge:
    minimum data exchange during FFTs selected (reduces bandwidth)


 total amount of memory used by VASP MPI-rank0   159820. kBytes
=======================================================================

   base      :      30000. kBytes
   nonlr-proj:       4262. kBytes
   fftplans  :       1688. kBytes
   grid      :       4644. kBytes
   one-center:        342. kBytes
   wavefun   :     118884. kBytes
 
     INWAV:  cpu time    0.0000: real time    0.0003
 Broyden mixing: mesh for mixing (old mesh)
   NGX = 23   NGY = 23   NGZ = 57
  (NGX  = 72   NGY  = 72   NGZ  =180)
  gives a total of  30153 points

 initial charge density was supplied:
 charge density of overlapping atoms calculated
 number of electron     258.0000000 magnetization       6.0000000
 keeping initial charge density in first step


--------------------------------------------------------------------------------------------------------


 Maximum index for non-local projection operator          682
 Maximum index for augmentation-charges          982 (set IRDMAX)


--------------------------------------------------------------------------------------------------------


 First call to EWALD:  gamma=   0.241
 Maximum number of real-space cells 4x 4x 2
 Maximum number of reciprocal cells 2x 2x 5

    FEWALD:  cpu time    0.0054: real time    0.0054


--------------------------------------- Iteration      1(   1)  ---------------------------------------


    POTLOK:  cpu time    0.0889: real time    0.1070
    SETDIJ:  cpu time    0.0180: real time    0.0191
    TRIAL :  cpu time   24.3064: real time   24.4717
    CORREC:  cpu time    0.0043: real time    0.0042
    --------------------------------------------
      LOOP:  cpu time   24.6241: real time   24.8101

 eigenvalue-minimisations  : 23040
 total energy-change (2. order) : 0.3475754E+04  (-0.1389893E+05)
 number of electron     258.0000000 magnetization       6.0000000
 augmentation part      258.0000000 magnetization       6.0000000

 Free energy of the ion-electron system (eV)
  ---------------------------------------------------
  alpha Z        PSCENC =       736.91146604
  Ewald energy   TEWEN  =    -13793.53954698
  -Hartree energ DENC   =     -7178.06193206
  -exchange      EXHF   =         0.00000000
  -V(xc)+E(xc)   XCENC  =       841.55934624
  PAW double counting   =     17015.18481625   -17491.61297812
  entropy T*S    EENTRO =        -0.00814652
  eigenvalues    EBANDS =      3176.44997917
  atomic energy  EATOM  =     20168.87094289
  ---------------------------------------------------
  free energy    TOTEN  =      3475.75394691 eV

  energy without entropy =     3475.76209343  energy(sigma->0) =     3475.75802017


--------------------------------------------------------------------------------------------------------




--------------------------------------- Iteration      1(   2)  ---------------------------------------


    TRIAL :  cpu time   23.4897: real time   23.5438
    CORREC:  cpu time    0.0045: real time    0.0045
    --------------------------------------------
      LOOP:  cpu time   23.4983: real time   23.5524

 eigenvalue-minimisations  : 24864
 total energy-change (2. order) :-0.3069580E+04  (-0.2831462E+04)
 number of electron     258.0000000 magnetization       6.0000000
 augmentation part      258.0000000 magnetization       6.0000000

 Free energy of the ion-electron system (eV)
  ---------------------------------------------------
  alpha Z        PSCENC =       736.91146604
  Ewald energy   TEWEN  =    -13793.53954698
  -Hartree energ DENC   =     -7178.06193206
  -exchange      EXHF   =         0.00000000
  -V(xc)+E(xc)   XCENC  =       841.55934624
  PAW double counting   =     17015.18481625   -17491.61297812
  entropy T*S    EENTRO =        -0.02337898
  eigenvalues    EBANDS =       106.88537745
  atomic energy  EATOM  =     20168.87094289
  ---------------------------------------------------
  free energy    TOTEN  =       406.17411273 eV

  energy without entropy =      406.19749171  energy(sigma->0) =      406.18580222


--------------------------------------------------------------------------------------------------------




--------------------------------------- Iteration      1(   3)  ---------------------------------------


    TRIAL :  cpu time   24.7769: real time   24.7922
    CORREC:  cpu time    0.0043: real time    0.0043
    --------------------------------------------
      LOOP:  cpu time   24.7862: real time   24.8015

 eigenvalue-minimisations  : 25952
 total energy-change (2. order) :-0.6266941E+03  (-0.5714922E+03)
 number of electron     258.0000000 magnetization       6.0000000
 augmentation part      258.0000000 magnetization       6.0000000

 Free energy of the ion-electron system (eV)
  ---------------------------------------------------
  alpha Z        PSCENC =       736.91146604
  Ewald energy   TEWEN  =    -13793.53954698
  -Hartree energ DENC   =     -7178.06193206
  -exchange      EXHF   =         0.00000000
  -V(xc)+E(xc)   XCENC  =       841.55934624
  PAW double counting   =     17015.18481625   -17491.61297812
  entropy T*S    EENTRO =        -0.02466366
  eigenvalues    EBANDS =      -519.80746496
  atomic energy  EATOM  =     20168.87094289
  ---------------------------------------------------
  free energy    TOTEN  =      -220.52001436 eV

  energy without entropy =     -220.49535070  energy(sigma->0) =     -220.50768253


--------------------------------------------------------------------------------------------------------




--------------------------------------- Iteration      1(   4)  ---------------------------------------


    TRIAL :  cpu time   23.7199: real time   23.7372
    CORREC:  cpu time    0.0043: real time    0.0043
    --------------------------------------------
      LOOP:  cpu time   23.7296: real time   23.7469

 eigenvalue-minimisations  : 25328
 total energy-change (2. order) :-0.5068641E+02  (-0.4959360E+02)
 number of electron     258.0000000 magnetization       6.0000000
 augmentation part      258.0000000 magnetization       6.0000000

 Free energy of the ion-electron system (eV)
  ---------------------------------------------------
  alpha Z        PSCENC =       736.91146604
  Ewald energy   TEWEN  =    -13793.53954698
  -Hartree energ DENC   =     -7178.06193206
  -exchange      EXHF   =         0.00000000
  -V(xc)+E(xc)   XCENC  =       841.55934624
  PAW double counting   =     17015.18481625   -17491.61297812
  entropy T*S    EENTRO =        -0.01540192
  eigenvalues    EBANDS =      -570.50313469
  atomic energy  EATOM  =     20168.87094289
  ---------------------------------------------------
  free energy    TOTEN  =      -271.20642235 eV

  energy without entropy =     -271.19102043  energy(sigma->0) =     -271.19872139


--------------------------------------------------------------------------------------------------------




--------------------------------------- Iteration      1(   5)  ---------------------------------------


    TRIAL :  cpu time   26.6370: real time   26.6727
    CORREC:  cpu time    0.0049: real time    0.0049
    CHARGE:  cpu time    0.4807: real time    0.4810
    --------------------------------------------
      LOOP:  cpu time   27.1281: real time   27.1641

 eigenvalue-minimisations  : 28992
 total energy-change (2. order) :-0.1803299E+01  (-0.1800062E+01)
 number of electron     258.0000087 magnetization       6.0000003
 augmentation part       67.8583168 magnetization       4.2903666

 Free energy of the ion-electron system (eV)
  ---------------------------------------------------
  alpha Z        PSCENC =       736.91146604
  Ewald energy   TEWEN  =    -13793.53954698
  -Hartree energ DENC   =     -7178.06193206
  -exchange      EXHF   =         0.00000000
  -V(xc)+E(xc)   XCENC  =       841.55934624
  PAW double counting   =     17015.18481625   -17491.61297812
  entropy T*S    EENTRO =        -0.01541962
  eigenvalues    EBANDS =      -572.30641579
  atomic energy  EATOM  =     20168.87094289
  ---------------------------------------------------
  free energy    TOTEN  =      -273.00972115 eV

  energy without entropy =     -272.99430153  energy(sigma->0) =     -273.00201134


--------------------------------------------------------------------------------------------------------




--------------------------------------- Iteration      1(   6)  ---------------------------------------


    POTLOK:  cpu time    0.0475: real time    0.0475
    SETDIJ:  cpu time    0.0128: real time    0.0128
    TRIAL :  cpu time   12.7689: real time   12.7844
    CORREC:  cpu time    4.4593: real time    4.4635
    CHARGE:  cpu time    0.4341: real time    0.4343
    --------------------------------------------
      LOOP:  cpu time   17.7269: real time   17.7468

 eigenvalue-minimisations  :     0
 total energy-change (2. order) : 0.4265484E+03  (-0.1276068E+03)
 number of electron     258.0000087 magnetization       6.0000003
 augmentation part       69.4238270 magnetization       4.3765111

 Free energy of the ion-electron system (eV)
  ---------------------------------------------------
  alpha Z        PSCENC =       736.91146604
  Ewald energy   TEWEN  =    -13793.53954698
  -Hartree energ DENC   =     -7009.40890653
  -exchange      EXHF   =         0.00000000
  -V(xc)+E(xc)   XCENC  =       876.10795590
  PAW double counting   =     23326.27369592   -23531.61120472
  entropy T*S    EENTRO =        -0.02395329
  eigenvalues    EBANDS =      -620.05034381
  atomic energy  EATOM  =     20168.87094289
  ---------------------------------------------------
  free energy    TOTEN  =       153.53863909 eV

  energy without entropy =      153.56259238  energy(sigma->0) =      153.55061573


--------------------------------------------------------------------------------------------------------




--------------------------------------- Iteration      1(   7)  ---------------------------------------


    POTLOK:  cpu time    0.0473: real time    0.0474
    SETDIJ:  cpu time    0.0124: real time    0.0124
    TRIAL :  cpu time   11.9347: real time   11.9448
    CORREC:  cpu time    4.3313: real time    4.3502
    CHARGE:  cpu time    0.4346: real time    0.4349
    --------------------------------------------
      LOOP:  cpu time   16.7649: real time   16.7941

 eigenvalue-minimisations  :     0
 total energy-change (2. order) :-0.6568451E+02  (-0.2725562E+03)
 number of electron     258.0000080 magnetization       6.0000006
 augmentation part       71.9178375 magnetization       4.0861284

 Free energy of the ion-electron system (eV)
  ---------------------------------------------------
  alpha Z        PSCENC =       736.91146604
  Ewald energy   TEWEN  =    -13793.53954698
  -Hartree energ DENC   =     -6770.61685019
  -exchange      EXHF   =         0.00000000
  -V(xc)+E(xc)   XCENC  =       869.11306879
  PAW double counting   =     23220.28885552   -23486.92145639
  entropy T*S    EENTRO =        -0.04388272
  eigenvalues    EBANDS =      -856.22839512
  atomic energy  EATOM  =     20168.87094289
  ---------------------------------------------------
  free energy    TOTEN  =        87.85413128 eV

  energy without entropy =       87.89801400  energy(sigma->0) =       87.87607264


--------------------------------------------------------------------------------------------------------




--------------------------------------- Iteration      1(   8)  ---------------------------------------


    POTLOK:  cpu time    0.0468: real time    0.0468
    SETDIJ:  cpu time    0.0124: real time    0.0124
    TRIAL :  cpu time   12.2558: real time   12.2659
    CORREC:  cpu time    4.2962: real time    4.2993
    CHARGE:  cpu time    0.4502: real time    0.4504
    --------------------------------------------
      LOOP:  cpu time   17.0658: real time   17.0792

 eigenvalue-minimisations  :     0
 total energy-change (2. order) :-0.1319586E+02  (-0.4272920E+03)
 number of electron     258.0000062 magnetization       6.0000001
 augmentation part       64.8707214 magnetization       1.1492084

 Free energy of the ion-electron system (eV)
  ---------------------------------------------------
  alpha Z        PSCENC =       736.91146604
  Ewald energy   TEWEN  =    -13793.53954698
  -Hartree energ DENC   =     -6898.77251590
  -exchange      EXHF   =         0.00000000
  -V(xc)+E(xc)   XCENC  =       852.41618936
  PAW double counting   =     22964.24417691   -23338.91190693
  entropy T*S    EENTRO =        -0.03198405
  eigenvalues    EBANDS =      -616.51665294
  atomic energy  EATOM  =     20168.87094289
  ---------------------------------------------------
  free energy    TOTEN  =        74.65826974 eV

  energy without entropy =       74.69025379  energy(sigma->0) =       74.67426176


--------------------------------------------------------------------------------------------------------




--------------------------------------- Iteration      1(   9)  ---------------------------------------


    POTLOK:  cpu time    0.0469: real time    0.0469
    SETDIJ:  cpu time    0.0123: real time    0.0123
    TRIAL :  cpu time   11.9938: real time   12.0044
    CORREC:  cpu time    4.4403: real time    4.4435
    CHARGE:  cpu time    0.4450: real time    0.4453
    --------------------------------------------
      LOOP:  cpu time   16.9428: real time   16.9569

 eigenvalue-minimisations  :     0
 total energy-change (2. order) : 0.7032843E+03  (-0.2201616E+03)
 number of electron     258.0000062 magnetization       6.0000002
 augmentation part       71.1925086 magnetization       1.0359440

 Free energy of the ion-electron system (eV)
  ---------------------------------------------------
  alpha Z        PSCENC =       736.91146604
  Ewald energy   TEWEN  =    -13793.53954698
  -Hartree energ DENC   =     -6054.07283855
  -exchange      EXHF   =         0.00000000
  -V(xc)+E(xc)   XCENC  =       792.29457043
  PAW double counting   =     72579.73186625   -72702.08690331
  entropy T*S    EENTRO =        -0.03099218
  eigenvalues    EBANDS =      -950.13499191
  atomic energy  EATOM  =     20168.87094289
  ---------------------------------------------------
  free energy    TOTEN  =       777.94258081 eV

  energy without entropy =      777.97357299  energy(sigma->0) =      777.95807690


--------------------------------------------------------------------------------------------------------




--------------------------------------- Iteration      1(  10)  ---------------------------------------


    POTLOK:  cpu time    0.0477: real time    0.0477
    SETDIJ:  cpu time    0.0123: real time    0.0123
    TRIAL :  cpu time   12.3450: real time   12.3551
    CORREC:  cpu time    4.2870: real time    4.2914
    CHARGE:  cpu time    0.4335: real time    0.4339
    --------------------------------------------
      LOOP:  cpu time   17.1300: real time   17.1450

 eigenvalue-minimisations  :     0
 total energy-change (2. order) :-0.2406681E+03  (-0.1730496E+03)
 number of electron     258.0000062 magnetization       6.0000002
 augmentation part       73.1675675 magnetization       1.0492885

 Free energy of the ion-electron system (eV)
  ---------------------------------------------------
  alpha Z        PSCENC =       736.91146604
  Ewald energy   TEWEN  =    -13793.53954698
  -Hartree energ DENC   =     -6594.12281322
  -exchange      EXHF   =         0.00000000
  -V(xc)+E(xc)   XCENC  =       798.27141875
  PAW double counting   =     48671.66202409   -49012.48004823
  entropy T*S    EENTRO =        -0.03442216
  eigenvalues    EBANDS =      -438.26800733
  atomic energy  EATOM  =     20168.87094289
  ---------------------------------------------------
  free energy    TOTEN  =       537.27444383 eV

  energy without entropy =      537.30886599  energy(sigma->0) =      537.29165491


--------------------------------------------------------------------------------------------------------




--------------------------------------- Iteration      1(  11)  ---------------------------------------


    POTLOK:  cpu time    0.0467: real time    0.0468
    SETDIJ:  cpu time    0.0123: real time    0.0123
    TRIAL :  cpu time   12.1775: real time   12.1940
    CORREC:  cpu time    4.4497: real time    4.4547
    CHARGE:  cpu time    0.4335: real time    0.4340
    --------------------------------------------
      LOOP:  cpu time   17.1242: real time   17.1461

 eigenvalue-minimisations  :     0
 total energy-change (2. order) : 0.1322574E+03  (-0.5186393E+03)
 number of electron     258.0000063 magnetization       6.0000001
 augmentation part       70.1050111 magnetization       1.5586274

 Free energy of the ion-electron system (eV)
  ---------------------------------------------------
  alpha Z        PSCENC =       736.91146604
  Ewald energy   TEWEN  =    -13793.53954698
  -Hartree energ DENC   =     -6665.85456174
  -exchange      EXHF   =         0.00000000
  -V(xc)+E(xc)   XCENC  =       795.58953380
  PAW double counting   =     58775.35761364   -59213.64907337
  entropy T*S    EENTRO =        -0.03025769
  eigenvalues    EBANDS =      -134.12006507
  atomic energy  EATOM  =     20168.87094289
  ---------------------------------------------------
  free energy    TOTEN  =       669.53188707 eV

  energy without entropy =      669.56214476  energy(sigma->0) =      669.54701591


--------------------------------------------------------------------------------------------------------




--------------------------------------- Iteration      1(  12)  ---------------------------------------


    POTLOK:  cpu time    0.0468: real time    0.0468
    SETDIJ:  cpu time    0.0124: real time    0.0125
    TRIAL :  cpu time   12.3349: real time   12.3514
    CORREC:  cpu time    4.5335: real time    4.5392
    CHARGE:  cpu time    0.5254: real time    0.5258
    --------------------------------------------
      LOOP:  cpu time   17.4573: real time   17.4799

 eigenvalue-minimisations  :     0
 total energy-change (2. order) :-0.5298300E+03  (-0.1356565E+03)
 number of electron     258.0000068 magnetization       6.0000002
 augmentation part       71.0780603 magnetization       1.8571014

 Free energy of the ion-electron system (eV)
  ---------------------------------------------------
  alpha Z        PSCENC =       736.91146604
  Ewald energy   TEWEN  =    -13793.53954698
  -Hartree energ DENC   =     -6746.81215653
  -exchange      EXHF   =         0.00000000
  -V(xc)+E(xc)   XCENC  =       821.07058761
  PAW double counting   =     26490.66014132   -26788.56492739
  entropy T*S    EENTRO =        -0.04076019
  eigenvalues    EBANDS =      -748.86432298
  atomic energy  EATOM  =     20168.87094289
  ---------------------------------------------------
  free energy    TOTEN  =       139.70192629 eV

  energy without entropy =      139.74268648  energy(sigma->0) =      139.72230639


--------------------------------------------------------------------------------------------------------




--------------------------------------- Iteration      1(  13)  ---------------------------------------


    POTLOK:  cpu time    0.0470: real time    0.0470
    SETDIJ:  cpu time    0.0124: real time    0.0124
    TRIAL :  cpu time   11.8719: real time   11.8852
    CORREC:  cpu time    4.4186: real time    4.4241
    CHARGE:  cpu time    0.4364: real time    0.4369
    --------------------------------------------
      LOOP:  cpu time   16.7905: real time   16.8098

 eigenvalue-minimisations  :     0
 total energy-change (2. order) :-0.6419560E+02  (-0.2134202E+03)
 number of electron     258.0000074 magnetization       6.0000002
 augmentation part       75.9668176 magnetization       2.2206353

 Free energy of the ion-electron system (eV)
  ---------------------------------------------------
  alpha Z        PSCENC =       736.91146604
  Ewald energy   TEWEN  =    -13793.53954698
  -Hartree energ DENC   =     -6709.64719038
  -exchange      EXHF   =         0.00000000
  -V(xc)+E(xc)   XCENC  =       829.99568893
  PAW double counting   =     25320.91819029   -25635.98759785
  entropy T*S    EENTRO =        -0.05582434
  eigenvalues    EBANDS =      -841.97486762
  atomic energy  EATOM  =     20168.87094289
  ---------------------------------------------------
  free energy    TOTEN  =        75.50632514 eV

  energy without entropy =       75.56214948  energy(sigma->0) =       75.53423731


--------------------------------------------------------------------------------------------------------




--------------------------------------- Iteration      1(  14)  ---------------------------------------


    POTLOK:  cpu time    0.0679: real time    0.0680
    SETDIJ:  cpu time    0.0125: real time    0.0125
    TRIAL :  cpu time   11.8474: real time   11.8639
    CORREC:  cpu time    4.3420: real time    4.3664
    CHARGE:  cpu time    0.4471: real time    0.4475
    --------------------------------------------
      LOOP:  cpu time   16.7209: real time   16.7626

 eigenvalue-minimisations  :     0
 total energy-change (2. order) :-0.9102663E+02  (-0.7805305E+02)
 number of electron     258.0000076 magnetization       6.0000002
 augmentation part       78.4955187 magnetization       2.6064547

 Free energy of the ion-electron system (eV)
  ---------------------------------------------------
  alpha Z        PSCENC =       736.91146604
  Ewald energy   TEWEN  =    -13793.53954698
  -Hartree energ DENC   =     -7251.34946913
  -exchange      EXHF   =         0.00000000
  -V(xc)+E(xc)   XCENC  =       857.47888181
  PAW double counting   =     25053.11883347   -25495.99024343
  entropy T*S    EENTRO =        -0.05316983
  eigenvalues    EBANDS =      -290.96534593
  atomic energy  EATOM  =     20168.87094289
  ---------------------------------------------------
  free energy    TOTEN  =       -15.52030561 eV

  energy without entropy =      -15.46713578  energy(sigma->0) =      -15.49372069


--------------------------------------------------------------------------------------------------------




--------------------------------------- Iteration      1(  15)  ---------------------------------------


    POTLOK:  cpu time    0.0464: real time    0.0465
    SETDIJ:  cpu time    0.0123: real time    0.0123
    TRIAL :  cpu time   12.1763: real time   12.1925
    CORREC:  cpu time    4.4950: real time    4.5003
    CHARGE:  cpu time    0.4432: real time    0.4436
    --------------------------------------------
      LOOP:  cpu time   17.1779: real time   17.1997

 eigenvalue-minimisations  :     0
 total energy-change (2. order) : 0.9136050E+00  (-0.1794558E+03)
 number of electron     258.0000075 magnetization       6.0000002
 augmentation part       78.3297400 magnetization       2.7165517

 Free energy of the ion-electron system (eV)
  ---------------------------------------------------
  alpha Z        PSCENC =       736.91146604
  Ewald energy   TEWEN  =    -13793.53954698
  -Hartree energ DENC   =     -7358.22753665
  -exchange      EXHF   =         0.00000000
  -V(xc)+E(xc)   XCENC  =       869.07774264
  PAW double counting   =     25537.52139129   -26057.90624479
  entropy T*S    EENTRO =        -0.04777356
  eigenvalues    EBANDS =      -117.26174523
  atomic energy  EATOM  =     20168.87094289
  ---------------------------------------------------
  free energy    TOTEN  =       -14.60670061 eV

  energy without entropy =      -14.55892704  energy(sigma->0) =      -14.58281382


--------------------------------------------------------------------------------------------------------




--------------------------------------- Iteration      1(  16)  ---------------------------------------


    POTLOK:  cpu time    0.0462: real time    0.0462
    SETDIJ:  cpu time    0.0122: real time    0.0122
    TRIAL :  cpu time   12.1506: real time   12.1671
    CORREC:  cpu time    4.3462: real time    4.3519
    CHARGE:  cpu time    0.4350: real time    0.4354
    --------------------------------------------
      LOOP:  cpu time   16.9947: real time   17.0172

 eigenvalue-minimisations  :     0
 total energy-change (2. order) : 0.1211546E+03  (-0.6926125E+03)
 number of electron     258.0000078 magnetization       6.0000003
 augmentation part       77.3806513 magnetization       2.7141921

 Free energy of the ion-electron system (eV)
  ---------------------------------------------------
  alpha Z        PSCENC =       736.91146604
  Ewald energy   TEWEN  =    -13793.53954698
  -Hartree energ DENC   =     -7786.88896302
  -exchange      EXHF   =         0.00000000
  -V(xc)+E(xc)   XCENC  =       866.96791070
  PAW double counting   =     25403.07615807   -25927.90243450
  entropy T*S    EENTRO =        -0.02875869
  eigenvalues    EBANDS =       439.10016782
  atomic energy  EATOM  =     20168.87094289
  ---------------------------------------------------
  free energy    TOTEN  =       106.54792747 eV

  energy without entropy =      106.57668616  energy(sigma->0) =      106.56230682


--------------------------------------------------------------------------------------------------------




--------------------------------------- Iteration      1(  17)  ---------------------------------------


    POTLOK:  cpu time    0.0465: real time    0.0465
    SETDIJ:  cpu time    0.0123: real time    0.0123
    TRIAL :  cpu time   12.1177: real time   12.1343
    CORREC:  cpu time    4.2959: real time    4.3009
    CHARGE:  cpu time    0.4322: real time    0.4327
    --------------------------------------------
      LOOP:  cpu time   16.9089: real time   16.9310

 eigenvalue-minimisations  :     0
 total energy-change (2. order) : 0.8884418E+03  (-0.1997104E+04)
 number of electron     258.0000077 magnetization       6.0000003
 augmentation part       78.6610751 magnetization       2.3434796

 Free energy of the ion-electron system (eV)
  ---------------------------------------------------
  alpha Z        PSCENC =       736.91146604
  Ewald energy   TEWEN  =    -13793.53954698
  -Hartree energ DENC   =     -7891.97076801
  -exchange      EXHF   =         0.00000000
  -V(xc)+E(xc)   XCENC  =       866.95418300
  PAW double counting   =     25472.97009667   -25990.64843693
  entropy T*S    EENTRO =        -0.02951822
  eigenvalues    EBANDS =      1425.47059830
  atomic energy  EATOM  =     20168.87094289
  ---------------------------------------------------
  free energy    TOTEN  =       994.98977629 eV

  energy without entropy =      995.01929451  energy(sigma->0) =      995.00453540


--------------------------------------------------------------------------------------------------------




--------------------------------------- Iteration      1(  18)  ---------------------------------------


    POTLOK:  cpu time    0.0464: real time    0.0464
    SETDIJ:  cpu time    0.0123: real time    0.0124
    TRIAL :  cpu time   12.0629: real time   12.0790
    CORREC:  cpu time    4.3910: real time    4.3963
    CHARGE:  cpu time    0.4408: real time    0.4413
    --------------------------------------------
      LOOP:  cpu time   16.9580: real time   16.9798

 eigenvalue-minimisations  :     0
 total energy-change (2. order) : 0.6180775E+03  (-0.4393055E+04)
 number of electron     258.0000076 magnetization       6.0000005
 augmentation part       77.4272449 magnetization       3.1426640

 Free energy of the ion-electron system (eV)
  ---------------------------------------------------
  alpha Z        PSCENC =       736.91146604
  Ewald energy   TEWEN  =    -13793.53954698
  -Hartree energ DENC   =     -9644.79521990
  -exchange      EXHF   =         0.00000000
  -V(xc)+E(xc)   XCENC  =       868.25409181
  PAW double counting   =     25879.70705849   -26449.75308944
  entropy T*S    EENTRO =        -0.01585659
  eigenvalues    EBANDS =      3847.44112546
  atomic energy  EATOM  =     20168.87094289
  ---------------------------------------------------
  free energy    TOTEN  =      1613.06731015 eV

  energy without entropy =     1613.08316674  energy(sigma->0) =     1613.07523845


--------------------------------------------------------------------------------------------------------




--------------------------------------- Iteration      1(  19)  ---------------------------------------


    POTLOK:  cpu time    0.0473: real time    0.0473
    SETDIJ:  cpu time    0.0124: real time    0.0124
    TRIAL :  cpu time   12.4599: real time   12.4761
    CORREC:  cpu time    4.3999: real time    4.4051
    CHARGE:  cpu time    0.4378: real time    0.4382
    --------------------------------------------
      LOOP:  cpu time   17.3617: real time   17.3834

 eigenvalue-minimisations  :     0
 total energy-change (2. order) : 0.1027497E+04  (-0.3777184E+03)
 number of electron     258.0000076 magnetization       6.0000004
 augmentation part       78.3992369 magnetization       3.0407302

 Free energy of the ion-electron system (eV)
  ---------------------------------------------------
  alpha Z        PSCENC =       736.91146604
  Ewald energy   TEWEN  =    -13793.53954698
  -Hartree energ DENC   =     -9241.93776135
  -exchange      EXHF   =         0.00000000
  -V(xc)+E(xc)   XCENC  =       873.45246699
  PAW double counting   =     26603.33609098   -27179.61224148
  entropy T*S    EENTRO =        -0.02216898
  eigenvalues    EBANDS =      4473.09854881
  atomic energy  EATOM  =     20168.87094289
  ---------------------------------------------------
  free energy    TOTEN  =      2640.56410931 eV

  energy without entropy =     2640.58627829  energy(sigma->0) =     2640.57519380


--------------------------------------------------------------------------------------------------------




--------------------------------------- Iteration      1(  20)  ---------------------------------------


    POTLOK:  cpu time    0.0460: real time    0.0460
    SETDIJ:  cpu time    0.0123: real time    0.0123
    TRIAL :  cpu time   12.0660: real time   12.0827
    CORREC:  cpu time    4.5071: real time    4.5125
    CHARGE:  cpu time    0.4300: real time    0.4303
    --------------------------------------------
      LOOP:  cpu time   17.0658: real time   17.0882

 eigenvalue-minimisations  :     0
 total energy-change (2. order) :-0.1149737E+04  (-0.1575583E+04)
 number of electron     258.0000077 magnetization       6.0000003
 augmentation part       78.1307004 magnetization       2.6719626

 Free energy of the ion-electron system (eV)
  ---------------------------------------------------
  alpha Z        PSCENC =       736.91146604
  Ewald energy   TEWEN  =    -13793.53954698
  -Hartree energ DENC   =     -8415.98713942
  -exchange      EXHF   =         0.00000000
  -V(xc)+E(xc)   XCENC  =       870.66204010
  PAW double counting   =     26162.19810453   -26737.81382854
  entropy T*S    EENTRO =        -0.02288270
  eigenvalues    EBANDS =      2499.54708653
  atomic energy  EATOM  =     20168.87094289
  ---------------------------------------------------
  free energy    TOTEN  =      1490.82695617 eV

  energy without entropy =     1490.84983887  energy(sigma->0) =     1490.83839752


--------------------------------------------------------------------------------------------------------




--------------------------------------- Iteration      1(  21)  ---------------------------------------


    POTLOK:  cpu time    0.0463: real time    0.0464
    SETDIJ:  cpu time    0.0129: real time    0.0129
    TRIAL :  cpu time   11.8093: real time   11.8249
    CORREC:  cpu time    4.4227: real time    4.4278
    CHARGE:  cpu time    0.4202: real time    0.4206
    --------------------------------------------
      LOOP:  cpu time   16.7159: real time   16.7372

 eigenvalue-minimisations  :     0
 total energy-change (2. order) :-0.2139290E+03  (-0.2075255E+04)
 number of electron     258.0000075 magnetization       6.0000005
 augmentation part       78.1977649 magnetization       3.2151805

 Free energy of the ion-electron system (eV)
  ---------------------------------------------------
  alpha Z        PSCENC =       736.91146604
  Ewald energy   TEWEN  =    -13793.53954698
  -Hartree energ DENC   =     -9233.65494115
  -exchange      EXHF   =         0.00000000
  -V(xc)+E(xc)   XCENC  =       867.20464827
  PAW double counting   =     25508.61635539   -26062.71613454
  entropy T*S    EENTRO =        -0.01558410
  eigenvalues    EBANDS =      3085.22801580
  atomic energy  EATOM  =     20168.87094289
  ---------------------------------------------------
  free energy    TOTEN  =      1276.89792303 eV

  energy without entropy =     1276.91350713  energy(sigma->0) =     1276.90571508


--------------------------------------------------------------------------------------------------------




--------------------------------------- Iteration      1(  22)  ---------------------------------------


    POTLOK:  cpu time    0.0459: real time    0.0459
    SETDIJ:  cpu time    0.0123: real time    0.0123
    TRIAL :  cpu time   11.7653: real time   11.7803
    CORREC:  cpu time    4.3694: real time    4.3747
    CHARGE:  cpu time    0.4290: real time    0.4295
    --------------------------------------------
      LOOP:  cpu time   16.6263: real time   16.6471

 eigenvalue-minimisations  :     0
 total energy-change (2. order) : 0.9571138E+03  (-0.7933991E+03)
 number of electron     258.0000074 magnetization       6.0000002
 augmentation part       78.5255594 magnetization       3.0519798

 Free energy of the ion-electron system (eV)
  ---------------------------------------------------
  alpha Z        PSCENC =       736.91146604
  Ewald energy   TEWEN  =    -13793.53954698
  -Hartree energ DENC   =     -9006.73724854
  -exchange      EXHF   =         0.00000000
  -V(xc)+E(xc)   XCENC  =       872.51558461
  PAW double counting   =     26457.25924636   -27050.12678087
  entropy T*S    EENTRO =        -0.03760105
  eigenvalues    EBANDS =      3848.87360901
  atomic energy  EATOM  =     20168.87094289
  ---------------------------------------------------
  free energy    TOTEN  =      2234.01168841 eV

  energy without entropy =     2234.04928945  energy(sigma->0) =     2234.03048893


--------------------------------------------------------------------------------------------------------




--------------------------------------- Iteration      1(  23)  ---------------------------------------


    POTLOK:  cpu time    0.0476: real time    0.0476
    SETDIJ:  cpu time    0.0124: real time    0.0124
    TRIAL :  cpu time   12.1201: real time   12.1361
    CORREC:  cpu time    4.2544: real time    4.2593
    CHARGE:  cpu time    0.4267: real time    0.4271
    --------------------------------------------
      LOOP:  cpu time   16.8646: real time   16.8859

 eigenvalue-minimisations  :     0
 total energy-change (2. order) :-0.1904066E+04  (-0.1017225E+04)
 number of electron     258.0000076 magnetization       6.0000004
 augmentation part       78.2949585 magnetization       3.1773619

 Free energy of the ion-electron system (eV)
  ---------------------------------------------------
  alpha Z        PSCENC =       736.91146604
  Ewald energy   TEWEN  =    -13793.53954698
  -Hartree energ DENC   =     -8132.73504309
  -exchange      EXHF   =         0.00000000
  -V(xc)+E(xc)   XCENC  =       862.50520813
  PAW double counting   =     24941.19469088   -25484.60597493
  entropy T*S    EENTRO =        -0.02126271
  eigenvalues    EBANDS =      1031.38199876
  atomic energy  EATOM  =     20168.87094289
  ---------------------------------------------------
  free energy    TOTEN  =       329.94614066 eV

  energy without entropy =      329.96740336  energy(sigma->0) =      329.95677201


--------------------------------------------------------------------------------------------------------




--------------------------------------- Iteration      1(  24)  ---------------------------------------


    POTLOK:  cpu time    0.0480: real time    0.0480
    SETDIJ:  cpu time    0.0123: real time    0.0123
    TRIAL :  cpu time   12.0848: real time   12.1000
    CORREC:  cpu time    4.3183: real time    4.3225
    CHARGE:  cpu time    0.4270: real time    0.4273
    --------------------------------------------
      LOOP:  cpu time   16.8947: real time   16.9145

 eigenvalue-minimisations  :     0
 total energy-change (2. order) : 0.9982718E+03  (-0.1846456E+04)
 number of electron     258.0000078 magnetization       6.0000003
 augmentation part       77.6257589 magnetization       2.8658312

 Free energy of the ion-electron system (eV)
  ---------------------------------------------------
  alpha Z        PSCENC =       736.91146604
  Ewald energy   TEWEN  =    -13793.53954698
  -Hartree energ DENC   =     -8284.30217080
  -exchange      EXHF   =         0.00000000
  -V(xc)+E(xc)   XCENC  =       867.43349883
  PAW double counting   =     25710.52973054   -26280.80161785
  entropy T*S    EENTRO =        -0.02155992
  eigenvalues    EBANDS =      2203.13691495
  atomic energy  EATOM  =     20168.87094289
  ---------------------------------------------------
  free energy    TOTEN  =      1328.21795491 eV

  energy without entropy =     1328.23951483  energy(sigma->0) =     1328.22873487


--------------------------------------------------------------------------------------------------------




--------------------------------------- Iteration      1(  25)  ---------------------------------------


    POTLOK:  cpu time    0.0464: real time    0.0465
    SETDIJ:  cpu time    0.0124: real time    0.0125
    TRIAL :  cpu time   12.0072: real time   12.0220
    CORREC:  cpu time    4.2710: real time    4.2761
    CHARGE:  cpu time    0.4199: real time    0.4202
    --------------------------------------------
      LOOP:  cpu time   16.7613: real time   16.7815

 eigenvalue-minimisations  :     0
 total energy-change (2. order) :-0.6375667E+02  (-0.1692556E+04)
[...]
   20        1.577   3.367   0.000   4.944
   21        1.582   3.343   0.000   4.925
   22        1.581   3.349   0.000   4.931
   23        1.573   3.395   0.000   4.968
   24        1.572   3.414   0.000   4.985
   25        1.580   3.344   0.000   4.924
   26        1.579   3.409   0.000   4.988
   27        1.562   3.464   0.000   5.026
   28        1.565   3.437   0.000   5.002
   29        1.564   3.423   0.000   4.987
   30        1.560   3.460   0.000   5.020
   31        1.583   3.375   0.000   4.958
   32        1.573   3.418   0.000   4.991
   33        1.583   3.363   0.000   4.946
   34        1.575   3.362   0.000   4.937
   35        1.581   3.345   0.000   4.926
   36        1.574   3.373   0.000   4.947
   37        1.564   3.478   0.000   5.041
   38        1.573   3.355   0.000   4.928
   39        1.551   3.495   0.000   5.046
   40        1.559   3.446   0.000   5.005
   41        1.557   3.465   0.000   5.022
   42        1.553   3.504   0.000   5.056
--------------------------------------------------
tot         43.547  91.178  87.314 222.039
 


 magnetization (x)
 
# of ion       s       p       d       tot
------------------------------------------
    1        0.000  -0.001   0.000  -0.000
    2       -0.001  -0.004   0.000  -0.005
    3        0.000  -0.001   0.000  -0.001
    4        0.001  -0.000   0.000   0.001
    5       -0.000  -0.002   0.000  -0.002
    6        0.001   0.001   0.000   0.001
    7        0.013   0.016   1.430   1.459
    8        0.007   0.009   0.015   0.031
    9        0.013   0.018   1.312   1.342
   10        0.012   0.018   1.300   1.331
   11        0.002   0.004  -0.032  -0.026
   12        0.006   0.008   0.009   0.024
   13        0.010   0.012   1.332   1.355
   14        0.011   0.014   1.476   1.502
   15        0.002   0.002  -0.018  -0.014
   16        0.013   0.005   1.526   1.545
   17        0.003   0.002  -0.004   0.002
   18        0.002   0.002  -0.010  -0.007
   19       -0.000  -0.166   0.000  -0.166
   20        0.000  -0.126   0.000  -0.125
   21        0.001  -0.118   0.000  -0.117
   22        0.001  -0.188   0.000  -0.187
   23        0.001  -0.090   0.000  -0.089
   24        0.000  -0.100   0.000  -0.100
   25        0.000  -0.199   0.000  -0.198
   26        0.001  -0.070   0.000  -0.069
   27        0.001  -0.092   0.000  -0.091
   28        0.002  -0.059   0.000  -0.057
   29        0.001  -0.047   0.000  -0.046
   30        0.000  -0.021   0.000  -0.021
   31        0.001  -0.051   0.000  -0.050
   32        0.001  -0.028   0.000  -0.027
   33        0.001  -0.166   0.000  -0.166
   34       -0.000  -0.203   0.000  -0.204
   35        0.001  -0.154   0.000  -0.154
   36       -0.000  -0.138   0.000  -0.139
   37       -0.000  -0.006   0.000  -0.007
   38       -0.000  -0.097   0.000  -0.097
   39       -0.001  -0.009   0.000  -0.010
   40        0.000  -0.040   0.000  -0.039
   41        0.001  -0.026   0.000  -0.025
   42        0.001  -0.028   0.000  -0.027
--------------------------------------------------
tot          0.107  -2.120   8.337   6.324
 
    FORLOC:  cpu time    0.0059: real time    0.0059
    FORNL :  cpu time    4.0281: real time    4.0342
    STRESS:  cpu time   12.0487: real time   12.0671
    FORCOR:  cpu time    0.0487: real time    0.0487
    OFIELD:  cpu time    0.0003: real time    0.0003

  DFT-D2 method for vdW energy calculation
  -------------------------------------------------------------------

  Parameters of vdW forcefield:
         C6(Jnm^6/mol)     R0(A)
   -----------------------------
   Li       1.610          0.825
   Co      10.800          1.562
   O        0.700          1.342

  IVDW =   1
  VDW_RADIUS =    50.000 A
  VDW_S6 =     0.750
  VDW_SR =     1.000
  VDW_D =    20.000
  LVDW_EWALD = F

  Number of pair interactions contributing to vdW energy: 1188980
  Edisp (eV):   -9.62195
    FORVDW:  cpu time    0.1763: real time    0.1777

  FORCE on cell =-STRESS in cart. coord.  units (eV):
  Direction    XX          YY          ZZ          XY          YZ          ZX
  --------------------------------------------------------------------------------------
  Alpha Z   736.91147   736.91147   736.91147
  Ewald   -1488.29578 -1640.68780-10664.62311    83.97357   128.53246    21.56964
  Hartree  4676.62816  4604.32856 -2155.59737    26.46735    51.27518     8.11971
  E(xc)   -1283.48333 -1283.72741 -1285.19540     0.27500     0.26060    -0.01573
  Local   -8116.42758 -7908.94262  7832.89561   -98.35185  -166.19822   -27.72714
  n-local  -592.10247  -599.91752  -604.28004     2.38664     5.03563     1.60996
  augment  2014.60771  2025.70540  2008.30334    -6.01070    -7.06530    -1.10202
  Kinetic  4059.69100  4058.90218  4137.11858   -13.17220    -8.35189     3.08864
  Fock        0.00000     0.00000     0.00000     0.00000     0.00000     0.00000
  vdW        -7.36178    -5.96319   -13.07232     0.42756    -0.27161     0.16755
  -------------------------------------------------------------------------------------
  Total       0.16740   -13.39092    -7.53925    -4.00463     3.21686     5.71062
  in kB       0.67416   -53.92891   -30.36262   -16.12776    12.95517    22.99821
  external pressure =      -27.87 kB  Pullay stress =        0.00 kB


 VOLUME and BASIS-vectors are now :
 -----------------------------------------------------------------------------
  energy-cutoff  :      600.00
  volume of cell :      397.83
      direct lattice vectors                 reciprocal lattice vectors
     5.606985092  0.000000000  0.000000000     0.178348967  0.097479179 -0.003728208
    -2.708904743  4.956241608  0.000000000     0.000000000  0.201765789 -0.007341247
     0.014563062  0.520882547 14.315862656     0.000000000  0.000000000  0.069852584

  length of vectors
     5.606985092  5.648229438 14.325343077     0.203284146  0.201899301  0.069852584


 FORCES acting on ions:
    Electron-Ion                     Ewald-Force                    Non-Local-Force
 -----------------------------------------------------------------------------------------------
   0.113E+01 -.706E+00 -.140E+02   -.998E+00 0.806E+00 0.137E+02   -.934E-01 -.290E+00 0.607E+00
   -.207E+01 0.553E+01 0.243E+02   0.196E+01 -.510E+01 -.243E+02   0.288E+00 -.711E+00 -.121E+01
   0.629E+01 -.686E+00 0.239E+01   -.656E+01 0.707E+00 -.158E+01   -.109E+01 -.165E+00 -.842E+00
   0.285E+01 0.636E+01 0.502E+01   -.268E+01 -.621E+01 -.415E+01   0.723E-01 -.783E+00 -.104E+01
   -.818E+01 -.471E+01 0.112E+02   0.826E+01 0.448E+01 -.103E+02   0.174E+01 0.211E+00 -.188E+01
   -.706E+01 0.359E+01 -.247E+01   0.654E+01 -.304E+01 0.269E+01   0.948E+00 -.496E+00 -.925E-01
   0.533E+01 0.196E+02 0.127E+03   -.569E+01 -.202E+02 -.126E+03   -.722E-01 0.114E+00 0.614E-01
   0.320E+02 -.223E+02 0.538E+02   -.324E+02 0.222E+02 -.527E+02   -.330E+00 0.257E+00 -.369E+00
   -.926E+01 0.959E+01 0.567E+01   0.951E+01 -.991E+01 -.533E+01   -.122E+00 0.364E+00 0.484E+00
   -.786E+01 -.297E+02 0.677E+02   0.748E+01 0.315E+02 -.670E+02   -.246E+00 0.633E+00 0.338E-01
   0.287E+02 0.148E+02 0.122E+03   -.301E+02 -.142E+02 -.123E+03   0.177E+00 -.148E+00 0.775E+00
   -.441E+02 -.285E+02 0.780E+02   0.440E+02 0.291E+02 -.788E+02   0.166E+01 0.157E+01 0.585E+00
   -.331E+02 -.130E+02 0.140E+03   0.353E+02 0.126E+02 -.141E+03   0.606E+00 0.413E+00 0.144E+01
   -.189E+02 -.231E+02 0.967E+02   0.207E+02 0.246E+02 -.987E+02   0.390E+00 -.424E+00 0.935E+00
   0.174E+02 -.156E+02 -.197E+03   -.180E+02 0.160E+02 0.198E+03   0.327E+00 0.371E+00 -.166E+01
   -.384E+02 -.162E+02 -.144E+03   0.388E+02 0.163E+02 0.146E+03   -.112E+00 0.572E+00 -.179E+01
   -.193E+02 0.537E+02 -.127E+03   0.213E+02 -.546E+02 0.128E+03   -.660E+00 -.891E+00 -.273E+01
   0.406E+02 -.187E+02 -.221E+03   -.418E+02 0.189E+02 0.223E+03   -.199E+00 0.415E-01 -.233E+01
   -.134E+02 -.160E+02 -.262E+03   0.133E+02 0.209E+02 0.282E+03   0.938E+00 -.545E+01 -.199E+02
   0.122E+01 -.305E+01 -.282E+03   0.109E+01 0.285E+01 0.304E+03   -.277E+01 0.310E+00 -.223E+02
   0.569E+01 -.140E+01 -.284E+03   -.534E+01 0.147E+00 0.308E+03   -.264E+00 0.126E+01 -.251E+02
   0.618E+01 0.178E+02 -.289E+03   -.968E+01 -.202E+02 0.312E+03   0.400E+01 0.213E+01 -.232E+02
   0.124E+02 0.199E+02 0.360E+03   -.119E+02 -.206E+02 -.382E+03   -.747E+00 -.455E+00 0.220E+02
   0.114E+02 0.122E+02 0.364E+03   -.119E+02 -.142E+02 -.385E+03   0.614E+00 0.108E+01 0.215E+02
   -.147E+02 0.714E+01 0.359E+03   0.148E+02 -.828E+01 -.381E+03   -.884E-02 0.975E+00 0.229E+02
   -.261E+02 -.145E+02 0.360E+03   0.297E+02 0.144E+02 -.384E+03   -.317E+01 0.812E+00 0.229E+02
   0.246E+01 -.125E+02 -.249E+03   -.135E+01 0.115E+02 0.263E+03   -.100E+01 0.166E+01 -.148E+02
   0.200E+02 0.922E+01 -.241E+03   -.235E+02 -.662E+01 0.256E+03   0.292E+01 -.370E+01 -.156E+02
   0.163E+00 -.444E+01 -.247E+03   -.497E+00 0.288E+01 0.263E+03   0.687E-01 0.231E+01 -.173E+02
   -.590E+01 -.398E+01 -.241E+03   0.624E+01 0.546E+01 0.256E+03   -.115E+00 -.135E+01 -.141E+02
   0.319E+02 -.690E+01 0.404E+03   -.352E+02 0.634E+01 -.431E+03   0.161E+01 0.352E+00 0.276E+02
   0.850E+01 0.547E+02 0.393E+03   -.698E+01 -.608E+02 -.414E+03   -.266E+01 0.497E+01 0.217E+02
   0.983E+01 -.134E+02 0.394E+03   -.123E+02 0.139E+02 -.419E+03   0.940E+00 -.142E+01 0.252E+02
   -.150E+01 0.137E+02 0.375E+03   -.215E+01 -.154E+02 -.395E+03   0.343E+01 0.128E+01 0.207E+02
   -.152E+02 0.139E+02 -.424E+03   0.157E+02 -.151E+02 0.449E+03   0.539E-01 0.864E+00 -.255E+02
   0.158E+02 0.485E+00 -.430E+03   -.170E+02 -.133E+01 0.454E+03   0.148E+01 0.527E+00 -.244E+02
   0.240E+02 -.301E+02 -.422E+03   -.266E+02 0.346E+02 0.442E+03   0.178E+01 -.320E+01 -.194E+02
   -.268E+02 0.379E+01 -.394E+03   0.292E+02 -.410E+01 0.415E+03   -.201E+01 0.314E+00 -.224E+02
   0.306E+02 0.186E+02 0.187E+03   -.333E+02 -.196E+02 -.198E+03   0.198E+01 0.517E+00 0.114E+02
   0.107E+01 0.679E+01 0.211E+03   -.172E+01 -.806E+01 -.227E+03   0.686E+00 0.109E+01 0.163E+02
   -.341E+02 0.134E+02 0.169E+03   0.353E+02 -.142E+02 -.181E+03   -.310E+00 0.301E+00 0.133E+02
   0.248E+01 -.292E+02 0.178E+03   -.139E+01 0.318E+02 -.186E+03   -.205E+01 -.156E+01 0.831E+01
 -----------------------------------------------------------------------------------------------
   -.866E+01 -.419E+01 0.192E+02   -.107E-12 0.604E-13 -.682E-12   0.867E+01 0.427E+01 -.192E+02
 
 
 POSITION                                       TOTAL-FORCE (eV/Angst)
 -----------------------------------------------------------------------------------
      2.64516      0.65503     14.20422         0.069978     -0.096463      0.149046
      2.97959      3.96829      4.96449         0.121564     -0.432112     -1.319421
      0.21264      1.88869      9.57987        -1.033593     -0.125487      0.115471
     -1.62104      4.43500      9.60546         0.238388     -0.449087      0.015142
      2.46786      1.88580      9.69125         1.389630     -0.063041     -0.687450
      1.26656      4.41177      9.61863         0.335580      0.067952      0.159325
      0.14251      2.09882      2.31747        -0.428451     -0.450274      1.036996
     -1.18668      4.56805      2.45031        -0.607889      0.083725      0.706614
      2.96243      2.01601      2.49469         0.091259      0.101995      0.667070
      1.58838      4.47074      2.42653        -0.504136      2.107544      0.734946
      3.00340      5.01927      7.16435        -1.072510      0.433575      0.731006
      4.32669      2.47448      7.25468         1.214897      1.854545     -0.071023
      0.10555      5.09285      7.12362         2.492057     -0.087117      0.627483
      1.43171      2.56752      7.23285         1.887249      0.948641     -0.804444
      1.27565      1.07563     11.84342        -0.167992      0.658714     -0.247263
     -0.09394      3.58645     11.84082         0.273973      0.566979      0.063823
      4.05416      1.15861     11.82552         1.197731     -1.561424     -1.477740
      2.77645      3.59192     11.91902        -1.219492      0.172777     -0.618045
      0.02338      0.46147      3.37695         0.852668     -0.498571     -0.224068
     -1.18077      2.87653      3.39652        -0.515098      0.143103     -0.141125
      2.93437      0.40221      3.48649         0.067560      0.009589     -1.256736
      1.49818      2.88365      3.43800         0.552913     -0.164838     -0.348468
      1.59093      1.32260      1.45219        -0.299728     -1.063905      0.132005
      0.18206      3.81371      1.41802         0.090459     -1.017610      0.285431
      4.30360      1.21025      1.43823         0.134079     -0.191569      0.215241
      2.96519      3.62138      1.64483         0.441813      0.735829     -1.528827
      1.44949      0.87801      8.24351         0.128394      0.655866     -0.438244
      0.15771      3.52953      8.22977        -0.681687     -1.080542     -0.279359
      4.29451      0.82023      8.25805        -0.273606      0.854178     -1.019169
      2.88704      3.36365      8.13647         0.153719      0.125053      0.729910
      0.24813      1.71765      6.25232        -1.703726     -0.201499      0.074759
     -1.17091      4.28785      6.20912        -1.074861     -1.191076     -0.048621
      2.99546      1.81645      6.27014        -1.511244     -0.849728     -0.291828
      1.54871      4.27767      6.15646        -0.262420     -0.385907      1.003820
     -0.16473      2.00361     12.78772         0.570095     -0.420031     -0.157401
     -1.44064      4.45367     12.87552         0.215032     -0.329237     -0.720727
      2.71955      1.85013     12.72842        -0.893421      1.363277      1.255038
      1.24837      4.43894     12.85652         0.448342     -0.023425     -1.090180
      2.78638      5.26192     10.82422        -0.704387     -0.471998      0.186790
      4.13209      2.80171     10.73632         0.089631     -0.231425      0.797065
     -0.14824      5.22765     10.57362         0.840664     -0.511386      2.305265
      1.38827      2.71788     10.79062        -0.943435      1.014409      0.777894
 -----------------------------------------------------------------------------------
    total drift:                                0.006678      0.081550     -0.013796


--------------------------------------------------------------------------------------------------------



  FREE ENERGIE OF THE ION-ELECTRON SYSTEM (eV)
  ---------------------------------------------------
  free  energy   TOTEN  =      -232.73670590 eV

  energy  without entropy=     -232.73386878  energy(sigma->0) =     -232.73528734
 


--------------------------------------------------------------------------------------------------------


    POTLOK:  cpu time    0.0713: real time    0.0714


--------------------------------------------------------------------------------------------------------


     LOOP+:  cpu time 2689.0884: real time 2704.3126
    4ORBIT:  cpu time    0.0000: real time    0.0000
 


 total charge     
 
# of ion       s       p       d       tot
------------------------------------------
    1        0.080   0.159   0.000   0.238
    2        0.080   0.167   0.000   0.247
    3        0.101   0.214   0.000   0.315
    4        0.114   0.247   0.000   0.361
    5        0.129   0.287   0.000   0.415
    6        0.108   0.235   0.000   0.343
    7        0.441   0.690   7.153   8.283
    8        0.418   0.636   7.341   8.395
    9        0.466   0.751   7.218   8.435
   10        0.469   0.756   7.230   8.455
   11        0.439   0.688   7.392   8.519
   12        0.413   0.611   7.338   8.362
   13        0.456   0.725   7.208   8.389
   14        0.452   0.713   7.242   8.406
   15        0.429   0.670   7.372   8.471
   16        0.433   0.646   7.178   8.258
   17        0.427   0.647   7.362   8.436
   18        0.396   0.585   7.279   8.261
   19        1.574   3.368   0.000   4.942
   20        1.577   3.367   0.000   4.944
   21        1.582   3.343   0.000   4.925
   22        1.581   3.349   0.000   4.931
   23        1.573   3.395   0.000   4.968
   24        1.572   3.414   0.000   4.985
   25        1.580   3.344   0.000   4.924
   26        1.579   3.409   0.000   4.988
   27        1.562   3.464   0.000   5.026
   28        1.565   3.437   0.000   5.002
   29        1.564   3.423   0.000   4.987
   30        1.560   3.460   0.000   5.020
   31        1.583   3.375   0.000   4.958
   32        1.573   3.418   0.000   4.991
   33        1.583   3.363   0.000   4.946
   34        1.575   3.362   0.000   4.937
   35        1.581   3.345   0.000   4.926
   36        1.574   3.373   0.000   4.947
   37        1.564   3.478   0.000   5.041
   38        1.573   3.355   0.000   4.928
   39        1.551   3.495   0.000   5.046
   40        1.559   3.446   0.000   5.005
   41        1.557   3.465   0.000   5.022
   42        1.553   3.504   0.000   5.056
--------------------------------------------------
tot         43.547  91.178  87.314 222.039
 


 magnetization (x)
 
# of ion       s       p       d       tot
------------------------------------------
    1        0.000  -0.001   0.000  -0.000
    2       -0.001  -0.004   0.000  -0.005
    3        0.000  -0.001   0.000  -0.001
    4        0.001  -0.000   0.000   0.001
    5       -0.000  -0.002   0.000  -0.002
    6        0.001   0.001   0.000   0.001
    7        0.013   0.016   1.430   1.459
    8        0.007   0.009   0.015   0.031
    9        0.013   0.018   1.312   1.342
   10        0.012   0.018   1.300   1.331
   11        0.002   0.004  -0.032  -0.026
   12        0.006   0.008   0.009   0.024
   13        0.010   0.012   1.332   1.355
   14        0.011   0.014   1.476   1.502
   15        0.002   0.002  -0.018  -0.014
   16        0.013   0.005   1.526   1.545
   17        0.003   0.002  -0.004   0.002
   18        0.002   0.002  -0.010  -0.007
   19       -0.000  -0.166   0.000  -0.166
   20        0.000  -0.126   0.000  -0.125
   21        0.001  -0.118   0.000  -0.117
   22        0.001  -0.188   0.000  -0.187
   23        0.001  -0.090   0.000  -0.089
   24        0.000  -0.100   0.000  -0.100
   25        0.000  -0.199   0.000  -0.198
   26        0.001  -0.070   0.000  -0.069
   27        0.001  -0.092   0.000  -0.091
   28        0.002  -0.059   0.000  -0.057
   29        0.001  -0.047   0.000  -0.046
   30        0.000  -0.021   0.000  -0.021
   31        0.001  -0.051   0.000  -0.050
   32        0.001  -0.028   0.000  -0.027
   33        0.001  -0.166   0.000  -0.166
   34       -0.000  -0.203   0.000  -0.204
   35        0.001  -0.154   0.000  -0.154
   36       -0.000  -0.138   0.000  -0.139
   37       -0.000  -0.006   0.000  -0.007
   38       -0.000  -0.097   0.000  -0.097
   39       -0.001  -0.009   0.000  -0.010
   40        0.000  -0.040   0.000  -0.039
   41        0.001  -0.026   0.000  -0.025
   42        0.001  -0.028   0.000  -0.027
--------------------------------------------------
tot          0.107  -2.120   8.337   6.324
 

 total amount of memory used by VASP MPI-rank0   159820. kBytes
=======================================================================

   base      :      30000. kBytes
   nonlr-proj:       4262. kBytes
   fftplans  :       1688. kBytes
   grid      :       4644. kBytes
   one-center:        342. kBytes
   wavefun   :     118884. kBytes
 
  
  
 General timing and accounting informations for this job:
 ========================================================
  
                  Total CPU time used (sec):     2714.944
                            User time (sec):     2509.692
                          System time (sec):      205.252
                         Elapsed time (sec):     2730.662
  
                   Maximum memory used (kb):      769348.
                   Average memory used (kb):           0.
  
                          Minor page faults:        71076
                          Major page faults:           80
                 Voluntary context switches:          599
