 running on   64 total cores
 distrk:  each k-point on   64 cores,    1 groups
 distr:  one band on    4 cores,   16 groups
 using from now: INCAR     
 vasp.5.4.4.18Apr17-6-g9f103f2a35 (build Nov 22 2021 14:44:17) complex          
  
 POSCAR found type information on POSCAR  Li Co O 
 POSCAR found :  3 types and      42 ions
 scaLAPACK will be used
 LDA part: xc-table for Pade appr. of Perdew
 generate k-points for:    6    6    2
 POSCAR, INCAR and KPOINTS ok, starting setup
 FFT: planning ...
 WAVECAR not read
 entering main loop
       N       E                     dE             d eps       ncg     rms          ort
DAV:   1     0.347788574939E+04    0.34779E+04   -0.13939E+05  5760   0.217E+03
DAV:   2     0.414977377372E+03   -0.30629E+04   -0.28239E+04  5760   0.529E+02
DAV:   3    -0.218948336557E+03   -0.63393E+03   -0.58114E+03  5760   0.254E+02
DAV:   4    -0.270237475440E+03   -0.51289E+02   -0.50146E+02  5760   0.740E+01
DAV:   5    -0.272068201832E+03   -0.18307E+01   -0.18269E+01  5760   0.140E+01
 gam= 0.000 g(H,U,f)=  0.178E+04 0.109E+04 0.174E+04 ort(H,U,f) = 0.000E+00 0.000E+00 0.000E+00
SDA:   6     0.998417583254E+02    0.37191E+03   -0.18269E+01  5760   0.461E+04 0.000E+00
 gam= 0.000 trial= 0.400  step= 0.075 mean= 0.400
 gam= 1.401 g(H,U,f)=  0.100E+04 0.127E+04 0.418E+04 ort(H,U,f) = 0.101E+04 0.278E+03-0.910E+03
CGA:   7     0.304585422960E+02   -0.69383E+02   -0.17275E+03  5760   0.646E+04 0.375E+03
 gam= 1.401 trial= 0.384  step= 0.082 mean= 0.384
 gam= 1.472 g(H,U,f)=  0.399E+03 0.262E+04 0.648E+04 ort(H,U,f) = 0.466E+03 0.389E+03-0.313E+02
CGA:   8    -0.763366384040E+02   -0.10680E+03   -0.28521E+03  5760   0.950E+04 0.824E+03
 gam= 1.472 trial= 0.369  step= 0.070 mean= 0.369
 gam= 0.326 g(H,U,f)=  0.944E+03 0.164E+04 0.516E+03 ort(H,U,f) =-0.231E+03-0.318E+04-0.822E+03
CGA:   9     0.282515796511E+02    0.10459E+03   -0.37754E+03  5760   0.310E+04-0.423E+04
 gam= 0.326 trial= 0.354  step= 0.029 mean= 0.354
 gam= 0.718 g(H,U,f)=  0.835E+03 0.103E+04 0.360E+03 ort(H,U,f) = 0.624E+03 0.252E+03 0.265E+03
CGA:  10     0.159727454126E+02   -0.12279E+02   -0.25115E+02  5760   0.223E+04 0.114E+04
 gam= 0.718 trial= 0.338  step= 0.037 mean= 0.338
 gam= 0.599 g(H,U,f)=  0.747E+03 0.542E+03 0.444E+02 ort(H,U,f) = 0.899E+03-0.906E+03-0.161E+03
CGA:  11     0.405065173151E+01   -0.11922E+02   -0.56343E+02  5760   0.133E+04-0.169E+03
 gam= 0.599 trial= 0.322  step= 0.083 mean= 0.322
 gam= 1.320 g(H,U,f)=  0.615E+03 0.960E+03 0.185E+03 ort(H,U,f) = 0.763E+03-0.271E+03-0.735E+02
CGA:  12    -0.241038546803E+02   -0.28155E+02   -0.50933E+02  5760   0.176E+04 0.419E+03
 gam= 1.320 trial= 0.310  step= 0.080 mean= 0.310
 gam= 0.000 g(H,U,f)=  0.386E+03 0.473E+03 0.318E+02 ort(H,U,f) = 0.843E+03 0.302E+03 0.417E+02
CGA:  13    -0.727615647033E+02   -0.48658E+02   -0.92881E+02  5760   0.891E+03 0.119E+04
 gam= 0.000 trial= 0.299  step= 0.108 mean= 0.299
 gam= 0.892 g(H,U,f)=  0.237E+03 0.426E+03 0.132E+03 ort(H,U,f) = 0.197E+03-0.141E+03-0.413E+02
CGA:  14    -0.116370380949E+03   -0.43609E+02   -0.47913E+02  5760   0.795E+03 0.145E+02
 gam= 0.892 trial= 0.289  step= 0.145 mean= 0.289
 gam= 0.396 g(H,U,f)=  0.183E+03 0.126E+03 0.561E+01 ort(H,U,f) = 0.682E+02-0.614E+02 0.948E+01
CGA:  15    -0.165661974758E+03   -0.49292E+02   -0.58587E+02  5760   0.315E+03 0.163E+02
 gam= 0.396 trial= 0.282  step= 0.193 mean= 0.282
 gam= 0.602 g(H,U,f)=  0.389E+02 0.135E+03 0.163E+02 ort(H,U,f) = 0.464E+02-0.320E+02-0.641E+01
CGA:  16    -0.194173846761E+03   -0.28512E+02   -0.31052E+02  5760   0.190E+03 0.793E+01
 gam= 0.602 trial= 0.278  step= 0.085 mean= 0.278
 gam= 0.216 g(H,U,f)=  0.198E+02 0.210E+02 0.257E+00 ort(H,U,f) = 0.195E+02-0.198E+02-0.598E+00
CGA:  17    -0.201592308945E+03   -0.74185E+01   -0.82706E+01  5760   0.410E+02-0.865E+00
 gam= 0.216 trial= 0.268  step= 0.158 mean= 0.268
 gam= 1.312 g(H,U,f)=  0.117E+02 0.404E+02 0.181E+01 ort(H,U,f) = 0.107E+02-0.110E+02-0.619E+00
CGA:  18    -0.204654019809E+03   -0.30617E+01   -0.32320E+01  5760   0.539E+02-0.987E+00
 gam= 1.312 trial= 0.263  step= 0.140 mean= 0.263
 gam= 0.470 g(H,U,f)=  0.777E+01 0.164E+02 0.110E+01 ort(H,U,f) =-0.183E+00-0.135E+01 0.127E+01
CGA:  19    -0.208334225150E+03   -0.36802E+01   -0.36709E+01  5760   0.253E+02-0.265E+00
 gam= 0.470 trial= 0.256  step= 0.259 mean= 0.256
 gam= 0.864 g(H,U,f)=  0.614E+01 0.132E+02 0.247E+01 ort(H,U,f) =-0.440E+01 0.262E+01 0.140E+01
CGA:  20    -0.211588595294E+03   -0.32544E+01   -0.32552E+01  5760   0.218E+02-0.372E+00
 gam= 0.864 trial= 0.257  step= 0.133 mean= 0.257
 gam= 0.644 g(H,U,f)=  0.578E+01 0.763E+01 0.661E+00 ort(H,U,f) =-0.219E+01 0.242E+01 0.284E+00
CGA:  21    -0.213041305797E+03   -0.14527E+01   -0.14353E+01  5760   0.141E+02 0.509E+00
 gam= 0.644 trial= 0.250  step= 0.281 mean= 0.250
 gam= 1.175 g(H,U,f)=  0.613E+01 0.947E+01 0.922E+00 ort(H,U,f) =-0.246E+01-0.887E+00 0.117E+01
CGA:  22    -0.215016881540E+03   -0.19756E+01   -0.20204E+01  5760   0.165E+02-0.218E+01
 gam= 1.175 trial= 0.252  step= 0.128 mean= 0.252
 gam= 1.419 g(H,U,f)=  0.641E+01 0.140E+02 0.308E+01 ort(H,U,f) =-0.598E+00 0.116E+01 0.533E+01
CGA:  23    -0.216013345033E+03   -0.99646E+00   -0.89032E+00  5760   0.235E+02 0.589E+01
 gam= 1.419 trial= 0.246  step= 0.085 mean= 0.246
 gam= 0.000 g(H,U,f)=  0.653E+01 0.112E+02 0.496E+01 ort(H,U,f) =-0.173E+01-0.220E+01 0.173E+02
CGA:  24    -0.216884444316E+03   -0.87110E+00   -0.13527E+01  5760   0.227E+02 0.134E+02
 gam= 0.000 trial= 0.238  step= 0.078 mean= 0.238
 gam= 0.630 g(H,U,f)=  0.393E+01 0.924E+01 0.110E+01 ort(H,U,f) = 0.401E+01-0.579E+01-0.100E+01
CGA:  25    -0.217515305135E+03   -0.63086E+00   -0.88537E+00  5760   0.143E+02-0.278E+01
 gam= 0.630 trial= 0.230  step= 0.132 mean= 0.230
 gam= 0.684 g(H,U,f)=  0.231E+01 0.641E+01 0.104E+01 ort(H,U,f) = 0.286E+01-0.270E+01 0.737E-01
CGA:  26    -0.218319139644E+03   -0.80383E+00   -0.82724E+00  5760   0.976E+01 0.230E+00
 gam= 0.684 trial= 0.225  step= 0.101 mean= 0.225
 gam= 1.007 g(H,U,f)=  0.165E+01 0.675E+01 0.143E+01 ort(H,U,f) = 0.238E+01-0.212E+01 0.201E+00
CGA:  27    -0.218784762714E+03   -0.46562E+00   -0.50010E+00  5760   0.984E+01 0.458E+00
 gam= 1.007 trial= 0.219  step= 0.159 mean= 0.219
 gam= 0.250 g(H,U,f)=  0.753E+00 0.125E+01 0.460E+00 ort(H,U,f) = 0.194E+00 0.423E+00 0.141E+01
CGA:  28    -0.219536262966E+03   -0.75150E+00   -0.81669E+00  5760   0.246E+01 0.202E+01
 gam= 0.250 trial= 0.216  step= 0.196 mean= 0.216
 gam= 0.943 g(H,U,f)=  0.318E+00 0.165E+01 0.355E+00 ort(H,U,f) = 0.670E-01 0.567E+00 0.211E+00
CGA:  29    -0.219813878937E+03   -0.27762E+00   -0.29125E+00  5760   0.232E+01 0.845E+00
 gam= 0.943 trial= 0.215  step= 0.095 mean= 0.215
 gam= 1.044 g(H,U,f)=  0.306E+00 0.180E+01 0.318E+00 ort(H,U,f) =-0.125E+00 0.226E+00-0.664E-01
CGA:  30    -0.219943231746E+03   -0.12935E+00   -0.14811E+00  5760   0.242E+01 0.346E-01
 gam= 1.044 trial= 0.209  step= 0.211 mean= 0.209
 gam= 0.688 g(H,U,f)=  0.633E+00 0.978E+00 0.556E-01 ort(H,U,f) =-0.747E+00 0.927E+00 0.647E-02
CGA:  31    -0.220203489261E+03   -0.26026E+00   -0.25977E+00  5760   0.167E+01 0.187E+00
 gam= 0.688 trial= 0.209  step= 0.357 mean= 0.209
 gam= 1.175 g(H,U,f)=  0.595E+00 0.115E+01 0.214E+00 ort(H,U,f) =-0.299E+00 0.603E+00 0.118E-01
CGA:  32    -0.220551550872E+03   -0.34806E+00   -0.32047E+00  5760   0.196E+01 0.316E+00
 gam= 1.175 trial= 0.216  step= 0.136 mean= 0.216
 gam= 1.270 g(H,U,f)=  0.508E+00 0.154E+01 0.437E+00 ort(H,U,f) =-0.116E+00 0.409E+00-0.297E+00
CGA:  33    -0.220707347546E+03   -0.15580E+00   -0.15829E+00  5760   0.249E+01-0.455E-02
 gam= 1.270 trial= 0.212  step= 0.191 mean= 0.212
 gam= 0.868 g(H,U,f)=  0.581E+00 0.138E+01 0.197E+00 ort(H,U,f) =-0.388E+00 0.479E+00-0.965E-01
CGA:  34    -0.220944459817E+03   -0.23711E+00   -0.23680E+00  5760   0.216E+01-0.527E-02
 gam= 0.868 trial= 0.211  step= 0.183 mean= 0.211
 gam= 1.090 g(H,U,f)=  0.671E+00 0.137E+01 0.309E+00 ort(H,U,f) =-0.213E+00 0.364E+00-0.781E-01
CGA:  35    -0.221139429184E+03   -0.19497E+00   -0.19744E+00  5760   0.235E+01 0.734E-01
 gam= 1.090 trial= 0.210  step= 0.158 mean= 0.210
 gam= 0.883 g(H,U,f)=  0.585E+00 0.115E+01 0.341E+00 ort(H,U,f) =-0.613E-01 0.336E+00-0.212E+00
CGA:  36    -0.221325583833E+03   -0.18615E+00   -0.19225E+00  5760   0.208E+01 0.624E-01
 gam= 0.883 trial= 0.207  step= 0.151 mean= 0.207
 gam= 0.368 g(H,U,f)=  0.371E+00 0.361E+00 0.340E-01 ort(H,U,f) =-0.883E-01 0.166E+00-0.547E-01
CGA:  37    -0.221485806229E+03   -0.16022E+00   -0.16143E+00  5760   0.766E+00 0.230E-01
 gam= 0.368 trial= 0.204  step= 0.368 mean= 0.204
 gam= 0.610 g(H,U,f)=  0.226E+00 0.224E+00 0.172E-01 ort(H,U,f) =-0.370E-01 0.105E+00-0.325E-02
CGA:  38    -0.221634166835E+03   -0.14836E+00   -0.14260E+00  5760   0.467E+00 0.651E-01
 gam= 0.610 trial= 0.213  step= 0.299 mean= 0.213
 gam= 1.879 g(H,U,f)=  0.140E+00 0.482E+00 0.256E+00 ort(H,U,f) = 0.180E-01 0.562E-01-0.625E-01
CGA:  39    -0.221710439304E+03   -0.76272E-01   -0.75704E-01  5760   0.878E+00 0.118E-01
 gam= 1.879 trial= 0.217  step= 0.144 mean= 0.217
 gam= 0.369 g(H,U,f)=  0.139E+00 0.172E+00 0.126E-01 ort(H,U,f) =-0.185E+00 0.211E+00-0.201E-01
CGA:  40    -0.221774524690E+03   -0.64085E-01   -0.64801E-01  5760   0.324E+00 0.572E-02
 gam= 0.369 trial= 0.213  step= 0.467 mean= 0.213
 gam= 1.101 g(H,U,f)=  0.122E+00 0.202E+00 0.326E-01 ort(H,U,f) =-0.688E-01 0.871E-01-0.103E-01
CGA:  41    -0.221851872411E+03   -0.77348E-01   -0.76179E-01  5760   0.357E+00 0.801E-02
 gam= 1.101 trial= 0.226  step= 0.228 mean= 0.226
 gam= 1.457 g(H,U,f)=  0.121E+00 0.283E+00 0.116E+00 ort(H,U,f) =-0.306E-01 0.754E-01-0.449E-01
CGA:  42    -0.221893534909E+03   -0.41662E-01   -0.41664E-01  5760   0.520E+00-0.777E-04
 gam= 1.457 trial= 0.226  step= 0.208 mean= 0.226
 gam= 0.692 g(H,U,f)=  0.121E+00 0.196E+00 0.421E-01 ort(H,U,f) =-0.950E-01 0.108E+00-0.107E-01
CGA:  43    -0.221947407414E+03   -0.53873E-01   -0.53953E-01  5760   0.359E+00 0.247E-02
 gam= 0.692 trial= 0.225  step= 0.219 mean= 0.225
 gam= 0.847 g(H,U,f)=  0.117E+00 0.147E+00 0.396E-01 ort(H,U,f) =-0.357E-01 0.784E-01-0.362E-01
CGA:  44    -0.221986982919E+03   -0.39576E-01   -0.39623E-01  5760   0.304E+00 0.644E-02
 gam= 0.847 trial= 0.225  step= 0.340 mean= 0.225
 gam= 1.008 g(H,U,f)=  0.105E+00 0.167E+00 0.350E-01 ort(H,U,f) =-0.310E-01 0.174E-01-0.293E-01
CGA:  45    -0.222038010154E+03   -0.51027E-01   -0.52605E-01  5760   0.307E+00-0.430E-01
 gam= 1.008 trial= 0.231  step= 0.261 mean= 0.231
 gam= 1.950 g(H,U,f)=  0.958E-01 0.294E+00 0.208E+00 ort(H,U,f) =-0.139E-01 0.150E-01-0.138E+00
CGA:  46    -0.222071636409E+03   -0.33626E-01   -0.34327E-01  5760   0.598E+00-0.136E+00
 gam= 1.950 trial= 0.232  step= 0.129 mean= 0.232
 gam= 0.536 g(H,U,f)=  0.959E-01 0.171E+00 0.540E-01 ort(H,U,f) =-0.103E+00 0.695E-01-0.685E-01
CGA:  47    -0.222099370191E+03   -0.27734E-01   -0.21500E-01  5760   0.321E+00-0.102E+00
 gam= 0.536 trial= 0.227  step= 0.183 mean= 0.227
 gam= 1.290 g(H,U,f)=  0.110E+00 0.209E+00 0.943E-01 ort(H,U,f) =-0.321E-01 0.713E-01-0.291E-01
CGA:  48    -0.222123258415E+03   -0.23888E-01   -0.24273E-01  5760   0.413E+00 0.101E-01
 gam= 1.290 trial= 0.225  step= 0.183 mean= 0.225
 gam= 0.558 g(H,U,f)=  0.101E+00 0.122E+00 0.799E-02 ort(H,U,f) =-0.648E-01 0.888E-01-0.189E-02
CGA:  49    -0.222160789869E+03   -0.37531E-01   -0.38908E-01  5760   0.231E+00 0.222E-01
 gam= 0.558 trial= 0.223  step= 0.322 mean= 0.223
 gam= 2.452 g(H,U,f)=  0.924E-01 0.207E+00 0.267E+00 ort(H,U,f) =-0.271E-01 0.332E-01-0.905E-01
CGA:  50    -0.222199068564E+03   -0.38279E-01   -0.39196E-01  5760   0.566E+00-0.843E-01
 gam= 2.452 trial= 0.228  step= 0.105 mean= 0.228
 gam= 0.763 g(H,U,f)=  0.120E+00 0.194E+00 0.118E+00 ort(H,U,f) =-0.111E+00 0.808E-01-0.124E-01
CGA:  51    -0.222218660999E+03   -0.19592E-01   -0.18838E-01  5760   0.432E+00-0.421E-01
 gam= 0.763 trial= 0.221  step= 0.123 mean= 0.221
 gam= 0.685 g(H,U,f)=  0.114E+00 0.134E+00 0.471E-01 ort(H,U,f) =-0.508E-01 0.873E-01-0.574E-01
CGA:  52    -0.222239477846E+03   -0.20817E-01   -0.24491E-01  5760   0.295E+00-0.209E-01
 gam= 0.685 trial= 0.217  step= 0.209 mean= 0.217
 gam= 1.029 g(H,U,f)=  0.968E-01 0.131E+00 0.760E-01 ort(H,U,f) =-0.304E-01 0.436E-01 0.127E-03
CGA:  53    -0.222268848662E+03   -0.29371E-01   -0.29426E-01  5760   0.304E+00 0.134E-01
 gam= 1.029 trial= 0.216  step= 0.171 mean= 0.216
 gam= 0.759 g(H,U,f)=  0.859E-01 0.132E+00 0.129E-01 ort(H,U,f) =-0.322E-01 0.778E-01-0.204E-01
CGA:  54    -0.222293918208E+03   -0.25070E-01   -0.27233E-01  5760   0.231E+00 0.252E-01
 gam= 0.759 trial= 0.214  step= 0.280 mean= 0.214
 gam= 0.000 g(H,U,f)=  0.108E+00 0.179E+00 0.115E+00 ort(H,U,f) =-0.303E-01 0.246E-01-0.400E-01
SDA:  55    -0.222328736183E+03   -0.34818E-01   -0.35016E-01  5760   0.402E+00-0.457E-01
 gam= 0.000 trial= 0.217  step= 0.174 mean= 0.217
 gam= 0.373 g(H,U,f)=  0.365E-01 0.984E-01 0.153E-01 ort(H,U,f) = 0.284E-01 0.357E-01-0.382E-01
CGA:  56    -0.222360697055E+03   -0.31961E-01   -0.35022E-01  5760   0.150E+00 0.259E-01
 gam= 0.373 trial= 0.215  step= 0.605 mean= 0.215
 gam= 2.559 g(H,U,f)=  0.958E-01 0.215E+00 0.739E-01 ort(H,U,f) =-0.353E-01 0.329E-01-0.859E-02
CGA:  57    -0.222406776681E+03   -0.46080E-01   -0.48383E-01  5760   0.384E+00-0.110E-01
 gam= 2.559 trial= 0.235  step= 0.369 mean= 0.235
 gam= 1.070 g(H,U,f)=  0.192E+00 0.176E+00 0.436E-01 ort(H,U,f) =-0.147E+00 0.186E+00-0.304E-01
CGA:  58    -0.222474101247E+03   -0.67325E-01   -0.65716E-01  5760   0.411E+00 0.899E-02
 gam= 1.070 trial= 0.241  step= 0.386 mean= 0.241
 gam= 1.699 g(H,U,f)=  0.179E+00 0.204E+00 0.316E+00 ort(H,U,f) =-0.120E+00 0.516E-01-0.942E-01
CGA:  59    -0.222544531292E+03   -0.70430E-01   -0.81151E-01  5760   0.699E+00-0.163E+00
 gam= 1.699 trial= 0.249  step= 0.071 mean= 0.249
 gam= 1.066 g(H,U,f)=  0.191E+00 0.228E+00 0.327E+00 ort(H,U,f) =-0.946E-01 0.947E-01 0.108E+00
CGA:  60    -0.222550396923E+03   -0.58656E-02   -0.14935E-01  5760   0.745E+00 0.108E+00
 gam= 1.066 trial= 0.240  step= 0.093 mean= 0.240
 gam= 0.466 g(H,U,f)=  0.178E+00 0.163E+00 0.665E-02 ort(H,U,f) =-0.635E-01-0.491E-01 0.395E-01
CGA:  61    -0.222565949208E+03   -0.15552E-01   -0.40131E-01  5760   0.347E+00-0.732E-01
 gam= 0.466 trial= 0.232  step= 0.181 mean= 0.232
 gam= 0.945 g(H,U,f)=  0.137E+00 0.142E+00 0.496E-01 ort(H,U,f) = 0.449E-01-0.202E-01-0.507E-01
CGA:  62    -0.222592688791E+03   -0.26740E-01   -0.28294E-01  5760   0.328E+00-0.259E-01
 gam= 0.945 trial= 0.230  step= 0.184 mean= 0.230
 gam= 0.635 g(H,U,f)=  0.874E-01 0.884E-01 0.323E-01 ort(H,U,f) = 0.325E-01-0.217E-01-0.145E-01
CGA:  63    -0.222620994551E+03   -0.28306E-01   -0.27912E-01  5760   0.208E+00-0.364E-02
 gam= 0.635 trial= 0.227  step= 0.243 mean= 0.227
 gam= 0.751 g(H,U,f)=  0.609E-01 0.769E-01 0.184E-01 ort(H,U,f) = 0.651E-02 0.126E-01-0.121E-01
CGA:  64    -0.222646033593E+03   -0.25039E-01   -0.24971E-01  5760   0.156E+00 0.701E-02
 gam= 0.751 trial= 0.228  step= 0.275 mean= 0.228
 gam= 0.839 g(H,U,f)=  0.402E-01 0.636E-01 0.272E-01 ort(H,U,f) =-0.223E-01 0.293E-01-0.523E-02
CGA:  65    -0.222668375440E+03   -0.22342E-01   -0.22166E-01  5760   0.131E+00 0.179E-02
 gam= 0.839 trial= 0.231  step= 0.235 mean= 0.231
 gam= 1.156 g(H,U,f)=  0.571E-01 0.784E-01 0.160E-01 ort(H,U,f) =-0.296E-01 0.491E-01-0.177E-01
CGA:  66    -0.222683995936E+03   -0.15620E-01   -0.15612E-01  5760   0.152E+00 0.181E-02
 gam= 1.156 trial= 0.231  step= 0.310 mean= 0.231
 gam= 0.778 g(H,U,f)=  0.585E-01 0.544E-01 0.506E-02 ort(H,U,f) =-0.553E-01 0.564E-01-0.131E-02
CGA:  67    -0.222707768415E+03   -0.23772E-01   -0.23791E-01  5760   0.118E+00-0.120E-03
 gam= 0.778 trial= 0.235  step= 0.313 mean= 0.235
 gam= 1.115 g(H,U,f)=  0.602E-01 0.528E-01 0.184E-01 ort(H,U,f) =-0.259E-01 0.318E-01-0.571E-03
CGA:  68    -0.222726438133E+03   -0.18670E-01   -0.18458E-01  5760   0.131E+00 0.540E-02
 gam= 1.115 trial= 0.239  step= 0.241 mean= 0.239
 gam= 0.728 g(H,U,f)=  0.459E-01 0.392E-01 0.105E-01 ort(H,U,f) =-0.905E-02 0.211E-01-0.128E-01
CGA:  69    -0.222743044129E+03   -0.16606E-01   -0.16588E-01  5760   0.956E-01-0.729E-03
 gam= 0.728 trial= 0.239  step= 0.258 mean= 0.239
 gam= 0.928 g(H,U,f)=  0.348E-01 0.352E-01 0.187E-01 ort(H,U,f) =-0.333E-02 0.418E-02-0.120E-02
CGA:  70    -0.222755284194E+03   -0.12240E-01   -0.12280E-01  5760   0.887E-01-0.350E-03
 gam= 0.928 trial= 0.240  step= 0.218 mean= 0.240
 gam= 0.831 g(H,U,f)=  0.311E-01 0.275E-01 0.152E-01 ort(H,U,f) = 0.244E-02 0.783E-02 0.148E-01
CGA:  71    -0.222764619861E+03   -0.93357E-02   -0.96262E-02  5760   0.737E-01 0.251E-01
 gam= 0.831 trial= 0.239  step= 0.186 mean= 0.239
 gam= 0.771 g(H,U,f)=  0.254E-01 0.249E-01 0.657E-02 ort(H,U,f) = 0.112E-01 0.441E-02-0.188E-01
CGA:  72    -0.222772597407E+03   -0.79775E-02   -0.87796E-02  5760   0.568E-01-0.324E-02
 gam= 0.771 trial= 0.236  step= 0.349 mean= 0.236
 gam= 0.841 g(H,U,f)=  0.211E-01 0.232E-01 0.341E-02 ort(H,U,f) =-0.127E-01-0.123E-02-0.389E-02
CGA:  73    -0.222780914255E+03   -0.83168E-02   -0.94780E-02  5760   0.478E-01-0.178E-01
 gam= 0.841 trial= 0.242  step= 0.228 mean= 0.242
 gam= 0.972 g(H,U,f)=  0.216E-01 0.191E-01 0.575E-02 ort(H,U,f) =-0.705E-02 0.625E-02 0.150E-02
CGA:  74    -0.222784681777E+03   -0.37675E-02   -0.37415E-02  5760   0.464E-01 0.703E-03
 gam= 0.972 trial= 0.241  step= 0.215 mean= 0.241
 gam= 0.627 g(H,U,f)=  0.149E-01 0.122E-01 0.196E-02 ort(H,U,f) =-0.305E-02 0.782E-02 0.197E-02
CGA:  75    -0.222789605963E+03   -0.49242E-02   -0.50688E-02  5760   0.291E-01 0.674E-02
 gam= 0.627 trial= 0.240  step= 0.216 mean= 0.240
 gam= 1.139 g(H,U,f)=  0.978E-02 0.130E-01 0.104E-01 ort(H,U,f) =-0.304E-03 0.395E-02-0.885E-02
CGA:  76    -0.222793177122E+03   -0.35712E-02   -0.36008E-02  5760   0.332E-01-0.521E-02
 gam= 1.139 trial= 0.239  step= 0.225 mean= 0.239
 gam= 1.159 g(H,U,f)=  0.112E-01 0.163E-01 0.109E-01 ort(H,U,f) =-0.764E-02 0.704E-02 0.550E-03
CGA:  77    -0.222796241813E+03   -0.30647E-02   -0.30616E-02  5760   0.384E-01-0.486E-04
 gam= 1.159 trial= 0.238  step= 0.141 mean= 0.238
 gam= 0.637 g(H,U,f)=  0.121E-01 0.120E-01 0.422E-03 ort(H,U,f) =-0.848E-02 0.110E-01-0.773E-03
CGA:  78    -0.222798493266E+03   -0.22515E-02   -0.27079E-02  5760   0.245E-01 0.177E-02
 gam= 0.637 trial= 0.233  step= 0.269 mean= 0.233
 gam= 1.298 g(H,U,f)=  0.976E-02 0.114E-01 0.106E-01 ort(H,U,f) =-0.276E-02 0.428E-02-0.702E-02
CGA:  79    -0.222801951540E+03   -0.34583E-02   -0.34447E-02  5760   0.318E-01-0.550E-02
 gam= 1.298 trial= 0.235  step= 0.147 mean= 0.235
 gam= 0.657 g(H,U,f)=  0.968E-02 0.964E-02 0.157E-02 ort(H,U,f) =-0.422E-02 0.392E-02 0.713E-04
CGA:  80    -0.222803778127E+03   -0.18266E-02   -0.18141E-02  5760   0.209E-01-0.226E-03
 gam= 0.657 trial= 0.230  step= 0.205 mean= 0.230
 gam= 1.590 g(H,U,f)=  0.963E-02 0.123E-01 0.113E-01 ort(H,U,f) =-0.621E-03 0.267E-02-0.430E-02
CGA:  81    -0.222805889461E+03   -0.21113E-02   -0.21267E-02  5760   0.332E-01-0.225E-02
 gam= 1.590 trial= 0.229  step= 0.146 mean= 0.229
 gam= 1.250 g(H,U,f)=  0.102E-01 0.144E-01 0.169E-01 ort(H,U,f) =-0.471E-02 0.681E-02 0.573E-02
CGA:  82    -0.222807789109E+03   -0.18996E-02   -0.21573E-02  5760   0.415E-01 0.782E-02
 gam= 1.250 trial= 0.225  step= 0.102 mean= 0.225
 gam= 0.502 g(H,U,f)=  0.110E-01 0.891E-02 0.892E-03 ort(H,U,f) =-0.102E-01 0.790E-02 0.451E-02
CGA:  83    -0.222809156697E+03   -0.13676E-02   -0.26252E-02  5760   0.208E-01 0.219E-02
 gam= 0.502 trial= 0.219  step= 0.190 mean= 0.219
 gam= 1.535 g(H,U,f)=  0.988E-02 0.125E-01 0.958E-02 ort(H,U,f) =-0.115E-02 0.431E-02-0.115E-01
CGA:  84    -0.222811164256E+03   -0.20076E-02   -0.20864E-02  5760   0.320E-01-0.830E-02
 gam= 1.535 trial= 0.217  step= 0.211 mean= 0.217
 gam= 0.000 g(H,U,f)=  0.109E-01 0.132E-01 0.118E-01 ort(H,U,f) =-0.112E-01 0.413E-02-0.933E-02
CGA:  85    -0.222813245244E+03   -0.20810E-02   -0.20306E-02  5760   0.359E-01-0.164E-01
 gam= 0.000 trial= 0.217  step= 0.176 mean= 0.217
 gam= 0.388 g(H,U,f)=  0.490E-02 0.592E-02 0.312E-02 ort(H,U,f) = 0.527E-02 0.198E-02-0.567E-02
CGA:  86    -0.222816098127E+03   -0.28529E-02   -0.31536E-02  5760   0.139E-01 0.158E-02
 gam= 0.388 trial= 0.215  step= 0.433 mean= 0.215
 gam= 1.306 g(H,U,f)=  0.461E-02 0.101E-01 0.348E-02 ort(H,U,f) = 0.376E-03 0.123E-02-0.111E-02
CGA:  87    -0.222819322571E+03   -0.32244E-02   -0.31511E-02  5760   0.182E-01 0.494E-03
 gam= 1.306 trial= 0.226  step= 0.221 mean= 0.226
 gam= 1.299 g(H,U,f)=  0.468E-02 0.119E-01 0.704E-02 ort(H,U,f) =-0.853E-03 0.340E-02-0.136E-02
CGA:  88    -0.222821398219E+03   -0.20756E-02   -0.20784E-02  5760   0.236E-01 0.119E-02
 gam= 1.299 trial= 0.226  step= 0.200 mean= 0.226
 gam= 0.320 g(H,U,f)=  0.328E-02 0.350E-02 0.782E-03 ort(H,U,f) =-0.493E-02 0.674E-02-0.146E-02
CGA:  89    -0.222823870071E+03   -0.24719E-02   -0.25241E-02  5760   0.757E-02 0.351E-03
 gam= 0.320 trial= 0.224  step= 0.377 mean= 0.224
 gam= 1.253 g(H,U,f)=  0.262E-02 0.394E-02 0.292E-02 ort(H,U,f) =-0.947E-03 0.203E-02-0.817E-03
CGA:  90    -0.222825366095E+03   -0.14960E-02   -0.14478E-02  5760   0.948E-02 0.262E-03
 gam= 1.253 trial= 0.232  step= 0.167 mean= 0.232
 gam= 1.034 g(H,U,f)=  0.259E-02 0.461E-02 0.261E-02 ort(H,U,f) =-0.673E-03 0.216E-02-0.671E-03
CGA:  91    -0.222826147620E+03   -0.78152E-03   -0.81770E-03  5760   0.981E-02 0.818E-03
 gam= 1.034 trial= 0.229  step= 0.339 mean= 0.229
 gam= 1.341 g(H,U,f)=  0.266E-02 0.496E-02 0.554E-02 ort(H,U,f) =-0.887E-03 0.292E-02-0.315E-02
CGA:  92    -0.222828119488E+03   -0.19719E-02   -0.18052E-02  5760   0.132E-01-0.112E-02
 gam= 1.341 trial= 0.234  step= 0.285 mean= 0.234
 gam= 0.732 g(H,U,f)=  0.341E-02 0.421E-02 0.201E-02 ort(H,U,f) =-0.274E-02 0.492E-02-0.167E-02
CGA:  93    -0.222829798446E+03   -0.16790E-02   -0.16572E-02  5760   0.963E-02 0.499E-03
 gam= 0.732 trial= 0.237  step= 0.169 mean= 0.237
 gam= 1.319 g(H,U,f)=  0.350E-02 0.594E-02 0.325E-02 ort(H,U,f) =-0.933E-03 0.189E-02-0.113E-02
CGA:  94    -0.222830633677E+03   -0.83523E-03   -0.84204E-03  5760   0.127E-01-0.179E-03
 gam= 1.319 trial= 0.233  step= 0.515 mean= 0.233
 gam= 1.623 g(H,U,f)=  0.756E-02 0.102E-01 0.286E-02 ort(H,U,f) =-0.436E-02 0.479E-02-0.223E-02
CGA:  95    -0.222833619595E+03   -0.29859E-02   -0.32081E-02  5760   0.206E-01-0.180E-02
 gam= 1.623 trial= 0.247  step= 0.454 mean= 0.247
 gam= 1.206 g(H,U,f)=  0.106E-01 0.896E-02 0.533E-02 ort(H,U,f) =-0.855E-02 0.974E-02 0.494E-02
CGA:  96    -0.222838114598E+03   -0.44950E-02   -0.40153E-02  5760   0.249E-01 0.613E-02
 gam= 1.206 trial= 0.258  step= 0.207 mean= 0.258
 gam= 1.594 g(H,U,f)=  0.992E-02 0.115E-01 0.182E-01 ort(H,U,f) =-0.599E-03 0.219E-01-0.177E-01
CGA:  97    -0.222841274917E+03   -0.31603E-02   -0.33363E-02  5760   0.396E-01 0.363E-02
 gam= 1.594 trial= 0.255  step= 0.263 mean= 0.255
 gam= 0.826 g(H,U,f)=  0.156E-01 0.169E-01 0.309E-03 ort(H,U,f) =-0.113E-01 0.172E-01-0.150E-02
CGA:  98    -0.222847292540E+03   -0.60176E-02   -0.59728E-02  5760   0.327E-01 0.438E-02
 gam= 0.826 trial= 0.256  step= 1.049 mean= 0.256
 gam= 0.000 g(H,U,f)=  0.650E-01 0.585E-01 0.154E-01 ort(H,U,f) =-0.183E-01 0.114E-01-0.188E-01
CGA:  99    -0.222856122451E+03   -0.88299E-02   -0.19074E-01  5760   0.139E+00-0.257E-01
 gam= 0.000 trial= 0.295  step= 0.212 mean= 0.295
 gam= 1.021 g(H,U,f)=  0.246E-01 0.290E-01 0.883E-01 ort(H,U,f) = 0.212E-01 0.166E-01-0.379E-01
CGA: 100    -0.222871027942E+03   -0.14905E-01   -0.14739E-01  5760   0.142E+00-0.664E-04
 gam= 1.021 trial= 0.291  step= 0.114 mean= 0.291
 gam= 0.251 g(H,U,f)=  0.150E-01 0.178E-01 0.274E-02 ort(H,U,f) = 0.491E-02-0.414E-03-0.761E-02
CGA: 101    -0.222878843742E+03   -0.78158E-02   -0.81182E-02  5760   0.356E-01-0.311E-02
 gam= 0.251 trial= 0.282  step= 0.529 mean= 0.282
 gam= 1.202 g(H,U,f)=  0.110E-01 0.997E-02 0.218E-01 ort(H,U,f) =-0.646E-02 0.675E-02-0.226E-02
CGA: 102    -0.222887795698E+03   -0.89520E-02   -0.92098E-02  5760   0.428E-01-0.197E-02
 gam= 1.202 trial= 0.295  step= 0.178 mean= 0.295
 gam= 1.449 g(H,U,f)=  0.171E-01 0.214E-01 0.235E-01 ort(H,U,f) =-0.414E-02 0.186E-01-0.793E-02
CGA: 103    -0.222891125145E+03   -0.33294E-02   -0.35994E-02  5760   0.620E-01 0.655E-02
 gam= 1.449 trial= 0.289  step= 0.299 mean= 0.289
 gam= 1.562 g(H,U,f)=  0.128E-01 0.116E-01 0.725E-01 ort(H,U,f) =-0.103E-01 0.122E-01-0.126E-01
CGA: 104    -0.222901708518E+03   -0.10583E-01   -0.10668E-01  5760   0.968E-01-0.106E-01
 gam= 1.562 trial= 0.289  step= 0.076 mean= 0.289
 gam= 0.000 g(H,U,f)=  0.126E-01 0.144E-01 0.910E-01 ort(H,U,f) =-0.120E-01 0.214E-01 0.481E-01
CGA: 105    -0.222906803446E+03   -0.50949E-02   -0.30612E-02  5760   0.118E+00 0.574E-01
 gam= 0.000 trial= 0.279  step= 0.074 mean= 0.279
 gam= 0.465 g(H,U,f)=  0.131E-01 0.211E-01 0.207E-01 ort(H,U,f) = 0.784E-02 0.308E-02-0.207E-01
CGA: 106    -0.222910729439E+03   -0.39260E-02   -0.43536E-02  5760   0.549E-01-0.984E-02
 gam= 0.465 trial= 0.268  step= 0.523 mean= 0.268
 gam= 0.000 g(H,U,f)=  0.105E-01 0.253E-01 0.479E-01 ort(H,U,f) =-0.399E-02 0.412E-02 0.306E-01
CGA: 107    -0.222927632886E+03   -0.16903E-01   -0.13175E-01  5760   0.836E-01 0.307E-01
 gam= 0.000 trial= 0.281  step= 0.365 mean= 0.281
 gam= 0.000 g(H,U,f)=  0.103E-01 0.501E-01 0.523E-01 ort(H,U,f) =-0.464E-02 0.726E-02 0.464E-01
CGA: 108    -0.222944891395E+03   -0.17259E-01   -0.15285E-01  5760   0.113E+00 0.490E-01
 gam= 0.000 trial= 0.285  step= 0.193 mean= 0.285
 gam= 2.304 g(H,U,f)=  0.795E-02 0.255E-01 0.226E+00 ort(H,U,f) =-0.216E-02 0.442E-02 0.289E-01
CGA: 109    -0.222955080195E+03   -0.10189E-01   -0.10861E-01  5760   0.260E+00 0.312E-01
 gam= 2.304 trial= 0.281  step= 0.205 mean= 0.281
 gam= 1.457 g(H,U,f)=  0.464E-01 0.962E-01 0.235E+00 ort(H,U,f) =-0.278E-01-0.586E-01 0.202E+00
CGA: 110    -0.222990924850E+03   -0.35845E-01   -0.34043E-01  5760   0.378E+00 0.116E+00
 gam= 1.457 trial= 0.277  step= 0.084 mean= 0.277
 gam= 0.796 g(H,U,f)=  0.815E-01 0.174E+00 0.451E-01 ort(H,U,f) = 0.325E-02-0.359E-01 0.787E-01
CGA: 111    -0.223002168424E+03   -0.11244E-01   -0.22957E-01  5760   0.301E+00 0.460E-01
 gam= 0.796 trial= 0.267  step= 0.234 mean= 0.267
 gam= 0.293 g(H,U,f)=  0.228E-01 0.649E-01 0.323E-03 ort(H,U,f) = 0.199E-01 0.749E-01 0.110E-02
CGA: 112    -0.223038272303E+03   -0.36104E-01   -0.39517E-01  5760   0.880E-01 0.959E-01
 gam= 0.293 trial= 0.266  step= 0.176 mean= 0.266
 gam= 0.580 g(H,U,f)=  0.165E-01 0.328E-01 0.178E-02 ort(H,U,f) =-0.830E-02 0.234E-01 0.208E-02
CGA: 113    -0.223049069022E+03   -0.10797E-01   -0.10192E-01  5760   0.510E-01 0.172E-01
 gam= 0.580 trial= 0.261  step= 0.192 mean= 0.261
 gam= 0.799 g(H,U,f)=  0.868E-02 0.307E-01 0.143E-02 ort(H,U,f) =-0.592E-02 0.687E-02 0.247E-02
CGA: 114    -0.223056064317E+03   -0.69953E-02   -0.58476E-02  5760   0.408E-01 0.341E-02
 gam= 0.799 trial= 0.258  step= 0.492 mean= 0.258
 gam= 1.206 g(H,U,f)=  0.166E-01 0.326E-01 0.376E-05 ort(H,U,f) =-0.772E-02 0.177E-01 0.916E-05
CGA: 115    -0.223068289217E+03   -0.12225E-01   -0.10701E-01  5760   0.492E-01 0.995E-02
 gam= 1.206 trial= 0.269  step= 0.258 mean= 0.269
 gam= 0.699 g(H,U,f)=  0.836E-02 0.260E-01 0.177E-05 ort(H,U,f) =-0.220E-02 0.930E-02-0.539E-06
CGA: 116    -0.223076201560E+03   -0.79123E-02   -0.78883E-02  5760   0.344E-01 0.711E-02
 gam= 0.699 trial= 0.269  step= 0.185 mean= 0.269
 gam= 0.787 g(H,U,f)=  0.110E-01 0.150E-01 0.993E-03 ort(H,U,f) =-0.243E-02 0.679E-02-0.139E-02
CGA: 117    -0.223081892428E+03   -0.56909E-02   -0.36417E-02  5760   0.271E-01 0.296E-02
 gam= 0.787 trial= 0.265  step= 0.352 mean= 0.265
 gam= 0.824 g(H,U,f)=  0.761E-02 0.146E-01 0.539E-04 ort(H,U,f) =-0.262E-02 0.496E-02-0.888E-05
CGA: 118    -0.223087220646E+03   -0.53282E-02   -0.51689E-02  5760   0.223E-01 0.234E-02
 gam= 0.824 trial= 0.269  step= 0.249 mean= 0.269
 gam= 1.054 g(H,U,f)=  0.672E-02 0.160E-01 0.762E-03 ort(H,U,f) =-0.325E-02 0.467E-02-0.132E-03
CGA: 119    -0.223090259367E+03   -0.30387E-02   -0.30168E-02  5760   0.235E-01 0.128E-02
 gam= 1.054 trial= 0.268  step= 0.173 mean= 0.268
 gam= 0.498 g(H,U,f)=  0.410E-02 0.746E-02 0.132E-03 ort(H,U,f) =-0.137E-02 0.190E-02-0.247E-03
CGA: 120    -0.223092950670E+03   -0.26913E-02   -0.21519E-02  5760   0.117E-01 0.286E-03
 gam= 0.498 trial= 0.263  step= 0.472 mean= 0.263
 gam= 0.771 g(H,U,f)=  0.389E-02 0.513E-02 0.145E-05 ort(H,U,f) =-0.245E-02 0.219E-02 0.322E-05
CGA: 121    -0.223095705215E+03   -0.27545E-02   -0.27937E-02  5760   0.902E-02-0.261E-03
 gam= 0.771 trial= 0.274  step= 0.427 mean= 0.274
 gam= 1.025 g(H,U,f)=  0.329E-02 0.582E-02 0.129E-03 ort(H,U,f) =-0.124E-02 0.136E-02-0.138E-04
CGA: 122    -0.223097581327E+03   -0.18761E-02   -0.18822E-02  5760   0.924E-02 0.112E-03
 gam= 1.025 trial= 0.281  step= 0.232 mean= 0.281
 gam= 1.001 g(H,U,f)=  0.218E-02 0.678E-02 0.292E-03 ort(H,U,f) =-0.314E-03 0.139E-02-0.201E-03
CGA: 123    -0.223098745925E+03   -0.11646E-02   -0.10867E-02  5760   0.925E-02 0.880E-03
 gam= 1.001 trial= 0.279  step= 0.281 mean= 0.279
 gam= 0.755 g(H,U,f)=  0.243E-02 0.454E-02 0.191E-04 ort(H,U,f) =-0.137E-02 0.686E-03-0.236E-04
CGA: 124    -0.223100169358E+03   -0.14234E-02   -0.14260E-02  5760   0.699E-02-0.703E-03
 gam= 0.755 trial= 0.279  step= 0.429 mean= 0.279
 gam= 0.810 g(H,U,f)=  0.246E-02 0.316E-02 0.444E-04 ort(H,U,f) =-0.138E-02 0.135E-02 0.595E-05
CGA: 125    -0.223101545967E+03   -0.13766E-02   -0.13837E-02  5760   0.566E-02-0.165E-04
 gam= 0.810 trial= 0.287  step= 0.428 mean= 0.287
 gam= 0.999 g(H,U,f)=  0.189E-02 0.354E-02 0.225E-03 ort(H,U,f) =-0.738E-03 0.804E-03-0.110E-03
CGA: 126    -0.223102719168E+03   -0.11732E-02   -0.12074E-02  5760   0.566E-02-0.440E-04
 gam= 0.999 trial= 0.294  step= 0.326 mean= 0.294
 gam= 1.417 g(H,U,f)=  0.230E-02 0.522E-02 0.491E-03 ort(H,U,f) =-0.445E-03 0.611E-03-0.188E-03
CGA: 127    -0.223103622245E+03   -0.90308E-03   -0.91521E-03  5760   0.802E-02-0.221E-04
 gam= 1.417 trial= 0.295  step= 0.264 mean= 0.295
 gam= 0.859 g(H,U,f)=  0.267E-02 0.408E-02 0.134E-03 ort(H,U,f) =-0.174E-02 0.177E-02-0.142E-03
CGA: 128    -0.223104689795E+03   -0.10675E-02   -0.10534E-02  5760   0.688E-02-0.115E-03
 gam= 0.859 trial= 0.294  step= 0.432 mean= 0.294
 gam= 0.974 g(H,U,f)=  0.314E-02 0.357E-02 0.272E-06 ort(H,U,f) =-0.200E-02 0.195E-02-0.376E-05
CGA: 129    -0.223106145897E+03   -0.14561E-02   -0.14656E-02  5760   0.671E-02-0.537E-04
 gam= 0.974 trial= 0.301  step= 0.679 mean= 0.301
 gam= 2.135 g(H,U,f)=  0.609E-02 0.821E-02 0.597E-05 ort(H,U,f) =-0.191E-02 0.188E-02-0.207E-04
CGA: 130    -0.223108364451E+03   -0.22186E-02   -0.22585E-02  5760   0.143E-01-0.498E-04
 gam= 2.135 trial= 0.319  step= 0.401 mean= 0.319
 gam= 1.279 g(H,U,f)=  0.667E-02 0.116E-01 0.471E-04 ort(H,U,f) =-0.327E-02 0.414E-02-0.120E-03
CGA: 131    -0.223111125695E+03   -0.27612E-02   -0.28482E-02  5760   0.183E-01 0.743E-03
 gam= 1.279 trial= 0.324  step= 0.217 mean= 0.324
 gam= 0.792 g(H,U,f)=  0.615E-02 0.821E-02 0.147E-03 ort(H,U,f) =-0.342E-02 0.438E-02-0.331E-03
CGA: 132    -0.223113421611E+03   -0.22959E-02   -0.20923E-02  5760   0.145E-01 0.634E-03
 gam= 0.792 trial= 0.318  step= 0.529 mean= 0.318
 gam= 1.310 g(H,U,f)=  0.955E-02 0.936E-02 0.873E-04 ort(H,U,f) =-0.439E-02 0.312E-02-0.103E-03
CGA: 133    -0.223117180857E+03   -0.37592E-02   -0.39691E-02  5760   0.190E-01-0.137E-02
 gam= 1.310 trial= 0.329  step= 0.396 mean= 0.329
 gam= 0.848 g(H,U,f)=  0.742E-02 0.850E-02 0.195E-03 ort(H,U,f) =-0.462E-02 0.395E-02-0.584E-04
CGA: 134    -0.223120545709E+03   -0.33649E-02   -0.34078E-02  5760   0.161E-01-0.730E-03
 gam= 0.848 trial= 0.332  step= 0.333 mean= 0.332
 gam= 1.120 g(H,U,f)=  0.701E-02 0.942E-02 0.162E-02 ort(H,U,f) =-0.222E-02 0.376E-02-0.734E-03
CGA: 135    -0.223123128323E+03   -0.25826E-02   -0.25836E-02  5760   0.181E-01 0.809E-03
 gam= 1.120 trial= 0.332  step= 0.261 mean= 0.332
 gam= 0.837 g(H,U,f)=  0.559E-02 0.862E-02 0.901E-03 ort(H,U,f) =-0.260E-02 0.307E-02-0.697E-03
CGA: 136    -0.223125676504E+03   -0.25482E-02   -0.24692E-02  5760   0.151E-01-0.225E-03
 gam= 0.837 trial= 0.329  step= 0.372 mean= 0.329
 gam= 1.024 g(H,U,f)=  0.717E-02 0.829E-02 0.265E-04 ort(H,U,f) =-0.366E-02 0.328E-02-0.128E-04
CGA: 137    -0.223128436896E+03   -0.27604E-02   -0.27726E-02  5760   0.155E-01-0.393E-03
 gam= 1.024 trial= 0.331  step= 0.450 mean= 0.331
 gam= 1.043 g(H,U,f)=  0.736E-02 0.849E-02 0.292E-03 ort(H,U,f) =-0.368E-02 0.343E-02-0.236E-03
CGA: 138    -0.223131783475E+03   -0.33466E-02   -0.33945E-02  5760   0.161E-01-0.484E-03
 gam= 1.043 trial= 0.337  step= 0.332 mean= 0.337
 gam= 0.000 g(H,U,f)=  0.720E-02 0.992E-02 0.328E-02 ort(H,U,f) =-0.204E-02 0.249E-02-0.169E-03
SDA: 139    -0.223134378155E+03   -0.25947E-02   -0.25940E-02  5760   0.204E-01 0.286E-03
 gam= 0.000 trial= 0.336  step= 0.172 mean= 0.336
 gam= 0.499 g(H,U,f)=  0.239E-02 0.490E-02 0.288E-02 ort(H,U,f) = 0.236E-02 0.966E-03-0.315E-02
CGA: 140    -0.223136146031E+03   -0.17679E-02   -0.17551E-02  5760   0.102E-01 0.177E-03
 gam= 0.499 trial= 0.328  step= 0.255 mean= 0.328
 gam= 0.527 g(H,U,f)=  0.179E-02 0.329E-02 0.285E-03 ort(H,U,f) =-0.575E-03 0.940E-03-0.389E-03
CGA: 141    -0.223137470478E+03   -0.13244E-02   -0.13109E-02  5760   0.536E-02-0.242E-04
 gam= 0.527 trial= 0.325  step= 0.679 mean= 0.325
 gam= 1.251 g(H,U,f)=  0.318E-02 0.336E-02 0.166E-03 ort(H,U,f) =-0.158E-02 0.159E-02-0.599E-04
CGA: 142    -0.223139267713E+03   -0.17972E-02   -0.18151E-02  5760   0.671E-02-0.442E-04
 gam= 1.251 trial= 0.342  step= 0.625 mean= 0.342
 gam= 1.107 g(H,U,f)=  0.256E-02 0.303E-02 0.184E-02 ort(H,U,f) =-0.120E-02 0.149E-02-0.284E-03
CGA: 143    -0.223141300958E+03   -0.20332E-02   -0.20789E-02  5760   0.742E-02 0.490E-05
 gam= 1.107 trial= 0.356  step= 0.189 mean= 0.356
 gam= 0.717 g(H,U,f)=  0.230E-02 0.221E-02 0.813E-03 ort(H,U,f) = 0.396E-04 0.118E-02-0.102E-02
CGA: 144    -0.223142033797E+03   -0.73284E-03   -0.70356E-03  5760   0.532E-02 0.192E-03
 gam= 0.717 trial= 0.348  step= 0.448 mean= 0.348
 gam= 0.440 g(H,U,f)=  0.107E-02 0.125E-02 0.194E-04 ort(H,U,f) =-0.580E-03 0.449E-03-0.100E-04
CGA: 145    -0.223143245354E+03   -0.12116E-02   -0.12237E-02  5760   0.234E-02-0.141E-03
 gam= 0.440 trial= 0.353  step= 0.698 mean= 0.353
 gam= 1.045 g(H,U,f)=  0.112E-02 0.132E-02 0.791E-05 ort(H,U,f) =-0.515E-03 0.532E-03 0.761E-05
CGA: 146    -0.223144045532E+03   -0.80018E-03   -0.79561E-03  5760   0.245E-02 0.247E-04
 gam= 1.045 trial= 0.370  step= 0.731 mean= 0.370
 gam= 1.445 g(H,U,f)=  0.117E-02 0.175E-02 0.615E-03 ort(H,U,f) =-0.793E-03 0.914E-03-0.146E-03
CGA: 147    -0.223144938053E+03   -0.89252E-03   -0.90451E-03  5760   0.354E-02-0.251E-04
 gam= 1.445 trial= 0.388  step= 0.270 mean= 0.388
 gam= 1.510 g(H,U,f)=  0.198E-02 0.217E-02 0.119E-02 ort(H,U,f) =-0.669E-03 0.141E-02-0.552E-03
CGA: 148    -0.223145429039E+03   -0.49099E-03   -0.47274E-03  5760   0.535E-02 0.192E-03
 gam= 1.510 trial= 0.382  step= 0.512 mean= 0.382
 gam= 0.780 g(H,U,f)=  0.210E-02 0.199E-02 0.832E-04 ort(H,U,f) =-0.160E-02 0.165E-02-0.934E-04
CGA: 149    -0.223146867890E+03   -0.14389E-02   -0.14434E-02  5760   0.417E-02-0.448E-04
 gam= 0.780 trial= 0.389  step= 0.609 mean= 0.389
 gam= 0.692 g(H,U,f)=  0.156E-02 0.128E-02 0.421E-04 ort(H,U,f) =-0.829E-03 0.809E-03-0.953E-05
CGA: 150    -0.223148121064E+03   -0.12532E-02   -0.12605E-02  5760   0.288E-02-0.295E-04
 gam= 0.692 trial= 0.400  step= 0.758 mean= 0.400
 gam= 1.270 g(H,U,f)=  0.160E-02 0.173E-02 0.340E-03 ort(H,U,f) =-0.439E-03 0.517E-03-0.101E-03
CGA: 151    -0.223149198218E+03   -0.10772E-02   -0.10857E-02  5760   0.366E-02-0.230E-04
 gam= 1.270 trial= 0.418  step= 0.422 mean= 0.418
 gam= 1.673 g(H,U,f)=  0.127E-02 0.321E-02 0.166E-02 ort(H,U,f) =-0.413E-03 0.963E-03-0.461E-03
CGA: 152    -0.223149964778E+03   -0.76656E-03   -0.76680E-03  5760   0.613E-02 0.882E-04
 gam= 1.673 trial= 0.418  step= 0.211 mean= 0.418
 gam= 0.592 g(H,U,f)=  0.150E-02 0.185E-02 0.288E-03 ort(H,U,f) =-0.121E-02 0.171E-02-0.365E-03
CGA: 153    -0.223150654152E+03   -0.68937E-03   -0.66149E-03  5760   0.363E-02 0.136E-03
 gam= 0.592 trial= 0.408  step= 0.673 mean= 0.408
 gam= 1.443 g(H,U,f)=  0.233E-02 0.277E-02 0.141E-03 ort(H,U,f) =-0.125E-02 0.118E-02-0.510E-04
CGA: 154    -0.223151871424E+03   -0.12173E-02   -0.12484E-02  5760   0.524E-02-0.120E-03
 gam= 1.443 trial= 0.421  step= 0.760 mean= 0.421
 gam= 1.120 g(H,U,f)=  0.268E-02 0.318E-02 0.703E-05 ort(H,U,f) =-0.172E-02 0.205E-02-0.102E-05
CGA: 155    -0.223153792390E+03   -0.19210E-02   -0.19249E-02  5760   0.587E-02 0.335E-03
 gam= 1.120 trial= 0.438  step= 0.185 mean= 0.438
 gam= 0.947 g(H,U,f)=  0.289E-02 0.267E-02 0.454E-05 ort(H,U,f) =-0.507E-04 0.198E-02-0.364E-05
CGA: 156    -0.223154604494E+03   -0.81210E-03   -0.57723E-03  5760   0.556E-02 0.192E-02
 gam= 0.947 trial= 0.425  step= 0.611 mean= 0.425
 gam= 1.463 g(H,U,f)=  0.362E-02 0.451E-02 0.752E-06 ort(H,U,f) =-0.148E-02 0.171E-02-0.501E-06
CGA: 157    -0.223156888604E+03   -0.22841E-02   -0.22530E-02  5760   0.813E-02 0.233E-03
 gam= 1.463 trial= 0.435  step= 0.382 mean= 0.435
 gam= 1.428 g(H,U,f)=  0.525E-02 0.634E-02 0.184E-04 ort(H,U,f) =-0.322E-02 0.351E-02-0.568E-05
CGA: 158    -0.223158515244E+03   -0.16266E-02   -0.16177E-02  5760   0.116E-01 0.284E-03
 gam= 1.428 trial= 0.432  step= 0.183 mean= 0.432
 gam= 0.601 g(H,U,f)=  0.404E-02 0.293E-02 0.751E-05 ort(H,U,f) =-0.274E-02 0.504E-02-0.910E-05
CGA: 159    -0.223159956532E+03   -0.14413E-02   -0.10977E-02  5760   0.697E-02 0.230E-02
 gam= 0.601 trial= 0.419  step= 0.757 mean= 0.419
 gam= 1.677 g(H,U,f)=  0.602E-02 0.568E-02 0.148E-05 ort(H,U,f) =-0.293E-02 0.213E-02 0.123E-05
CGA: 160    -0.223162951416E+03   -0.29949E-02   -0.31600E-02  5760   0.117E-01-0.800E-03
 gam= 1.677 trial= 0.436  step= 0.417 mean= 0.436
 gam= 1.413 g(H,U,f)=  0.722E-02 0.891E-02 0.393E-03 ort(H,U,f) =-0.316E-02 0.457E-02-0.122E-03
CGA: 161    -0.223165117091E+03   -0.21657E-02   -0.21596E-02  5760   0.165E-01 0.129E-02
 gam= 1.413 trial= 0.435  step= 0.227 mean= 0.435
 gam= 0.900 g(H,U,f)=  0.759E-02 0.710E-02 0.186E-03 ort(H,U,f) =-0.421E-02 0.620E-02-0.179E-03
CGA: 162    -0.223167643164E+03   -0.25261E-02   -0.20842E-02  5760   0.149E-01 0.181E-02
 gam= 0.900 trial= 0.425  step= 0.342 mean= 0.425
 gam= 0.870 g(H,U,f)=  0.719E-02 0.574E-02 0.199E-05 ort(H,U,f) =-0.461E-02 0.443E-02 0.247E-05
CGA: 163    -0.223170495147E+03   -0.28520E-02   -0.28196E-02  5760   0.129E-01-0.177E-03
 gam= 0.870 trial= 0.421  step= 0.421 mean= 0.421
 gam= 1.324 g(H,U,f)=  0.812E-02 0.855E-02 0.461E-03 ort(H,U,f) =-0.380E-02 0.419E-02-0.105E-03
CGA: 164    -0.223173182998E+03   -0.26879E-02   -0.26878E-02  5760   0.171E-01 0.286E-03
 gam= 1.324 trial= 0.421  step= 0.221 mean= 0.421
 gam= 0.946 g(H,U,f)=  0.746E-02 0.796E-02 0.779E-03 ort(H,U,f) =-0.201E-02 0.336E-02-0.413E-03
CGA: 165    -0.223175243516E+03   -0.20605E-02   -0.19339E-02  5760   0.162E-01 0.935E-03
 gam= 0.946 trial= 0.411  step= 0.309 mean= 0.411
 gam= 0.655 g(H,U,f)=  0.526E-02 0.536E-02 0.917E-06 ort(H,U,f) =-0.365E-02 0.318E-02 0.525E-05
CGA: 166    -0.223177964096E+03   -0.27206E-02   -0.26435E-02  5760   0.106E-01-0.464E-03
 gam= 0.655 trial= 0.406  step= 0.328 mean= 0.406
 gam= 1.140 g(H,U,f)=  0.496E-02 0.674E-02 0.415E-03 ort(H,U,f) =-0.216E-02 0.275E-02-0.171E-03
CGA: 167    -0.223179665188E+03   -0.17011E-02   -0.16935E-02  5760   0.121E-01 0.419E-03
 gam= 1.140 trial= 0.402  step= 0.267 mean= 0.402
 gam= 1.224 g(H,U,f)=  0.505E-02 0.953E-02 0.250E-03 ort(H,U,f) =-0.257E-02 0.328E-02-0.147E-03
CGA: 168    -0.223181418027E+03   -0.17528E-02   -0.16825E-02  5760   0.148E-01 0.560E-03
 gam= 1.224 trial= 0.395  step= 0.368 mean= 0.395
 gam= 0.928 g(H,U,f)=  0.633E-02 0.742E-02 0.198E-05 ort(H,U,f) =-0.574E-02 0.549E-02-0.269E-05
CGA: 169    -0.223184282644E+03   -0.28646E-02   -0.28567E-02  5760   0.138E-01-0.251E-03
 gam= 0.928 trial= 0.394  step= 0.353 mean= 0.394
 gam= 0.000 g(H,U,f)=  0.597E-02 0.706E-02 0.167E-03 ort(H,U,f) =-0.440E-02 0.468E-02-0.395E-04
SDA: 170    -0.223186667994E+03   -0.23854E-02   -0.23843E-02  5760   0.132E-01 0.243E-03
 gam= 0.000 trial= 0.392  step= 0.315 mean= 0.392
 gam= 1.383 g(H,U,f)=  0.395E-02 0.133E-01 0.100E-02 ort(H,U,f) = 0.286E-02-0.694E-03-0.377E-03
CGA: 171    -0.223188796134E+03   -0.21281E-02   -0.20793E-02  5760   0.183E-01 0.179E-02
 gam= 1.383 trial= 0.388  step= 0.275 mean= 0.388
 gam= 0.595 g(H,U,f)=  0.279E-02 0.753E-02 0.528E-03 ort(H,U,f) =-0.413E-03 0.116E-02-0.426E-03
CGA: 172    -0.223191879570E+03   -0.30834E-02   -0.28551E-02  5760   0.109E-01 0.321E-03
 gam= 0.595 trial= 0.382  step= 0.544 mean= 0.382
 gam= 1.696 g(H,U,f)=  0.415E-02 0.129E-01 0.139E-02 ort(H,U,f) =-0.248E-02 0.263E-02-0.469E-03
CGA: 173    -0.223194653954E+03   -0.27744E-02   -0.30044E-02  5760   0.184E-01-0.315E-03
 gam= 1.696 trial= 0.390  step= 0.197 mean= 0.390
 gam= 0.474 g(H,U,f)=  0.473E-02 0.369E-02 0.303E-03 ort(H,U,f) =-0.472E-02 0.573E-02-0.332E-03
CGA: 174    -0.223196642076E+03   -0.19881E-02   -0.17613E-02  5760   0.873E-02 0.682E-03
 gam= 0.474 trial= 0.381  step= 0.699 mean= 0.381
 gam= 1.231 g(H,U,f)=  0.450E-02 0.608E-02 0.167E-03 ort(H,U,f) =-0.165E-02 0.134E-02-0.125E-03
CGA: 175    -0.223199692672E+03   -0.30506E-02   -0.31612E-02  5760   0.107E-01-0.426E-03
 gam= 1.231 trial= 0.397  step= 0.557 mean= 0.397
 gam= 0.917 g(H,U,f)=  0.373E-02 0.541E-02 0.713E-03 ort(H,U,f) =-0.234E-02 0.222E-02-0.194E-04
CGA: 176    -0.223202518886E+03   -0.28262E-02   -0.28481E-02  5760   0.985E-02-0.137E-03
 gam= 0.917 trial= 0.405  step= 0.348 mean= 0.405
 gam= 1.575 g(H,U,f)=  0.440E-02 0.864E-02 0.247E-02 ort(H,U,f) =-0.935E-03 0.259E-02-0.130E-02
CGA: 177    -0.223204219228E+03   -0.17003E-02   -0.16926E-02  5760   0.155E-01 0.354E-03
 gam= 1.575 trial= 0.402  step= 0.300 mean= 0.402
 gam= 0.738 g(H,U,f)=  0.454E-02 0.688E-02 0.194E-04 ort(H,U,f) =-0.311E-02 0.348E-02-0.989E-04
CGA: 178    -0.223206673335E+03   -0.24541E-02   -0.24073E-02  5760   0.114E-01 0.278E-03
 gam= 0.738 trial= 0.397  step= 0.811 mean= 0.397
 gam= 1.699 g(H,U,f)=  0.750E-02 0.119E-01 0.290E-04 ort(H,U,f) =-0.398E-02 0.337E-02-0.853E-04
CGA: 179    -0.223210857916E+03   -0.41846E-02   -0.47217E-02  5760   0.194E-01-0.693E-03
 gam= 1.699 trial= 0.417  step= 0.216 mean= 0.417
 gam= 0.868 g(H,U,f)=  0.835E-02 0.847E-02 0.605E-04 ort(H,U,f) =-0.388E-02 0.568E-02-0.187E-03
CGA: 180    -0.223213169754E+03   -0.23118E-02   -0.19758E-02  5760   0.169E-01 0.161E-02
 gam= 0.868 trial= 0.407  step= 0.456 mean= 0.407
 gam= 0.767 g(H,U,f)=  0.707E-02 0.585E-02 0.319E-04 ort(H,U,f) =-0.365E-02 0.306E-02-0.825E-04
CGA: 181    -0.223217287703E+03   -0.41179E-02   -0.41679E-02  5760   0.129E-01-0.676E-03
 gam= 0.767 trial= 0.410  step= 0.431 mean= 0.410
 gam= 0.666 g(H,U,f)=  0.408E-02 0.453E-02 0.167E-04 ort(H,U,f) =-0.203E-02 0.216E-02-0.173E-04
CGA: 182    -0.223219965938E+03   -0.26782E-02   -0.26775E-02  5760   0.863E-02 0.114E-03
 gam= 0.666 trial= 0.411  step= 0.242 mean= 0.411
 gam= 1.014 g(H,U,f)=  0.359E-02 0.513E-02 0.229E-04 ort(H,U,f) = 0.960E-03 0.830E-03-0.361E-05
CGA: 183    -0.223221136267E+03   -0.11703E-02   -0.10515E-02  5760   0.874E-02 0.179E-02
 gam= 1.014 trial= 0.402  step= 0.389 mean= 0.402
 gam= 0.660 g(H,U,f)=  0.278E-02 0.299E-02 0.405E-05 ort(H,U,f) =-0.121E-02 0.804E-03 0.561E-05
CGA: 184    -0.223223197588E+03   -0.20613E-02   -0.20506E-02  5760   0.577E-02-0.399E-03
 gam= 0.660 trial= 0.402  step= 0.353 mean= 0.402
 gam= 0.981 g(H,U,f)=  0.228E-02 0.338E-02 0.697E-05 ort(H,U,f) =-0.428E-03 0.781E-03 0.625E-05
CGA: 185    -0.223224187232E+03   -0.98964E-03   -0.97109E-03  5760   0.566E-02 0.360E-03
 gam= 0.981 trial= 0.399  step= 0.358 mean= 0.399
 gam= 1.473 g(H,U,f)=  0.241E-02 0.427E-02 0.167E-02 ort(H,U,f) =-0.487E-03 0.796E-03-0.747E-03
CGA: 186    -0.223225295245E+03   -0.11080E-02   -0.10754E-02  5760   0.834E-02-0.438E-03
 gam= 1.473 trial= 0.397  step= 0.288 mean= 0.397
 gam= 0.515 g(H,U,f)=  0.236E-02 0.193E-02 0.563E-05 ort(H,U,f) =-0.263E-02 0.259E-02-0.265E-04
CGA: 187    -0.223226414547E+03   -0.11193E-02   -0.11082E-02  5760   0.429E-02-0.594E-04
 gam= 0.515 trial= 0.392  step= 0.505 mean= 0.392
 gam= 1.237 g(H,U,f)=  0.240E-02 0.224E-02 0.677E-03 ort(H,U,f) =-0.102E-02 0.120E-02-0.157E-03
CGA: 188    -0.223227491411E+03   -0.10769E-02   -0.10769E-02  5760   0.531E-02 0.211E-04
 gam= 1.237 trial= 0.397  step= 0.257 mean= 0.397
 gam= 1.208 g(H,U,f)=  0.227E-02 0.328E-02 0.866E-03 ort(H,U,f) =-0.371E-03 0.101E-02-0.532E-03
CGA: 189    -0.223228187462E+03   -0.69605E-03   -0.68502E-03  5760   0.642E-02 0.108E-03
 gam= 1.208 trial= 0.390  step= 0.380 mean= 0.390
 gam= 0.797 g(H,U,f)=  0.258E-02 0.251E-02 0.186E-04 ort(H,U,f) =-0.133E-02 0.132E-02-0.335E-04
CGA: 190    -0.223229431680E+03   -0.12442E-02   -0.12434E-02  5760   0.511E-02-0.389E-04
 gam= 0.797 trial= 0.390  step= 0.423 mean= 0.390
 gam= 0.785 g(H,U,f)=  0.200E-02 0.139E-02 0.618E-03 ort(H,U,f) =-0.101E-02 0.107E-02-0.748E-04
CGA: 191    -0.223230505881E+03   -0.10742E-02   -0.10749E-02  5760   0.401E-02-0.132E-04
 gam= 0.785 trial= 0.391  step= 0.247 mean= 0.391
 gam= 1.113 g(H,U,f)=  0.182E-02 0.200E-02 0.651E-03 ort(H,U,f) = 0.431E-04 0.590E-03-0.562E-03
CGA: 192    -0.223231001969E+03   -0.49609E-03   -0.49345E-03  5760   0.447E-02 0.717E-04
 gam= 1.113 trial= 0.384  step= 0.368 mean= 0.384
 gam= 0.592 g(H,U,f)=  0.140E-02 0.122E-02 0.172E-04 ort(H,U,f) =-0.669E-03 0.613E-03-0.428E-05
CGA: 193    -0.223231838520E+03   -0.83655E-03   -0.83530E-03  5760   0.264E-02-0.597E-04
 gam= 0.592 trial= 0.383  step= 0.462 mean= 0.383
 gam= 0.755 g(H,U,f)=  0.104E-02 0.940E-03 0.151E-04 ort(H,U,f) =-0.530E-03 0.544E-03 0.614E-04
CGA: 194    -0.223232441402E+03   -0.60288E-03   -0.60213E-03  5760   0.199E-02 0.748E-04
 gam= 0.755 trial= 0.387  step= 0.410 mean= 0.387
 gam= 1.274 g(H,U,f)=  0.103E-02 0.148E-02 0.278E-04 ort(H,U,f) =-0.226E-03 0.425E-03 0.778E-04
CGA: 195    -0.223232861728E+03   -0.42033E-03   -0.42084E-03  5760   0.254E-02 0.277E-03
 gam= 1.274 trial= 0.388  step= 0.258 mean= 0.388
 gam= 0.802 g(H,U,f)=  0.952E-03 0.107E-02 0.141E-04 ort(H,U,f) =-0.289E-03 0.557E-03 0.676E-04
CGA: 196    -0.223233254686E+03   -0.39296E-03   -0.37265E-03  5760   0.204E-02 0.336E-03
 gam= 0.802 trial= 0.382  step= 0.497 mean= 0.382
 gam= 1.134 g(H,U,f)=  0.110E-02 0.120E-02 0.852E-05 ort(H,U,f) =-0.648E-03 0.499E-03 0.553E-04
CGA: 197    -0.223233794361E+03   -0.53968E-03   -0.57287E-03  5760   0.231E-02-0.938E-04
 gam= 1.134 trial= 0.388  step= 0.346 mean= 0.388
 gam= 0.974 g(H,U,f)=  0.115E-02 0.110E-02 0.654E-05 ort(H,U,f) =-0.574E-03 0.661E-03-0.215E-04
CGA: 198    -0.223234178047E+03   -0.38369E-03   -0.38195E-03  5760   0.225E-02 0.657E-04
 gam= 0.974 trial= 0.386  step= 0.324 mean= 0.386
 gam= 0.771 g(H,U,f)=  0.923E-03 0.808E-03 0.574E-05 ort(H,U,f) =-0.383E-03 0.424E-03-0.374E-05
CGA: 199    -0.223234567833E+03   -0.38979E-03   -0.37485E-03  5760   0.174E-02 0.377E-04
 gam= 0.771 trial= 0.383  step= 0.398 mean= 0.383
 gam= 1.126 g(H,U,f)=  0.825E-03 0.112E-02 0.155E-04 ort(H,U,f) =-0.255E-03 0.275E-03-0.582E-04
CGA: 200    -0.223234917071E+03   -0.34924E-03   -0.35133E-03  5760   0.196E-02-0.381E-04
 gam= 1.126 trial= 0.383  step= 0.311 mean= 0.383
 gam= 0.000 g(H,U,f)=  0.749E-03 0.818E-03 0.918E-05 ort(H,U,f) =-0.414E-03 0.434E-03-0.271E-04
SDA: 201    -0.223235237310E+03   -0.32024E-03   -0.29743E-03  5760   0.158E-02-0.722E-05
 gam= 0.000 trial= 0.380  step= 0.174 mean= 0.380
 gam= 0.612 g(H,U,f)=  0.403E-03 0.551E-03 0.110E-04 ort(H,U,f) = 0.397E-03-0.299E-04-0.463E-05
CGA: 202    -0.223235408097E+03   -0.17079E-03   -0.13729E-03  5760   0.965E-03 0.362E-03
 gam= 0.612 trial= 0.369  step= 0.392 mean= 0.369
 gam= 0.755 g(H,U,f)=  0.261E-03 0.465E-03 0.194E-05 ort(H,U,f) =-0.332E-04-0.214E-04 0.179E-05
CGA: 203    -0.223235638236E+03   -0.23014E-03   -0.23232E-03  5760   0.728E-03-0.528E-04
 gam= 0.755 trial= 0.371  step= 0.577 mean= 0.371
 gam= 1.213 g(H,U,f)=  0.378E-03 0.501E-03 0.410E-05 ort(H,U,f) =-0.200E-03 0.193E-03 0.144E-05
CGA: 204    -0.223235826097E+03   -0.18786E-03   -0.19844E-03  5760   0.883E-03-0.508E-05
 gam= 1.213 trial= 0.381  step= 0.254 mean= 0.381
 gam= 0.811 g(H,U,f)=  0.342E-03 0.371E-03 0.314E-05 ort(H,U,f) =-0.145E-03 0.236E-03-0.404E-05
CGA: 205    -0.223235947916E+03   -0.12182E-03   -0.11152E-03  5760   0.716E-03 0.867E-04
 gam= 0.811 trial= 0.374  step= 0.410 mean= 0.374
 gam= 0.794 g(H,U,f)=  0.259E-03 0.307E-03 0.258E-05 ort(H,U,f) =-0.182E-03 0.144E-03-0.226E-05
CGA: 206    -0.223236104643E+03   -0.15673E-03   -0.16130E-03  5760   0.569E-03-0.400E-04
 gam= 0.794 trial= 0.376  step= 0.330 mean= 0.376
 gam= 1.148 g(H,U,f)=  0.253E-03 0.394E-03 0.601E-05 ort(H,U,f) =-0.918E-04 0.121E-03-0.335E-05
CGA: 207    -0.223236196633E+03   -0.91990E-04   -0.88687E-04  5760   0.653E-03 0.260E-04
 gam= 1.148 trial= 0.374  step= 0.398 mean= 0.374
 gam= 0.854 g(H,U,f)=  0.262E-03 0.293E-03 0.255E-05 ort(H,U,f) =-0.179E-03 0.152E-03-0.631E-06
CGA: 208    -0.223236330177E+03   -0.13354E-03   -0.13588E-03  5760   0.558E-03-0.268E-04
 gam= 0.854 trial= 0.375  step= 0.348 mean= 0.375
 gam= 1.022 g(H,U,f)=  0.270E-03 0.294E-03 0.636E-05 ort(H,U,f) =-0.866E-04 0.104E-03 0.157E-05
CGA: 209    -0.223236424872E+03   -0.94695E-04   -0.93107E-04  5760   0.570E-03 0.190E-04
 gam= 1.022 trial= 0.374  step= 0.408 mean= 0.374
 gam= 1.130 g(H,U,f)=  0.252E-03 0.386E-03 0.536E-05 ort(H,U,f) =-0.785E-04 0.926E-04 0.279E-05
CGA: 210    -0.223236541571E+03   -0.11670E-03   -0.12013E-03  5760   0.644E-03 0.169E-04
 gam= 1.130 trial= 0.376  step= 0.312 mean= 0.376
 gam= 0.806 g(H,U,f)=  0.225E-03 0.286E-03 0.813E-05 ort(H,U,f) =-0.107E-03 0.113E-03 0.127E-04
CGA: 211    -0.223236650629E+03   -0.10906E-03   -0.10333E-03  5760   0.519E-03 0.186E-04
 gam= 0.806 trial= 0.372  step= 0.364 mean= 0.372
 gam= 0.853 g(H,U,f)=  0.215E-03 0.223E-03 0.475E-05 ort(H,U,f) =-0.936E-04 0.106E-03 0.127E-04
CGA: 212    -0.223236748151E+03   -0.97522E-04   -0.97205E-04  5760   0.443E-03 0.255E-04
 gam= 0.853 trial= 0.372  step= 0.448 mean= 0.372
 gam= 1.117 g(H,U,f)=  0.205E-03 0.284E-03 0.673E-05 ort(H,U,f) =-0.779E-04 0.936E-04 0.177E-04
CGA: 213    -0.223236849138E+03   -0.10099E-03   -0.10417E-03  5760   0.495E-03 0.334E-04
 gam= 1.117 trial= 0.376  step= 0.260 mean= 0.376
 gam= 0.735 g(H,U,f)=  0.169E-03 0.192E-03 0.239E-05 ort(H,U,f) =-0.591E-04 0.104E-03 0.135E-04
CGA: 214    -0.223236923935E+03   -0.74797E-04   -0.69197E-04  5760   0.364E-03 0.587E-04
 gam= 0.735 trial= 0.370  step= 0.512 mean= 0.370
 gam= 1.143 g(H,U,f)=  0.179E-03 0.234E-03 0.257E-05 ort(H,U,f) =-0.952E-04 0.792E-04 0.119E-04
CGA: 215    -0.223237021688E+03   -0.97753E-04   -0.10415E-03  5760   0.416E-03-0.415E-05
 gam= 1.143 trial= 0.377  step= 0.300 mean= 0.377
 gam= 0.875 g(H,U,f)=  0.172E-03 0.190E-03 0.107E-05 ort(H,U,f) =-0.915E-04 0.119E-03 0.414E-05
CGA: 216    -0.223237085635E+03   -0.63947E-04   -0.61708E-04  5760   0.364E-03 0.321E-04
 gam= 0.875 trial= 0.373  step= 0.404 mean= 0.373
 gam= 1.064 g(H,U,f)=  0.175E-03 0.210E-03 0.149E-05 ort(H,U,f) =-0.893E-04 0.818E-04 0.828E-05
CGA: 217    -0.223237162939E+03   -0.77304E-04   -0.79090E-04  5760   0.387E-03 0.808E-06
 gam= 1.064 trial= 0.375  step= 0.361 mean= 0.375
 gam= 1.056 g(H,U,f)=  0.179E-03 0.228E-03 0.135E-05 ort(H,U,f) =-0.866E-04 0.107E-03-0.139E-05
CGA: 218    -0.223237233313E+03   -0.70374E-04   -0.70072E-04  5760   0.409E-03 0.189E-04
 gam= 1.056 trial= 0.374  step= 0.391 mean= 0.374
 gam= 0.937 g(H,U,f)=  0.184E-03 0.197E-03 0.128E-05 ort(H,U,f) =-0.124E-03 0.118E-03 0.325E-06
CGA: 219    -0.223237315946E+03   -0.82633E-04   -0.83833E-04  5760   0.383E-03-0.568E-05
 gam= 0.937 trial= 0.375  step= 0.318 mean= 0.375
 gam= 1.086 g(H,U,f)=  0.200E-03 0.214E-03 0.205E-05 ort(H,U,f) =-0.653E-04 0.784E-04-0.116E-04
CGA: 220    -0.223237378108E+03   -0.62162E-04   -0.59953E-04  5760   0.416E-03 0.151E-05
 gam= 1.086 trial= 0.372  step= 0.483 mean= 0.372
 gam= 1.079 g(H,U,f)=  0.202E-03 0.244E-03 0.217E-05 ort(H,U,f) =-0.105E-03 0.581E-04-0.849E-05
CGA: 221    -0.223237469421E+03   -0.91313E-04   -0.10072E-03  5760   0.449E-03-0.558E-04
 gam= 1.079 trial= 0.378  step= 0.309 mean= 0.378
 gam= 1.006 g(H,U,f)=  0.207E-03 0.242E-03 0.228E-05 ort(H,U,f) =-0.644E-04 0.853E-04-0.149E-04
CGA: 222    -0.223237533593E+03   -0.64172E-04   -0.59957E-04  5760   0.451E-03 0.598E-05
 gam= 1.006 trial= 0.374  step= 0.333 mean= 0.374
 gam= 0.579 g(H,U,f)=  0.149E-03 0.112E-03 0.477E-06 ort(H,U,f) =-0.720E-04 0.557E-04-0.467E-05
CGA: 223    -0.223237611977E+03   -0.78383E-04   -0.76065E-04  5760   0.261E-03-0.210E-04
 gam= 0.579 trial= 0.372  step= 0.401 mean= 0.372
 gam= 1.140 g(H,U,f)=  0.120E-03 0.177E-03 0.118E-05 ort(H,U,f) =-0.315E-05 0.122E-04-0.316E-05
CGA: 224    -0.223237661076E+03   -0.49099E-04   -0.49986E-04  5760   0.298E-03 0.588E-05
 gam= 1.140 trial= 0.374  step= 0.272 mean= 0.374
 gam= 0.715 g(H,U,f)=  0.918E-04 0.120E-03 0.965E-06 ort(H,U,f) =-0.165E-04 0.343E-04 0.162E-05
CGA: 225    -0.223237707352E+03   -0.46276E-04   -0.41377E-04  5760   0.213E-03 0.194E-04
 gam= 0.715 trial= 0.368  step= 0.358 mean= 0.368
 gam= 0.758 g(H,U,f)=  0.721E-04 0.887E-04 0.515E-06 ort(H,U,f) =-0.314E-04 0.271E-04-0.183E-06
CGA: 226    -0.223237748263E+03   -0.40911E-04   -0.40604E-04  5760   0.161E-03-0.452E-05
 gam= 0.758 trial= 0.368  step= 0.314 mean= 0.368
 gam= 0.905 g(H,U,f)=  0.662E-04 0.789E-04 0.879E-06 ort(H,U,f) =-0.117E-04 0.200E-04 0.780E-06
CGA: 227    -0.223237774016E+03   -0.25754E-04   -0.24809E-04  5760   0.146E-03 0.911E-05
 gam= 0.905 trial= 0.365  step= 0.378 mean= 0.365
 gam= 0.937 g(H,U,f)=  0.534E-04 0.825E-04 0.790E-06 ort(H,U,f) =-0.202E-04 0.208E-04-0.133E-05
CGA: 228    -0.223237802772E+03   -0.28755E-04   -0.29127E-04  5760   0.137E-03-0.810E-06
 gam= 0.937 trial= 0.366  step= 0.253 mean= 0.366
 gam= 0.656 g(H,U,f)=  0.429E-04 0.465E-04 0.343E-06 ort(H,U,f) =-0.136E-04 0.189E-04 0.457E-06
CGA: 229    -0.223237821859E+03   -0.19088E-04   -0.17209E-04  5760   0.897E-04 0.569E-05
 gam= 0.656 trial= 0.360  step= 0.485 mean= 0.360
 gam= 0.992 g(H,U,f)=  0.389E-04 0.496E-04 0.471E-06 ort(H,U,f) =-0.197E-04 0.145E-04 0.552E-06
CGA: 230    -0.223237842832E+03   -0.20973E-04   -0.22649E-04  5760   0.890E-04-0.464E-05
 gam= 0.992 trial= 0.366  step= 0.278 mean= 0.366
 gam= 0.827 g(H,U,f)=  0.319E-04 0.409E-04 0.794E-06 ort(H,U,f) =-0.123E-04 0.173E-04 0.168E-05
CGA: 231    -0.223237855256E+03   -0.12424E-04   -0.11729E-04  5760   0.736E-04 0.668E-05
 gam= 0.827 trial= 0.362  step= 0.355 mean= 0.362
 gam= 0.000 g(H,U,f)=  0.305E-04 0.377E-04 0.347E-06 ort(H,U,f) =-0.112E-04 0.111E-04 0.974E-06
SDA: 232    -0.223237869387E+03   -0.14131E-04   -0.14065E-04  5760   0.685E-04 0.836E-06
 gam= 0.000 trial= 0.362  step= 0.197 mean= 0.362
 gam= 0.671 g(H,U,f)=  0.162E-04 0.291E-04 0.595E-06 ort(H,U,f) = 0.155E-04-0.120E-06 0.197E-07
CGA: 233    -0.223237877370E+03   -0.79833E-05   -0.67503E-05  5760   0.460E-04 0.154E-04
 gam= 0.671 trial= 0.353  step= 0.351 mean= 0.353
 gam= 0.912 g(H,U,f)=  0.132E-04 0.285E-04 0.217E-06 ort(H,U,f) =-0.871E-07-0.993E-06 0.790E-07
CGA: 234    -0.223237887266E+03   -0.98953E-05   -0.98757E-05  5760   0.419E-04-0.100E-05
 gam= 0.912 trial= 0.353  step= 0.472 mean= 0.353
 gam= 1.214 g(H,U,f)=  0.200E-04 0.306E-04 0.311E-06 ort(H,U,f) =-0.134E-04 0.113E-04 0.167E-06
CGA: 235    -0.223237896179E+03   -0.89133E-05   -0.96822E-05  5760   0.509E-04-0.197E-05
 gam= 1.214 trial= 0.359  step= 0.281 mean= 0.359
 gam= 0.965 g(H,U,f)=  0.219E-04 0.270E-04 0.191E-06 ort(H,U,f) =-0.132E-04 0.166E-04-0.353E-08
CGA: 236    -0.223237903578E+03   -0.73987E-05   -0.68247E-05  5760   0.491E-04 0.343E-05
 gam= 0.965 trial= 0.355  step= 0.548 mean= 0.355
 gam= 1.149 g(H,U,f)=  0.261E-04 0.299E-04 0.443E-06 ort(H,U,f) =-0.191E-04 0.134E-04 0.579E-06
CGA: 237    -0.223237916384E+03   -0.12806E-04   -0.14366E-04  5760   0.564E-04-0.512E-05
 gam= 1.149 trial= 0.365  step= 0.253 mean= 0.365
 gam= 0.833 g(H,U,f)=  0.236E-04 0.232E-04 0.234E-06 ort(H,U,f) =-0.133E-04 0.178E-04 0.387E-06
CGA: 238    -0.223237923457E+03   -0.70738E-05   -0.64051E-05  5760   0.470E-04 0.485E-05
 gam= 0.833 trial= 0.359  step= 0.464 mean= 0.359
 gam= 1.155 g(H,U,f)=  0.263E-04 0.278E-04 0.181E-06 ort(H,U,f) =-0.114E-04 0.942E-05 0.180E-06
CGA: 239    -0.223237934816E+03   -0.11358E-04   -0.11843E-04  5760   0.543E-04-0.179E-05
 gam= 1.155 trial= 0.365  step= 0.445 mean= 0.365
 gam= 1.126 g(H,U,f)=  0.278E-04 0.331E-04 0.264E-06 ort(H,U,f) =-0.135E-04 0.145E-04-0.835E-06
CGA: 240    -0.223237946035E+03   -0.11219E-04   -0.11629E-04  5760   0.611E-04 0.222E-06
 gam= 1.126 trial= 0.369  step= 0.250 mean= 0.369
 gam= 0.800 g(H,U,f)=  0.246E-04 0.241E-04 0.120E-06 ort(H,U,f) =-0.770E-05 0.124E-04-0.470E-06
CGA: 241    -0.223237954683E+03   -0.86483E-05   -0.76688E-05  5760   0.489E-04 0.427E-05
 gam= 0.800 trial= 0.363  step= 0.474 mean= 0.363
 gam= 1.205 g(H,U,f)=  0.270E-04 0.318E-04 0.954E-07 ort(H,U,f) =-0.944E-05 0.593E-05-0.208E-06
CGA: 242    -0.223237966424E+03   -0.11741E-04   -0.12408E-04  5760   0.589E-04-0.372E-05
 gam= 1.205 trial= 0.368  step= 0.354 mean= 0.368
 gam= 0.848 g(H,U,f)=  0.232E-04 0.265E-04 0.173E-06 ort(H,U,f) =-0.116E-04 0.124E-04 0.243E-06
CGA: 243    -0.223237976122E+03   -0.96978E-05   -0.96275E-05  5760   0.499E-04 0.102E-05
 gam= 0.848 trial= 0.368  step= 0.285 mean= 0.368
 gam= 0.800 g(H,U,f)=  0.189E-04 0.209E-04 0.108E-06 ort(H,U,f) =-0.652E-05 0.948E-05-0.148E-06
CGA: 244    -0.223237983897E+03   -0.77751E-05   -0.72484E-05  5760   0.400E-04 0.281E-05
 gam= 0.800 trial= 0.364  step= 0.317 mean= 0.364
 gam= 0.824 g(H,U,f)=  0.158E-04 0.170E-04 0.745E-07 ort(H,U,f) =-0.429E-05 0.428E-05-0.108E-06
CGA: 245    -0.223237990733E+03   -0.68365E-05   -0.66938E-05  5760   0.329E-04-0.122E-06
 gam= 0.824 trial= 0.361  step= 0.390 mean= 0.361
 gam= 0.889 g(H,U,f)=  0.132E-04 0.159E-04 0.156E-06 ort(H,U,f) =-0.575E-05 0.526E-05-0.354E-06
CGA: 246    -0.223237997022E+03   -0.62887E-05   -0.64049E-05  5760   0.292E-04-0.847E-06
 gam= 0.889 trial= 0.363  step= 0.315 mean= 0.363
 gam= 0.983 g(H,U,f)=  0.125E-04 0.162E-04 0.679E-07 ort(H,U,f) =-0.401E-05 0.443E-05-0.811E-07
CGA: 247    -0.223238001674E+03   -0.46514E-05   -0.44870E-05  5760   0.287E-04 0.338E-06
 gam= 0.983 trial= 0.360  step= 0.311 mean= 0.360
 gam= 0.765 g(H,U,f)=  0.106E-04 0.114E-04 0.316E-07 ort(H,U,f) =-0.475E-05 0.421E-05-0.179E-07
CGA: 248    -0.223238006385E+03   -0.47111E-05   -0.45216E-05  5760   0.220E-04-0.558E-06
 gam= 0.765 trial= 0.358  step= 0.360 mean= 0.358
 gam= 0.909 g(H,U,f)=  0.932E-05 0.106E-04 0.973E-07 ort(H,U,f) =-0.390E-05 0.381E-05 0.829E-07
CGA: 249    -0.223238010264E+03   -0.38791E-05   -0.38832E-05  5760   0.200E-04-0.117E-07
 gam= 0.909 trial= 0.358  step= 0.365 mean= 0.358
 gam= 0.998 g(H,U,f)=  0.848E-05 0.114E-04 0.623E-07 ort(H,U,f) =-0.320E-05 0.404E-05 0.645E-07
CGA: 250    -0.223238013891E+03   -0.36277E-05   -0.36418E-05  5760   0.199E-04 0.905E-06
 gam= 0.998 trial= 0.358  step= 0.295 mean= 0.358
 gam= 0.899 g(H,U,f)=  0.838E-05 0.944E-05 0.106E-06 ort(H,U,f) =-0.324E-05 0.398E-05 0.139E-06
CGA: 251    -0.223238017096E+03   -0.32047E-05   -0.30761E-05  5760   0.179E-04 0.881E-06
 gam= 0.899 trial= 0.355  step= 0.401 mean= 0.355
 gam= 1.017 g(H,U,f)=  0.834E-05 0.983E-05 0.539E-07 ort(H,U,f) =-0.396E-05 0.397E-05 0.410E-07
CGA: 252    -0.223238020766E+03   -0.36703E-05   -0.37508E-05  5760   0.182E-04 0.518E-07
 gam= 1.017 trial= 0.357  step= 0.359 mean= 0.357
 gam= 0.982 g(H,U,f)=  0.819E-05 0.959E-05 0.119E-06 ort(H,U,f) =-0.410E-05 0.387E-05 0.195E-06
CGA: 253    -0.223238024041E+03   -0.32742E-05   -0.32765E-05  5760   0.179E-04-0.367E-07
 gam= 0.982 trial= 0.357  step= 0.298 mean= 0.357
 gam= 0.926 g(H,U,f)=  0.811E-05 0.842E-05 0.530E-07 ort(H,U,f) =-0.318E-05 0.383E-05 0.132E-06
CGA: 254    -0.223238026781E+03   -0.27406E-05   -0.26615E-05  5760   0.166E-04 0.781E-06
 gam= 0.926 trial= 0.354  step= 0.436 mean= 0.354
 gam= 0.906 g(H,U,f)=  0.734E-05 0.759E-05 0.883E-07 ort(H,U,f) =-0.403E-05 0.356E-05 0.265E-06
CGA: 255    -0.223238030394E+03   -0.36129E-05   -0.37714E-05  5760   0.150E-04-0.199E-06
 gam= 0.906 trial= 0.359  step= 0.295 mean= 0.359
 gam= 0.973 g(H,U,f)=  0.694E-05 0.762E-05 0.573E-07 ort(H,U,f) =-0.201E-05 0.306E-05 0.214E-06
CGA: 256    -0.223238032665E+03   -0.22704E-05   -0.21910E-05  5760   0.146E-04 0.126E-05
 gam= 0.973 trial= 0.355  step= 0.339 mean= 0.355
 gam= 0.903 g(H,U,f)=  0.626E-05 0.683E-05 0.956E-07 ort(H,U,f) =-0.202E-05 0.208E-05 0.397E-06
CGA: 257    -0.223238035365E+03   -0.27006E-05   -0.26838E-05  5760   0.132E-04 0.458E-06
 gam= 0.903 trial= 0.355  step= 0.396 mean= 0.355
 gam= 0.857 g(H,U,f)=  0.541E-05 0.586E-05 0.471E-07 ort(H,U,f) =-0.252E-05 0.275E-05 0.225E-06
CGA: 258    -0.223238038033E+03   -0.26675E-05   -0.26969E-05  5760   0.113E-04 0.454E-06
 gam= 0.857 trial= 0.357  step= 0.344 mean= 0.357
 gam= 1.080 g(H,U,f)=  0.556E-05 0.661E-05 0.471E-07 ort(H,U,f) =-0.205E-05 0.242E-05 0.162E-06
CGA: 259    -0.223238040062E+03   -0.20290E-05   -0.20102E-05  5760   0.122E-04 0.537E-06
 gam= 1.080 trial= 0.356  step= 0.276 mean= 0.356
 gam= 0.885 g(H,U,f)=  0.496E-05 0.584E-05 0.165E-07 ort(H,U,f) =-0.166E-05 0.199E-05-0.724E-07
CGA: 260    -0.223238041912E+03   -0.18503E-05   -0.17645E-05  5760   0.108E-04 0.253E-06
 gam= 0.885 trial= 0.352  step= 0.442 mean= 0.352
 gam= 0.886 g(H,U,f)=  0.456E-05 0.502E-05 0.830E-08 ort(H,U,f) =-0.306E-05 0.261E-05 0.538E-07
CGA: 261    -0.223238044287E+03   -0.23750E-05   -0.24405E-05  5760   0.959E-05-0.397E-06
 gam= 0.886 trial= 0.356  step= 0.486 mean= 0.356
 gam= 1.067 g(H,U,f)=  0.526E-05 0.496E-05 0.251E-07 ort(H,U,f) =-0.381E-05 0.352E-05 0.144E-06
CGA: 262    -0.223238046462E+03   -0.21751E-05   -0.22451E-05  5760   0.102E-04-0.142E-06
 gam= 1.067 trial= 0.363  step= 0.337 mean= 0.363
 gam= 0.000 g(H,U,f)=  0.588E-05 0.602E-05 0.684E-07 ort(H,U,f) =-0.270E-05 0.298E-05 0.272E-06
SDA: 263    -0.223238048180E+03   -0.17179E-05   -0.17018E-05  5760   0.120E-04 0.546E-06
 gam= 0.000 trial= 0.362  step= 0.164 mean= 0.362
 gam= 0.611 g(H,U,f)=  0.355E-05 0.373E-05 0.301E-07 ort(H,U,f) = 0.355E-05-0.349E-06-0.161E-07
CGA: 264    -0.223238049420E+03   -0.12399E-05   -0.98120E-06  5760   0.731E-05 0.318E-05
 gam= 0.611 trial= 0.352  step= 0.442 mean= 0.352
 gam= 0.754 g(H,U,f)=  0.203E-05 0.346E-05 0.108E-07 ort(H,U,f) =-0.384E-06-0.200E-06-0.736E-08
CGA: 265    -0.223238051373E+03   -0.19531E-05   -0.20428E-05  5760   0.551E-05-0.591E-06
 gam= 0.754 trial= 0.356  step= 0.466 mean= 0.356
 gam= 1.352 g(H,U,f)=  0.263E-05 0.478E-05 0.373E-07 ort(H,U,f) =-0.124E-05 0.138E-05-0.177E-07
CGA: 266    -0.223238052458E+03   -0.10846E-05   -0.11792E-05  5760   0.745E-05 0.124E-06
 gam= 1.352 trial= 0.362  step= 0.204 mean= 0.362
 gam= 0.591 g(H,U,f)=  0.237E-05 0.202E-05 0.109E-07 ort(H,U,f) =-0.155E-05 0.209E-05-0.216E-08
CGA: 267    -0.223238053388E+03   -0.93074E-06   -0.77628E-06  5760   0.441E-05 0.542E-06
 gam= 0.591 trial= 0.354  step= 0.541 mean= 0.354
 gam= 0.881 g(H,U,f)=  0.195E-05 0.191E-05 0.201E-07 ort(H,U,f) =-0.137E-05 0.982E-06 0.168E-07
CGA: 268    -0.223238054602E+03   -0.12140E-05   -0.12790E-05  5760   0.388E-05-0.369E-06
 gam= 0.881 trial= 0.363  step= 0.592 mean= 0.363
 gam= 0.910 g(H,U,f)=  0.215E-05 0.136E-05 0.209E-07 ort(H,U,f) =-0.122E-05 0.131E-05 0.355E-07
CGA: 269    -0.223238055668E+03   -0.10657E-05   -0.10530E-05  5760   0.353E-05 0.127E-06
 gam= 0.910 trial= 0.375  step= 0.570 mean= 0.375
 gam= 1.097 g(H,U,f)=  0.200E-05 0.186E-05 0.901E-08 ort(H,U,f) =-0.686E-06 0.826E-06 0.176E-07
CGA: 270    -0.223238056700E+03   -0.10316E-05   -0.10394E-05  5760   0.388E-05 0.158E-06
 gam= 1.097 trial= 0.384  step= 0.274 mean= 0.384
 gam= 1.035 g(H,U,f)=  0.164E-05 0.234E-05 0.263E-07 ort(H,U,f) =-0.304E-07 0.505E-06 0.287E-07
CGA: 271    -0.223238057298E+03   -0.59837E-06   -0.55497E-06  5760   0.401E-05 0.503E-06
 gam= 1.035 trial= 0.379  step= 0.400 mean= 0.379
 final diagonalization
   1 F= -.23245126E+03 E0= -.23244646E+03  d E =-.959991E-02  mag=     6.0000
