 vasp.5.4.4.18Apr17-6-g9f103f2a35 (build Nov 22 2021 14:44:17) complex          
  
 executed on             LinuxIFC date 2022.08.08  10:59:22
 running on   64 total cores
 distrk:  each k-point on   64 cores,    1 groups
 distr:  one band on NCORES_PER_BAND=   4 cores,   16 groups


--------------------------------------------------------------------------------------------------------


 INCAR:
 POTCAR:    PAW_PBE Li 17Jan2003                  
 POTCAR:    PAW_PBE Co 02Aug2007                  
 POTCAR:    PAW_PBE O 08Apr2002                   
 POTCAR:    PAW_PBE Li 17Jan2003                  
   VRHFIN =Li: s1p0                                                             
   LEXCH  = PE                                                                  
   EATOM  =     5.3001 eV,    0.3895 Ry                                         
                                                                                
   TITEL  = PAW_PBE Li 17Jan2003                                                
   LULTRA =        F    use ultrasoft PP ?                                      
   IUNSCR =        1    unscreen: 0-lin 1-nonlin 2-no                           
   RPACOR =    1.500    partial core radius                                     
   POMASS =    7.010; ZVAL   =    1.000    mass and valenz                      
   RCORE  =    2.050    outmost cutoff radius                                   
   RWIGS  =    2.600; RWIGS  =    1.376    wigner-seitz radius (au A)           
   ENMAX  =  140.000; ENMIN  =  100.000 eV                                      
   ICORE  =        2    local potential                                         
   LCOR   =        T    correct aug charges                                     
   LPAW   =        T    paw PP                                                  
   EAUG   =  331.638                                                            
   DEXC   =    0.000                                                            
   RMAX   =    2.098    core radius for proj-oper                               
   RAUG   =    1.300    factor for augmentation sphere                          
   RDEP   =    2.094    radius for radial grids                                 
   RDEPT  =    1.810    core radius for aug-charge                              
                                                                                
   Atomic configuration                                                         
    4 entries                                                                   
     n  l   j            E        occ.                                          
     1  0  0.50       -51.8549   2.0000                                         
     2  0  0.50        -2.8742   1.0000                                         
     2  1  0.50        -1.3606   0.0000                                         
     3  2  1.50        -1.3606   0.0000                                         
   Description                                                                  
     l       E           TYP  RCUT    TYP  RCUT                                 
     0     -2.8742052     23  2.050                                             
     0     27.2116520     23  2.050                                             
     1     -1.3605826     23  2.050                                             
     2     -1.3605826     23  2.050                                             
  local pseudopotential read in
  partial core-charges read in
  partial kinetic energy density read in
  atomic valenz-charges read in
  non local Contribution for L=           0  read in
    real space projection operators read in
  non local Contribution for L=           0  read in
    real space projection operators read in
  non local Contribution for L=           1  read in
    real space projection operators read in
    PAW grid and wavefunctions read in
 
   number of l-projection  operators is LMAX  =           3
   number of lm-projection operators is LMMAX =           5
 
 POTCAR:    PAW_PBE Co 02Aug2007                  
   VRHFIN =Co: d8 s1                                                            
   LEXCH  = PE                                                                  
   EATOM  =   813.3670 eV,   59.7808 Ry                                         
                                                                                
   TITEL  = PAW_PBE Co 02Aug2007                                                
   LULTRA =        F    use ultrasoft PP ?                                      
   IUNSCR =        1    unscreen: 0-lin 1-nonlin 2-no                           
   RPACOR =    2.000    partial core radius                                     
   POMASS =   58.933; ZVAL   =    9.000    mass and valenz                      
   RCORE  =    2.300    outmost cutoff radius                                   
   RWIGS  =    2.460; RWIGS  =    1.302    wigner-seitz radius (au A)           
   ENMAX  =  267.968; ENMIN  =  200.976 eV                                      
   RCLOC  =    1.203    cutoff for local pot                                    
   LCOR   =        T    correct aug charges                                     
   LPAW   =        T    paw PP                                                  
   EAUG   =  477.818                                                            
   DEXC   =    0.000                                                            
   RMAX   =    2.360    core radius for proj-oper                               
   RAUG   =    1.300    factor for augmentation sphere                          
   RDEP   =    2.393    radius for radial grids                                 
   RDEPT  =    1.864    core radius for aug-charge                              
                                                                                
   Atomic configuration                                                         
    9 entries                                                                   
     n  l   j            E        occ.                                          
     1  0  0.50     -7587.6674   2.0000                                         
     2  0  0.50      -893.6084   2.0000                                         
     2  1  1.50      -764.5805   6.0000                                         
     3  0  0.50       -97.5973   2.0000                                         
     3  1  1.50       -60.9648   6.0000                                         
     3  2  2.50        -4.2382   8.0000                                         
     4  0  0.50        -4.3746   1.0000                                         
     4  1  1.50        -4.0817   0.0000                                         
     4  3  2.50        -1.3606   0.0000                                         
   Description                                                                  
     l       E           TYP  RCUT    TYP  RCUT                                 
     2     -4.2382362     23  2.300                                             
     2     -5.5988188     23  2.300                                             
     0     -4.3745797     23  2.300                                             
     0      5.7660125     23  2.300                                             
     1     -2.7211652     23  2.300                                             
     1     16.9860234     23  2.300                                             
  local pseudopotential read in
  partial core-charges read in
  partial kinetic energy density read in
  atomic valenz-charges read in
  non local Contribution for L=           2  read in
    real space projection operators read in
  non local Contribution for L=           2  read in
    real space projection operators read in
  non local Contribution for L=           0  read in
    real space projection operators read in
  non local Contribution for L=           0  read in
    real space projection operators read in
  non local Contribution for L=           1  read in
    real space projection operators read in
  non local Contribution for L=           1  read in
    real space projection operators read in
    PAW grid and wavefunctions read in
 
   number of l-projection  operators is LMAX  =           6
   number of lm-projection operators is LMMAX =          18
 
 POTCAR:    PAW_PBE O 08Apr2002                   
   VRHFIN =O: s2p4                                                              
   LEXCH  = PE                                                                  
   EATOM  =   432.3788 eV,   31.7789 Ry                                         
                                                                                
   TITEL  = PAW_PBE O 08Apr2002                                                 
   LULTRA =        F    use ultrasoft PP ?                                      
   IUNSCR =        1    unscreen: 0-lin 1-nonlin 2-no                           
   RPACOR =    1.200    partial core radius                                     
   POMASS =   16.000; ZVAL   =    6.000    mass and valenz                      
   RCORE  =    1.520    outmost cutoff radius                                   
   RWIGS  =    1.550; RWIGS  =    0.820    wigner-seitz radius (au A)           
   ENMAX  =  400.000; ENMIN  =  300.000 eV                                      
   ICORE  =        2    local potential                                         
   LCOR   =        T    correct aug charges                                     
   LPAW   =        T    paw PP                                                  
   EAUG   =  605.392                                                            
   DEXC   =    0.000                                                            
   RMAX   =    1.553    core radius for proj-oper                               
   RAUG   =    1.300    factor for augmentation sphere                          
   RDEP   =    1.550    radius for radial grids                                 
   RDEPT  =    1.329    core radius for aug-charge                              
                                                                                
   Atomic configuration                                                         
    4 entries                                                                   
     n  l   j            E        occ.                                          
     1  0  0.50      -514.6923   2.0000                                         
     2  0  0.50       -23.9615   2.0000                                         
     2  1  0.50        -9.0305   4.0000                                         
     3  2  1.50        -9.5241   0.0000                                         
   Description                                                                  
     l       E           TYP  RCUT    TYP  RCUT                                 
     0    -23.9615318     23  1.200                                             
     0     -9.5240782     23  1.200                                             
     1     -9.0304911     23  1.520                                             
     1      8.1634956     23  1.520                                             
     2     -9.5240782      7  1.500                                             
  local pseudopotential read in
  partial core-charges read in
  partial kinetic energy density read in
  kinetic energy density of atom read in
  atomic valenz-charges read in
  non local Contribution for L=           0  read in
    real space projection operators read in
  non local Contribution for L=           0  read in
    real space projection operators read in
  non local Contribution for L=           1  read in
    real space projection operators read in
  non local Contribution for L=           1  read in
    real space projection operators read in
    PAW grid and wavefunctions read in
 
   number of l-projection  operators is LMAX  =           4
   number of lm-projection operators is LMMAX =           8
 
 Optimization of the real space projectors (new method)

 maximal supplied QI-value         = 18.33
 optimisation between [QCUT,QGAM] = [ 12.46, 24.93] = [ 43.51,174.03] Ry 
 Optimized for a Real-space Cutoff    1.13 Angstroem

   l    n(q)    QCUT    max X(q) W(low)/X(q) W(high)/X(q)  e(spline) 
   0      8    12.465    33.825    0.12E-03    0.29E-03    0.99E-07
   0      8    12.465     8.944    0.86E-04    0.22E-03    0.72E-07
   1      8    12.465     4.214    0.27E-03    0.11E-03    0.82E-07
 Optimization of the real space projectors (new method)

 maximal supplied QI-value         = 16.25
 optimisation between [QCUT,QGAM] = [ 12.51, 25.03] = [ 43.85,175.40] Ry 
 Optimized for a Real-space Cutoff    1.31 Angstroem

   l    n(q)    QCUT    max X(q) W(low)/X(q) W(high)/X(q)  e(spline) 
   2      9    12.514    65.824    0.30E-03    0.46E-03    0.43E-06
   2      9    12.514    61.429    0.31E-03    0.46E-03    0.44E-06
   0     10    12.514    56.174    0.90E-04    0.33E-03    0.30E-06
   0     10    12.514    31.263    0.81E-04    0.30E-03    0.28E-06
   1      9    12.514    19.828    0.38E-03    0.65E-04    0.24E-06
   1      9    12.514    15.139    0.32E-03    0.60E-04    0.20E-06
 Optimization of the real space projectors (new method)

 maximal supplied QI-value         = 24.76
 optimisation between [QCUT,QGAM] = [ 12.38, 25.00] = [ 42.90,175.06] Ry 
 Optimized for a Real-space Cutoff    1.13 Angstroem

   l    n(q)    QCUT    max X(q) W(low)/X(q) W(high)/X(q)  e(spline) 
   0      8    12.378    20.381    0.16E-03    0.54E-05    0.27E-06
   0      8    12.378    15.268    0.17E-03    0.61E-05    0.29E-06
   1      8    12.378     5.964    0.38E-03    0.23E-03    0.28E-06
   1      8    12.378     5.382    0.33E-03    0.20E-03    0.25E-06
  PAW_PBE Li 17Jan2003                  :
 energy of atom  1       EATOM=   -5.3001
 kinetic energy error for atom=    0.0000 (will be added to EATOM!!)
  PAW_PBE Co 02Aug2007                  :
 energy of atom  2       EATOM= -813.3670
 kinetic energy error for atom=    0.0018 (will be added to EATOM!!)
  PAW_PBE O 08Apr2002                   :
 energy of atom  3       EATOM= -432.3788
 kinetic energy error for atom=    0.0168 (will be added to EATOM!!)
 
 
 POSCAR: Li6 Co12 O24                            
  positions in cartesian coordinates
  No initial velocities read in
 exchange correlation table for  LEXCH =        8
   RHO(1)=    0.500       N(1)  =     2000
   RHO(2)=  100.500       N(2)  =     4000
 


--------------------------------------------------------------------------------------------------------


 ion  position               nearest neighbor table
   1  0.452  0.038  1.000-  37 2.02  23 2.05  36 2.08  24 2.15  25 2.49  38 2.56  15 2.68   8 2.79
                             9 2.91  17 3.07  10 3.10  16 3.18
   2  0.830  0.177  0.349-  33 2.00  34 2.01  31 2.04  21 2.18  19 2.28  20 2.31  13 2.73  12 2.74
                             3 2.79  11 2.81   3 2.85  10 3.03   7 3.08   9 3.10
   3  0.862  0.688  0.347-  32 1.91  33 2.06  34 2.07  20 2.13  22 2.28  19 2.36  11 2.75   2 2.79
                            14 2.81  12 2.84   2 2.85   8 2.94   9 3.08  10 3.15
   4  0.168  0.325  0.669-  40 1.92  42 1.97  27 2.00  28 2.16  39 2.18  29 2.20   6 2.72   5 2.73
                            16 2.80  12 2.83  17 2.84  11 2.86  14 2.88  15 2.89   5 2.91   6 2.92
   5  0.151  0.801  0.659-  28 1.93  30 2.11  40 2.12  39 2.12  41 2.19  27 2.19   6 2.63  12 2.71
                             4 2.73  13 2.78  11 2.81  15 2.89   4 2.91  18 2.94   6 3.02  16 3.06
   6  0.676  0.781  0.664-  30 1.87  42 1.98  39 2.02  28 2.06  29 2.12  41 2.26   5 2.63   4 2.72
                            11 2.75  14 2.76  18 2.81  17 2.87   4 2.92   5 3.02  16 3.02  13 3.07
   7  0.195  0.396  0.172-  20 1.85  24 1.85  22 1.91  19 1.92  23 1.93  25 1.95   8 2.74   9 2.76
                            10 2.80  10 2.83   9 2.90   8 2.90   2 3.08
   8  0.183  0.876  0.172-  24 1.81  23 1.84  19 1.85  26 1.90  20 1.92  21 1.97   7 2.74  10 2.75
                             1 2.79   9 2.80   9 2.82  10 2.90   7 2.90   3 2.94
   9  0.692  0.365  0.164-  25 1.76  23 1.86  21 1.87  26 1.90  20 1.94  22 1.97  10 2.73   7 2.76
                             8 2.80   8 2.82   7 2.90  10 2.91   1 2.91   3 3.08   2 3.10
  10  0.701  0.885  0.165-  25 1.84  21 1.85  19 1.85  22 1.88  26 1.90  24 1.97   9 2.73   8 2.75
                             7 2.80   7 2.83   8 2.90   9 2.91   2 3.03   1 3.10   3 3.15
  11  0.993  0.996  0.506-  29 1.73  30 1.75  31 1.81  32 1.85  27 1.86  34 1.98  12 2.73   6 2.75
                             3 2.75  14 2.78  13 2.79   5 2.81   2 2.81  14 2.84  13 2.86   4 2.86
  12  0.996  0.483  0.507-  31 1.89  29 1.96  32 1.99  30 1.99  28 2.03  33 2.08   5 2.71  11 2.73
                            14 2.73   2 2.74  13 2.75   4 2.83   3 2.84  13 2.88  11 2.90  14 2.92
  13  0.494  0.009  0.503-  28 1.90  33 1.91  29 1.93  32 1.95  27 1.95  34 1.98   2 2.73  12 2.75
                             5 2.78  11 2.79  14 2.81  14 2.82  11 2.86  12 2.88   6 3.07
  14  0.493  0.508  0.499-  34 1.87  30 1.90  31 1.91  33 1.92  27 1.92  28 1.95  12 2.73   6 2.76
                            11 2.78   3 2.81  13 2.81  13 2.82  11 2.84   4 2.88  12 2.92
  15  0.318  0.117  0.828-  37 1.86  41 1.87  35 1.87  36 1.90  39 1.95  42 2.03   1 2.68  18 2.72
                            17 2.72  16 2.81  16 2.83   4 2.89   5 2.89  18 2.90  17 2.92
  16  0.310  0.611  0.836-  40 1.85  35 1.85  42 1.86  36 1.86  38 1.87  41 1.96   4 2.80  17 2.80
                            15 2.81  18 2.82  15 2.83  17 2.83  18 2.83   6 3.02   5 3.06   1 3.18
  17  0.804  0.123  0.824-  37 1.78  41 1.84  35 1.93  39 1.94  38 1.95  40 1.95  15 2.72  18 2.78
                            16 2.80  16 2.83   4 2.84  18 2.87   6 2.87  15 2.92   1 3.07
  18  0.825  0.641  0.833-  39 1.88  37 1.91  38 1.91  36 1.95  42 2.05  40 2.10  15 2.72  17 2.78
                             6 2.81  16 2.82  16 2.83  17 2.87  15 2.90   5 2.94
  19  0.018  0.043  0.234-   8 1.85  10 1.85   7 1.92   2 2.28   3 2.36
  20  0.015  0.535  0.241-   7 1.85   8 1.92   9 1.94   3 2.13   2 2.31
  21  0.540  0.040  0.235-  10 1.85   9 1.87   8 1.97   2 2.18
  22  0.538  0.556  0.235-  10 1.88   7 1.91   9 1.97   3 2.28
  23  0.352  0.206  0.108-   8 1.84   9 1.86   7 1.93   1 2.05
  24  0.341  0.721  0.104-   8 1.81   7 1.85  10 1.97   1 2.15
  25  0.857  0.219  0.102-   9 1.76  10 1.84   7 1.95   1 2.49
  26  0.862  0.707  0.099-   9 1.90  10 1.90   8 1.90
  27  0.316  0.175  0.573-  11 1.86  14 1.92  13 1.95   4 2.00   5 2.19
  28  0.349  0.686  0.579-  13 1.90   5 1.93  14 1.95  12 2.03   6 2.06   4 2.16
  29  0.826  0.125  0.572-  11 1.73  13 1.93  12 1.96   6 2.12   4 2.20
  30  0.826  0.681  0.566-  11 1.75   6 1.87  14 1.90  12 1.99   5 2.11
  31  0.152  0.310  0.437-  11 1.81  12 1.89  14 1.91   2 2.04
  32  0.150  0.836  0.436-  11 1.85   3 1.91  13 1.95  12 1.99
  33  0.648  0.334  0.427-  13 1.91  14 1.92   2 2.00   3 2.06  12 2.08
  34  0.660  0.834  0.429-  14 1.87  11 1.98  13 1.98   2 2.01   3 2.07
  35  0.140  0.269  0.894-  16 1.85  15 1.87  17 1.93
  36  0.163  0.791  0.903-  16 1.86  15 1.90  18 1.95   1 2.08
  37  0.652  0.282  0.889-  17 1.78  15 1.86  18 1.91   1 2.02
  38  0.638  0.789  0.901-  16 1.87  18 1.91  17 1.95   1 2.56
  39  0.981  0.957  0.757-  18 1.88  17 1.94  15 1.95   6 2.02   5 2.12   4 2.18
  40  0.018  0.470  0.756-  16 1.85   4 1.92  17 1.95  18 2.10   5 2.12
  41  0.480  0.952  0.761-  17 1.84  15 1.87  16 1.96   5 2.19   6 2.26
  42  0.475  0.479  0.756-  16 1.86   4 1.97   6 1.98  15 2.03  18 2.05
 

IMPORTANT INFORMATION: All symmetrisations will be switched off!
NOSYMM: (Re-)initialisation of all symmetry stuff for point group C_1.

 
 

Automatic generation of k-mesh.
 generate k-points for:    6    6    2
Space group operators:
 irot       det(A)        alpha          n_x          n_y          n_z        tau_x        tau_y        tau_z
    1     1.000000     0.000000     1.000000     0.000000     0.000000     0.000000     0.000000     0.000000
 
 Subroutine IBZKPT returns following result:
 ===========================================
 
 Found     36 irreducible k-points:
 
 Following reciprocal coordinates:
            Coordinates               Weight
  0.083333  0.083333  0.250000      2.000000
  0.250000  0.083333  0.250000      2.000000
  0.416667  0.083333  0.250000      2.000000
 -0.416667  0.083333  0.250000      2.000000
 -0.250000  0.083333  0.250000      2.000000
 -0.083333  0.083333  0.250000      2.000000
  0.083333  0.250000  0.250000      2.000000
  0.250000  0.250000  0.250000      2.000000
  0.416667  0.250000  0.250000      2.000000
 -0.416667  0.250000  0.250000      2.000000
 -0.250000  0.250000  0.250000      2.000000
 -0.083333  0.250000  0.250000      2.000000
  0.083333  0.416667  0.250000      2.000000
  0.250000  0.416667  0.250000      2.000000
  0.416667  0.416667  0.250000      2.000000
 -0.416667  0.416667  0.250000      2.000000
 -0.250000  0.416667  0.250000      2.000000
 -0.083333  0.416667  0.250000      2.000000
  0.083333 -0.416667  0.250000      2.000000
  0.250000 -0.416667  0.250000      2.000000
  0.416667 -0.416667  0.250000      2.000000
 -0.416667 -0.416667  0.250000      2.000000
 -0.250000 -0.416667  0.250000      2.000000
 -0.083333 -0.416667  0.250000      2.000000
  0.083333 -0.250000  0.250000      2.000000
  0.250000 -0.250000  0.250000      2.000000
  0.416667 -0.250000  0.250000      2.000000
 -0.416667 -0.250000  0.250000      2.000000
 -0.250000 -0.250000  0.250000      2.000000
 -0.083333 -0.250000  0.250000      2.000000
  0.083333 -0.083333  0.250000      2.000000
  0.250000 -0.083333  0.250000      2.000000
  0.416667 -0.083333  0.250000      2.000000
 -0.416667 -0.083333  0.250000      2.000000
 -0.250000 -0.083333  0.250000      2.000000
 -0.083333 -0.083333  0.250000      2.000000
 
 Following cartesian coordinates:
            Coordinates               Weight
  0.014768  0.025727  0.016837      2.000000
  0.044304  0.042933  0.016261      2.000000
  0.073840  0.060140  0.015686      2.000000
 -0.073840 -0.025892  0.018564      2.000000
 -0.044304 -0.008686  0.017988      2.000000
 -0.014768  0.008521  0.017413      2.000000
  0.014768  0.059974  0.016290      2.000000
  0.044304  0.077181  0.015714      2.000000
  0.073840  0.094387  0.015138      2.000000
 -0.073840  0.008355  0.018016      2.000000
 -0.044304  0.025562  0.017441      2.000000
 -0.014768  0.042768  0.016865      2.000000
  0.014768  0.094222  0.015742      2.000000
  0.044304  0.111428  0.015167      2.000000
  0.073840  0.128634  0.014591      2.000000
 -0.073840  0.042603  0.017469      2.000000
 -0.044304  0.059809  0.016893      2.000000
 -0.014768  0.077015  0.016318      2.000000
  0.014768 -0.077015  0.018479      2.000000
  0.044304 -0.059809  0.017904      2.000000
  0.073840 -0.042603  0.017328      2.000000
 -0.073840 -0.128634  0.020206      2.000000
 -0.044304 -0.111428  0.019630      2.000000
 -0.014768 -0.094222  0.019055      2.000000
  0.014768 -0.042768  0.017932      2.000000
  0.044304 -0.025562  0.017356      2.000000
  0.073840 -0.008355  0.016781      2.000000
 -0.073840 -0.094387  0.019659      2.000000
 -0.044304 -0.077181  0.019083      2.000000
 -0.014768 -0.059974  0.018507      2.000000
  0.014768 -0.008521  0.017384      2.000000
  0.044304  0.008686  0.016809      2.000000
  0.073840  0.025892  0.016233      2.000000
 -0.073840 -0.060140  0.019111      2.000000
 -0.044304 -0.042933  0.018536      2.000000
 -0.014768 -0.025727  0.017960      2.000000
 


--------------------------------------------------------------------------------------------------------




 Dimension of arrays:
   k-points           NKPTS =     36   k-points in BZ     NKDIM =     36   number of bands    NBANDS=    160
   number of dos      NEDOS =    301   number of ions     NIONS =     42
   non local maximal  LDIM  =      6   non local SUM 2l+1 LMDIM =     18
   total plane-waves  NPLWV = 116640
   max r-space proj   IRMAX =   2812   max aug-charges    IRDMAX=  11856
   dimension x,y,z NGX =    36 NGY =   36 NGZ =   90
   dimension x,y,z NGXF=    72 NGYF=   72 NGZF=  180
   support grid    NGXF=    72 NGYF=   72 NGZF=  180
   ions per type =               6  12  24
   NGX,Y,Z   is equivalent  to a cutoff of  10.61, 10.63, 10.41 a.u.
   NGXF,Y,Z  is equivalent  to a cutoff of  21.21, 21.25, 20.82 a.u.

 SYSTEM =  LiCoO2                                  
 POSCAR =  Li6 Co12 O24                            

 Startparameter for this run:
   NWRITE =      2    write-flag & timer
   PREC   = normal    normal or accurate (medium, high low for compatibility)
   ISTART =      0    job   : 0-new  1-cont  2-samecut
   ICHARG =      2    charge: 1-file 2-atom 10-const
   ISPIN  =      2    spin polarized calculation?
   LNONCOLLINEAR =      F non collinear calculations
   LSORBIT =      F    spin-orbit coupling
   INIWAV =      1    electr: 0-lowe 1-rand  2-diag
   LASPH  =      F    aspherical Exc in radial PAW
   METAGGA=      F    non-selfconsistent MetaGGA calc.

 Electronic Relaxation 1
   ENCUT  =  600.0 eV  44.10 Ry    6.64 a.u.  11.27 11.25 28.70*2*pi/ulx,y,z
   ENINI  =  600.0     initial cutoff
   ENAUG  =  605.4 eV  augmentation charge cutoff
   NELM   =    600;   NELMIN=  2; NELMDL= -5     # of ELM steps 
   EDIFF  = 0.1E-05   stopping-criterion for ELM
   LREAL  =      T    real-space projection
   NLSPLINE    = F    spline interpolate recip. space projectors
   LCOMPAT=      F    compatible to vasp.4.4
   GGA_COMPAT  = T    GGA compatible to vasp.4.4-vasp.4.6
   LMAXPAW     = -100 max onsite density
   LMAXMIX     =    2 max onsite mixed and CHGCAR
   VOSKOWN=      0    Vosko Wilk Nusair interpolation
   ROPT   =   -0.00050  -0.00050  -0.00050
 Ionic relaxation
   EDIFFG = 0.1E-04   stopping-criterion for IOM
   NSW    =      0    number of steps for IOM
   NBLOCK =      1;   KBLOCK =      1    inner block; outer block 
   IBRION =     -1    ionic relax: 0-MD 1-quasi-New 2-CG
   NFREE  =      0    steps in history (QN), initial steepest desc. (CG)
   ISIF   =      2    stress and relaxation
   IWAVPR =     10    prediction:  0-non 1-charg 2-wave 3-comb
   ISYM   =      0    0-nonsym 1-usesym 2-fastsym
   LCORR  =      T    Harris-Foulkes like correction to forces

   POTIM  = 0.5000    time-step for ionic-motion
   TEIN   =    0.0    initial temperature
   TEBEG  =    0.0;   TEEND  =   0.0 temperature during run
   SMASS  =  -3.00    Nose mass-parameter (am)
   estimated Nose-frequenzy (Omega)   =  0.10E-29 period in steps =****** mass=  -0.728E-27a.u.
   SCALEE = 1.0000    scale energy and forces
   NPACO  =    256;   APACO  = 16.0  distance and # of slots for P.C.
   PSTRESS=    0.0 pullay stress

  Mass of Ions in am
   POMASS =   7.01 58.93 16.00
  Ionic Valenz
   ZVAL   =   1.00  9.00  6.00
  Atomic Wigner-Seitz radii
   RWIGS  =  -1.00 -1.00 -1.00
  virtual crystal weights 
   VCA    =   1.00  1.00  1.00
   NELECT =     258.0000    total number of electrons
   NUPDOWN=       6.0000    fix difference up-down

 DOS related values:
   EMIN   =  10.00;   EMAX   =-10.00  energy-range for DOS
   EFERMI =   0.00
   ISMEAR =     0;   SIGMA  =   0.05  broadening in eV -4-tet -1-fermi 0-gaus

 Electronic relaxation 2 (details)
   IALGO  =     58    algorithm
   LDIAG  =      T    sub-space diagonalisation (order eigenvalues)
   LSUBROT=      F    optimize rotation matrix (better conditioning)
   TURBO    =      0    0=normal 1=particle mesh
   IRESTART =      0    0=no restart 2=restart with 2 vectors
   NREBOOT  =      0    no. of reboots
   NMIN     =      0    reboot dimension
   EREF     =   0.00    reference energy to select bands
   IMIX   =      4    mixing-type and parameters
     AMIX     =   0.40;   BMIX     =  1.00
     AMIX_MAG =   1.60;   BMIX_MAG =  1.00
     AMIN     =   0.10
     WC   =   100.;   INIMIX=   1;  MIXPRE=   1;  MAXMIX= -45

 Intra band minimization:
   WEIMIN = 0.0000     energy-eigenvalue tresh-hold
   EBREAK =  0.16E-08  absolut break condition
   DEPER  =   0.30     relativ break condition  

   TIME   =   0.40     timestep for ELM

  volume/ion in A,a.u.               =       9.40        63.40
  Fermi-wavevector in a.u.,A,eV,Ry     =   1.420905  2.685122 27.469777  2.018972
  Thomas-Fermi vector in A             =   2.541771
 
 Write flags
   LWAVE        =      F    write WAVECAR
   LDOWNSAMPLE  =      F    k-point downsampling of WAVECAR
   LCHARG       =      F    write CHGCAR
   LVTOT        =      F    write LOCPOT, total local potential
   LVHAR        =      F    write LOCPOT, Hartree potential only
   LELF         =      F    write electronic localiz. function (ELF)
   LORBIT       =     11    0 simple, 1 ext, 2 COOP (PROOUT), +10 PAW based schemes


 Dipole corrections
   LMONO  =      F    monopole corrections only (constant potential shift)
   LDIPOL =      F    correct potential (dipole corrections)
   IDIPOL =      0    1-x, 2-y, 3-z, 4-all directions 
   EPSILON=  1.0000000 bulk dielectric constant

 LDA+U is selected, type is set to LDAUTYPE =  2
   angular momentum for each species LDAUL =    -1    2   -1
   U (eV)           for each species LDAUU =   0.0  5.1  0.0
   J (eV)           for each species LDAUJ =   0.0  0.0  0.0
 Exchange correlation treatment:
   GGA     =    --    GGA type
   LEXCH   =     8    internal setting for exchange type
   VOSKOWN=      0    Vosko Wilk Nusair interpolation
   LHFCALC =     F    Hartree Fock is set to
   LHFONE  =     F    Hartree Fock one center treatment
   AEXX    =    0.0000 exact exchange contribution

 Linear response parameters
   LEPSILON=     F    determine dielectric tensor
   LRPA    =     F    only Hartree local field effects (RPA)
   LNABLA  =     F    use nabla operator in PAW spheres
   LVEL    =     F    velocity operator in full k-point grid
   LINTERFAST=   F  fast interpolation
   KINTER  =     0    interpolate to denser k-point grid
   CSHIFT  =0.1000    complex shift for real part using Kramers Kronig
   OMEGAMAX=  -1.0    maximum frequency
   DEG_THRESHOLD= 0.2000000E-02 threshold for treating states as degnerate
   RTIME   =   -0.100 relaxation time in fs
  (WPLASMAI=    0.000 imaginary part of plasma frequency in eV, 0.658/RTIME)
   DFIELD  = 0.0000000 0.0000000 0.0000000 field for delta impulse in time
 
 Orbital magnetization related:
   ORBITALMAG=     F  switch on orbital magnetization
   LCHIMAG   =     F  perturbation theory with respect to B field
   DQ        =  0.001000  dq finite difference perturbation B field
   LLRAUG    =     F  two centre corrections for induced B field



--------------------------------------------------------------------------------------------------------


 Static calculation
 charge density and potential will be updated during run
 spin polarized calculation
 Conjugate gradient for all bands (Freysoldt, et al. PRB 79, 241103 (2009))
 preconditioned conjugated gradient                                        
 perform sub-space diagonalisation
    before iterative eigenvector-optimisation
 modified Broyden-mixing scheme, WC =      100.0
 initial mixing is a Kerker type mixing with AMIX =  0.4000 and BMIX =      1.0000
 Hartree-type preconditioning will be used
 using additional bands           31
 real space projection scheme for non local part
 use partial core corrections
 no Harris-corrections to forces 
 use gradient corrections 
 use of overlap-Matrix (Vanderbilt PP)
 Gauss-broadening in eV      SIGMA  =   0.05


--------------------------------------------------------------------------------------------------------


  energy-cutoff  :      600.00
  volume of cell :      394.59
      direct lattice vectors                 reciprocal lattice vectors
     5.642866611  0.000000000  0.000000000     0.177214893  0.103238293 -0.003453271
    -2.835055828  4.866548061  0.000000000     0.000000000  0.205484460 -0.003284573
     0.146196410  0.229682580 14.369050026     0.000000000  0.000000000  0.069594023

  length of vectors
     5.642866611  5.632124962 14.371629209     0.205122374  0.205510709  0.069594023


 
 k-points in units of 2pi/SCALE and weight: read from INCAR                         
   0.01476791  0.02572690  0.01683702       0.028
   0.04430372  0.04293328  0.01626147       0.028
   0.07383954  0.06013966  0.01568593       0.028
  -0.07383954 -0.02589225  0.01856365       0.028
  -0.04430372 -0.00868587  0.01798811       0.028
  -0.01476791  0.00852051  0.01741256       0.028
   0.01476791  0.05997431  0.01628959       0.028
   0.04430372  0.07718069  0.01571404       0.028
   0.07383954  0.09438707  0.01513850       0.028
  -0.07383954  0.00835516  0.01801623       0.028
  -0.04430372  0.02556154  0.01744068       0.028
  -0.01476791  0.04276792  0.01686513       0.028
   0.01476791  0.09422172  0.01574216       0.028
   0.04430372  0.11142810  0.01516662       0.028
   0.07383954  0.12863448  0.01459107       0.028
  -0.07383954  0.04260257  0.01746880       0.028
  -0.04430372  0.05980895  0.01689325       0.028
  -0.01476791  0.07701533  0.01631771       0.028
   0.01476791 -0.07701533  0.01847931       0.028
   0.04430372 -0.05980895  0.01790376       0.028
   0.07383954 -0.04260257  0.01732822       0.028
  -0.07383954 -0.12863448  0.02020594       0.028
  -0.04430372 -0.11142810  0.01963040       0.028
  -0.01476791 -0.09422172  0.01905485       0.028
   0.01476791 -0.04276792  0.01793188       0.028
   0.04430372 -0.02556154  0.01735633       0.028
   0.07383954 -0.00835516  0.01678079       0.028
  -0.07383954 -0.09438707  0.01965851       0.028
  -0.04430372 -0.07718069  0.01908297       0.028
  -0.01476791 -0.05997431  0.01850742       0.028
   0.01476791 -0.00852051  0.01738445       0.028
   0.04430372  0.00868587  0.01680890       0.028
   0.07383954  0.02589225  0.01623336       0.028
  -0.07383954 -0.06013966  0.01911108       0.028
  -0.04430372 -0.04293328  0.01853554       0.028
  -0.01476791 -0.02572690  0.01795999       0.028
 
 k-points in reciprocal lattice and weights: read from INCAR                         
   0.08333333  0.08333333  0.25000000       0.028
   0.25000000  0.08333333  0.25000000       0.028
   0.41666667  0.08333333  0.25000000       0.028
  -0.41666667  0.08333333  0.25000000       0.028
  -0.25000000  0.08333333  0.25000000       0.028
  -0.08333333  0.08333333  0.25000000       0.028
   0.08333333  0.25000000  0.25000000       0.028
   0.25000000  0.25000000  0.25000000       0.028
   0.41666667  0.25000000  0.25000000       0.028
  -0.41666667  0.25000000  0.25000000       0.028
  -0.25000000  0.25000000  0.25000000       0.028
  -0.08333333  0.25000000  0.25000000       0.028
   0.08333333  0.41666667  0.25000000       0.028
   0.25000000  0.41666667  0.25000000       0.028
   0.41666667  0.41666667  0.25000000       0.028
  -0.41666667  0.41666667  0.25000000       0.028
  -0.25000000  0.41666667  0.25000000       0.028
  -0.08333333  0.41666667  0.25000000       0.028
   0.08333333 -0.41666667  0.25000000       0.028
   0.25000000 -0.41666667  0.25000000       0.028
   0.41666667 -0.41666667  0.25000000       0.028
  -0.41666667 -0.41666667  0.25000000       0.028
  -0.25000000 -0.41666667  0.25000000       0.028
  -0.08333333 -0.41666667  0.25000000       0.028
   0.08333333 -0.25000000  0.25000000       0.028
   0.25000000 -0.25000000  0.25000000       0.028
   0.41666667 -0.25000000  0.25000000       0.028
  -0.41666667 -0.25000000  0.25000000       0.028
  -0.25000000 -0.25000000  0.25000000       0.028
  -0.08333333 -0.25000000  0.25000000       0.028
   0.08333333 -0.08333333  0.25000000       0.028
   0.25000000 -0.08333333  0.25000000       0.028
   0.41666667 -0.08333333  0.25000000       0.028
  -0.41666667 -0.08333333  0.25000000       0.028
  -0.25000000 -0.08333333  0.25000000       0.028
  -0.08333333 -0.08333333  0.25000000       0.028
 
 position of ions in fractional coordinates (direct lattice) 
   0.45189349  0.03792613  0.99959986
   0.83000716  0.17697750  0.34878786
   0.86246060  0.68768410  0.34688029
   0.16808385  0.32466769  0.66852715
   0.15128290  0.80104047  0.65942284
   0.67582821  0.78137215  0.66441626
   0.19524657  0.39606644  0.17216657
   0.18348937  0.87615896  0.17232664
   0.69163962  0.36475440  0.16429269
   0.70080880  0.88513538  0.16455716
   0.99328716  0.99619271  0.50565556
   0.99643571  0.48259381  0.50676072
   0.49412247  0.00925865  0.50296505
   0.49296716  0.50805580  0.49904553
   0.31813410  0.11688351  0.82801580
   0.31016274  0.61147249  0.83628351
   0.80390795  0.12273957  0.82449434
   0.82467491  0.64105753  0.83342323
   0.01824576  0.04304060  0.23389159
   0.01499229  0.53508459  0.24087605
   0.53995009  0.04036354  0.23527652
   0.53788396  0.55614889  0.23499674
   0.35170952  0.20556310  0.10809413
   0.34095553  0.72141847  0.10393589
   0.85655609  0.21881186  0.10240899
   0.86154897  0.70729361  0.09918749
   0.31646202  0.17506495  0.57269480
   0.34911281  0.68630517  0.57885453
   0.82559799  0.12469316  0.57185342
   0.82583893  0.68063643  0.56604226
   0.15193719  0.31016844  0.43656054
   0.15023144  0.83635584  0.43557507
   0.64777939  0.33415553  0.42652784
   0.66040557  0.83363236  0.42862749
   0.13961339  0.26850528  0.89378213
   0.16331034  0.79135264  0.90282936
   0.65168397  0.28154137  0.88859737
   0.63754322  0.78940006  0.90140267
   0.98137854  0.95714500  0.75673060
   0.01785174  0.47017015  0.75606252
   0.48027928  0.95203940  0.76098280
   0.47531737  0.47857536  0.75634785
 
 position of ions in cartesian coordinates  (Angst):
   2.58858991  0.41416001 14.36330032
   4.23287010  0.94138002  5.01175022
   2.96783996  3.42632008  4.98434019
   0.12576000  1.73355997  9.60610008
  -1.32091999  4.04975986  9.47527981
   1.69551003  3.95518994  9.54703045
   0.00405000  1.96702003  2.47387004
  -1.42335999  4.30345011  2.47617006
   2.89275002  1.81282997  2.36072993
   1.46922004  4.34534979  2.36453009
   2.85465002  4.96415997  7.26578999
   4.32866001  2.46496010  7.28167009
   2.83555007  0.16057999  7.22712994
   1.41434002  2.58710003  7.17081022
   1.58486998  0.75900000 11.89780045
   0.13891000  3.16784000 12.01659966
   4.30890989  0.78669000 11.84720039
   2.95794010  3.31116009 11.97550011
   0.01513000  0.26317999  3.36080003
  -1.39717996  2.65933990  3.46115994
   2.96683002  0.25047001  3.38070011
   1.49284995  2.76049995  3.37667990
   1.41767001  1.02521002  1.55321002
  -0.10610000  3.53468990  1.49346006
   4.22805977  1.08837998  1.47151995
   2.87088990  3.46485996  1.42523003
   1.37316000  0.98350000  8.22908020
   0.10891000  3.47288990  8.31758976
   4.38883018  0.73817003  8.21699047
   2.81321001  3.44235992  8.13348961
   0.04184000  1.60971999  6.27296019
  -1.45969999  4.17020988  6.25880003
   2.77033997  1.72414994  6.12879992
   1.42585003  4.15536022  6.15896988
   0.15726000  1.51198006 12.84280014
  -1.19000006  4.05851984 12.97280025
   3.00908995  1.57422996 12.76830006
   1.49135995  4.04868984 12.95230007
   2.93485999  4.83179998 10.87349987
  -1.12169003  2.46176004 10.86390018
   0.12232000  4.80792999 10.93459988
   1.43594003  2.50272989 10.86800003
 


--------------------------------------------------------------------------------------------------------


 k-point  1 :   0.0833 0.0833 0.2500  plane waves:   13163
 k-point  2 :   0.2500 0.0833 0.2500  plane waves:   13165
 k-point  3 :   0.4167 0.0833 0.2500  plane waves:   13164
 k-point  4 :  -0.4167 0.0833 0.2500  plane waves:   13155
 k-point  5 :  -0.2500 0.0833 0.2500  plane waves:   13151
 k-point  6 :  -0.0833 0.0833 0.2500  plane waves:   13185
 k-point  7 :   0.0833 0.2500 0.2500  plane waves:   13177
 k-point  8 :   0.2500 0.2500 0.2500  plane waves:   13157
 k-point  9 :   0.4167 0.2500 0.2500  plane waves:   13169
 k-point 10 :  -0.4167 0.2500 0.2500  plane waves:   13155
 k-point 11 :  -0.2500 0.2500 0.2500  plane waves:   13152
 k-point 12 :  -0.0833 0.2500 0.2500  plane waves:   13168
 k-point 13 :   0.0833 0.4167 0.2500  plane waves:   13175
 k-point 14 :   0.2500 0.4167 0.2500  plane waves:   13172
 k-point 15 :   0.4167 0.4167 0.2500  plane waves:   13174
 k-point 16 :  -0.4167 0.4167 0.2500  plane waves:   13154
 k-point 17 :  -0.2500 0.4167 0.2500  plane waves:   13163
 k-point 18 :  -0.0833 0.4167 0.2500  plane waves:   13170
 k-point 19 :   0.0833-0.4167 0.2500  plane waves:   13165
 k-point 20 :   0.2500-0.4167 0.2500  plane waves:   13156
 k-point 21 :   0.4167-0.4167 0.2500  plane waves:   13152
 k-point 22 :  -0.4167-0.4167 0.2500  plane waves:   13173
 k-point 23 :  -0.2500-0.4167 0.2500  plane waves:   13179
 k-point 24 :  -0.0833-0.4167 0.2500  plane waves:   13189
 k-point 25 :   0.0833-0.2500 0.2500  plane waves:   13153
 k-point 26 :   0.2500-0.2500 0.2500  plane waves:   13149
 k-point 27 :   0.4167-0.2500 0.2500  plane waves:   13159
 k-point 28 :  -0.4167-0.2500 0.2500  plane waves:   13170
 k-point 29 :  -0.2500-0.2500 0.2500  plane waves:   13171
 k-point 30 :  -0.0833-0.2500 0.2500  plane waves:   13161
 k-point 31 :   0.0833-0.0833 0.2500  plane waves:   13186
 k-point 32 :   0.2500-0.0833 0.2500  plane waves:   13165
 k-point 33 :   0.4167-0.0833 0.2500  plane waves:   13172
 k-point 34 :  -0.4167-0.0833 0.2500  plane waves:   13194
 k-point 35 :  -0.2500-0.0833 0.2500  plane waves:   13156
 k-point 36 :  -0.0833-0.0833 0.2500  plane waves:   13167

 maximum and minimum number of plane-waves per node :      3327     3268

 maximum number of plane-waves:     13194
 maximum index in each direction: 
   IXMAX=   11   IYMAX=   11   IZMAX=   28
   IXMIN=  -11   IYMIN=  -11   IZMIN=  -28


 real space projection operators:
  total allocation   :       7503.48 KBytes
  max/ min on nodes  :       1881.07       1872.92


 parallel 3D FFT for wavefunctions:
    minimum data exchange during FFTs selected (reduces bandwidth)
 parallel 3D FFT for charge:
    minimum data exchange during FFTs selected (reduces bandwidth)


 total amount of memory used by VASP MPI-rank0   159293. kBytes
=======================================================================

   base      :      30000. kBytes
   nonlr-proj:       4287. kBytes
   fftplans  :       1688. kBytes
   grid      :       4644. kBytes
   one-center:        342. kBytes
   wavefun   :     118332. kBytes
 
     INWAV:  cpu time    0.0000: real time    0.0002
 Broyden mixing: mesh for mixing (old mesh)
   NGX = 23   NGY = 23   NGZ = 57
  (NGX  = 72   NGY  = 72   NGZ  =180)
  gives a total of  30153 points

 initial charge density was supplied:
 charge density of overlapping atoms calculated
 number of electron     258.0000000 magnetization       6.0000000
 keeping initial charge density in first step


--------------------------------------------------------------------------------------------------------


 Maximum index for non-local projection operator          685
 Maximum index for augmentation-charges          973 (set IRDMAX)


--------------------------------------------------------------------------------------------------------


 First call to EWALD:  gamma=   0.242
 Maximum number of real-space cells 4x 4x 2
 Maximum number of reciprocal cells 2x 2x 5

    FEWALD:  cpu time    0.0035: real time    0.0035


--------------------------------------- Iteration      1(   1)  ---------------------------------------


    POTLOK:  cpu time    0.0556: real time    0.0654
    SETDIJ:  cpu time    0.0165: real time    0.0172
    TRIAL :  cpu time   23.7235: real time   23.8138
    CORREC:  cpu time    0.0036: real time    0.0036
    --------------------------------------------
      LOOP:  cpu time   23.9862: real time   24.0881

 eigenvalue-minimisations  : 23040
 total energy-change (2. order) : 0.3490243E+04  (-0.1395316E+05)
 number of electron     258.0000000 magnetization       6.0000000
 augmentation part      258.0000000 magnetization       6.0000000

 Free energy of the ion-electron system (eV)
  ---------------------------------------------------
  alpha Z        PSCENC =       742.96071412
  Ewald energy   TEWEN  =    -13735.57669179
  -Hartree energ DENC   =     -7258.03064573
  -exchange      EXHF   =         0.00000000
  -V(xc)+E(xc)   XCENC  =       843.13197390
  PAW double counting   =     17015.18481625   -17491.61297812
  entropy T*S    EENTRO =        -0.00749928
  eigenvalues    EBANDS =      3205.32206524
  atomic energy  EATOM  =     20168.87094289
  ---------------------------------------------------
  free energy    TOTEN  =      3490.24269748 eV

  energy without entropy =     3490.25019677  energy(sigma->0) =     3490.24644712


--------------------------------------------------------------------------------------------------------




--------------------------------------- Iteration      1(   2)  ---------------------------------------


    TRIAL :  cpu time   25.1719: real time   25.2412
    CORREC:  cpu time    0.0038: real time    0.0038
    --------------------------------------------
      LOOP:  cpu time   25.1796: real time   25.2489

 eigenvalue-minimisations  : 25024
 total energy-change (2. order) :-0.3086971E+04  (-0.2840533E+04)
 number of electron     258.0000000 magnetization       6.0000000
 augmentation part      258.0000000 magnetization       6.0000000

 Free energy of the ion-electron system (eV)
  ---------------------------------------------------
  alpha Z        PSCENC =       742.96071412
  Ewald energy   TEWEN  =    -13735.57669179
  -Hartree energ DENC   =     -7258.03064573
  -exchange      EXHF   =         0.00000000
  -V(xc)+E(xc)   XCENC  =       843.13197390
  PAW double counting   =     17015.18481625   -17491.61297812
  entropy T*S    EENTRO =        -0.02210224
  eigenvalues    EBANDS =       118.36537534
  atomic energy  EATOM  =     20168.87094289
  ---------------------------------------------------
  free energy    TOTEN  =       403.27140463 eV

  energy without entropy =      403.29350687  energy(sigma->0) =      403.28245575


--------------------------------------------------------------------------------------------------------




--------------------------------------- Iteration      1(   3)  ---------------------------------------


    TRIAL :  cpu time   25.7293: real time   25.7993
    CORREC:  cpu time    0.0040: real time    0.0040
    --------------------------------------------
      LOOP:  cpu time   25.7370: real time   25.8069

 eigenvalue-minimisations  : 25968
 total energy-change (2. order) :-0.6256169E+03  (-0.5731526E+03)
 number of electron     258.0000000 magnetization       6.0000000
 augmentation part      258.0000000 magnetization       6.0000000

 Free energy of the ion-electron system (eV)
  ---------------------------------------------------
  alpha Z        PSCENC =       742.96071412
  Ewald energy   TEWEN  =    -13735.57669179
  -Hartree energ DENC   =     -7258.03064573
  -exchange      EXHF   =         0.00000000
  -V(xc)+E(xc)   XCENC  =       843.13197390
  PAW double counting   =     17015.18481625   -17491.61297812
  entropy T*S    EENTRO =        -0.04097900
  eigenvalues    EBANDS =      -507.23261680
  atomic energy  EATOM  =     20168.87094289
  ---------------------------------------------------
  free energy    TOTEN  =      -222.34546427 eV

  energy without entropy =     -222.30448527  energy(sigma->0) =     -222.32497477


--------------------------------------------------------------------------------------------------------




--------------------------------------- Iteration      1(   4)  ---------------------------------------


    TRIAL :  cpu time   25.3949: real time   25.4735
    CORREC:  cpu time    0.0040: real time    0.0040
    --------------------------------------------
      LOOP:  cpu time   25.4026: real time   25.4812

 eigenvalue-minimisations  : 25360
 total energy-change (2. order) :-0.4901447E+02  (-0.4800037E+02)
 number of electron     258.0000000 magnetization       6.0000000
 augmentation part      258.0000000 magnetization       6.0000000

 Free energy of the ion-electron system (eV)
  ---------------------------------------------------
  alpha Z        PSCENC =       742.96071412
  Ewald energy   TEWEN  =    -13735.57669179
  -Hartree energ DENC   =     -7258.03064573
  -exchange      EXHF   =         0.00000000
  -V(xc)+E(xc)   XCENC  =       843.13197390
  PAW double counting   =     17015.18481625   -17491.61297812
  entropy T*S    EENTRO =        -0.04711392
  eigenvalues    EBANDS =      -556.24094713
  atomic energy  EATOM  =     20168.87094289
  ---------------------------------------------------
  free energy    TOTEN  =      -271.35992952 eV

  energy without entropy =     -271.31281560  energy(sigma->0) =     -271.33637256


--------------------------------------------------------------------------------------------------------




--------------------------------------- Iteration      1(   5)  ---------------------------------------


    TRIAL :  cpu time   27.8509: real time   27.9356
    CORREC:  cpu time    0.0044: real time    0.0044
    CHARGE:  cpu time    0.4745: real time    0.4753
    --------------------------------------------
      LOOP:  cpu time   28.3338: real time   28.4194

 eigenvalue-minimisations  : 28512
 total energy-change (2. order) :-0.1705146E+01  (-0.1701830E+01)
 number of electron     258.0000012 magnetization       6.0000002
 augmentation part       68.0720049 magnetization       4.3019041

 Free energy of the ion-electron system (eV)
  ---------------------------------------------------
  alpha Z        PSCENC =       742.96071412
  Ewald energy   TEWEN  =    -13735.57669179
  -Hartree energ DENC   =     -7258.03064573
  -exchange      EXHF   =         0.00000000
  -V(xc)+E(xc)   XCENC  =       843.13197390
  PAW double counting   =     17015.18481625   -17491.61297812
  entropy T*S    EENTRO =        -0.04746614
  eigenvalues    EBANDS =      -557.94574102
  atomic energy  EATOM  =     20168.87094289
  ---------------------------------------------------
  free energy    TOTEN  =      -273.06507563 eV

  energy without entropy =     -273.01760949  energy(sigma->0) =     -273.04134256


--------------------------------------------------------------------------------------------------------




--------------------------------------- Iteration      1(   6)  ---------------------------------------


    POTLOK:  cpu time    0.0464: real time    0.0465
    SETDIJ:  cpu time    0.0120: real time    0.0120
    TRIAL :  cpu time   13.3374: real time   13.3741
    CORREC:  cpu time    4.1338: real time    4.1432
    CHARGE:  cpu time    0.4829: real time    0.4838
    --------------------------------------------
      LOOP:  cpu time   18.0165: real time   18.0635

 eigenvalue-minimisations  :     0
 total energy-change (2. order) : 0.3765090E+03  (-0.2070120E+03)
 number of electron     258.0000017 magnetization       5.9999998
 augmentation part       70.1867798 magnetization       4.4118090

 Free energy of the ion-electron system (eV)
  ---------------------------------------------------
  alpha Z        PSCENC =       742.96071412
  Ewald energy   TEWEN  =    -13735.57669179
  -Hartree energ DENC   =     -7003.76597293
  -exchange      EXHF   =         0.00000000
  -V(xc)+E(xc)   XCENC  =       877.55972856
  PAW double counting   =     23798.61604304   -24007.66577155
  entropy T*S    EENTRO =        -0.03649827
  eigenvalues    EBANDS =      -737.50763375
  atomic energy  EATOM  =     20168.87094289
  ---------------------------------------------------
  free energy    TOTEN  =       103.44389245 eV

  energy without entropy =      103.48039071  energy(sigma->0) =      103.46214158


--------------------------------------------------------------------------------------------------------




--------------------------------------- Iteration      1(   7)  ---------------------------------------


    POTLOK:  cpu time    0.0441: real time    0.0442
    SETDIJ:  cpu time    0.0121: real time    0.0121
    TRIAL :  cpu time   13.2720: real time   13.3130
    CORREC:  cpu time    4.1473: real time    4.1576
    CHARGE:  cpu time    0.4755: real time    0.4763
    --------------------------------------------
      LOOP:  cpu time   17.9550: real time   18.0072

 eigenvalue-minimisations  :     0
 total energy-change (2. order) :-0.9520079E+02  (-0.3507859E+02)
 number of electron     258.0000017 magnetization       5.9999998
 augmentation part       70.8722617 magnetization       4.3469251

 Free energy of the ion-electron system (eV)
  ---------------------------------------------------
  alpha Z        PSCENC =       742.96071412
  Ewald energy   TEWEN  =    -13735.57669179
  -Hartree energ DENC   =     -6924.40369764
  -exchange      EXHF   =         0.00000000
  -V(xc)+E(xc)   XCENC  =       868.98823756
  PAW double counting   =     23743.42759039   -24036.04119998
  entropy T*S    EENTRO =        -0.04145833
  eigenvalues    EBANDS =      -819.94628990
  atomic energy  EATOM  =     20168.87094289
  ---------------------------------------------------
  free energy    TOTEN  =         8.24310739 eV

  energy without entropy =        8.28456572  energy(sigma->0) =        8.26383656


--------------------------------------------------------------------------------------------------------




--------------------------------------- Iteration      1(   8)  ---------------------------------------


    POTLOK:  cpu time    0.0438: real time    0.0439
    SETDIJ:  cpu time    0.0120: real time    0.0120
    TRIAL :  cpu time   13.3185: real time   13.3548
    CORREC:  cpu time    4.3297: real time    4.3392
    CHARGE:  cpu time    0.4782: real time    0.4792
    --------------------------------------------
      LOOP:  cpu time   18.1863: real time   18.2332

 eigenvalue-minimisations  :     0
 total energy-change (2. order) :-0.8471333E+02  (-0.3889670E+02)
 number of electron     258.0000016 magnetization       6.0000000
 augmentation part       71.5155505 magnetization       4.3350324

 Free energy of the ion-electron system (eV)
  ---------------------------------------------------
  alpha Z        PSCENC =       742.96071412
  Ewald energy   TEWEN  =    -13735.57669179
  -Hartree energ DENC   =     -6905.72187125
  -exchange      EXHF   =         0.00000000
  -V(xc)+E(xc)   XCENC  =       864.60136508
  PAW double counting   =     23621.70988895   -23939.00950530
  entropy T*S    EENTRO =        -0.04499630
  eigenvalues    EBANDS =      -894.26361035
  atomic energy  EATOM  =     20168.87094289
  ---------------------------------------------------
  free energy    TOTEN  =       -76.47022598 eV

  energy without entropy =      -76.42522968  energy(sigma->0) =      -76.44772783


--------------------------------------------------------------------------------------------------------




--------------------------------------- Iteration      1(   9)  ---------------------------------------


    POTLOK:  cpu time    0.0442: real time    0.0442
    SETDIJ:  cpu time    0.0120: real time    0.0120
    TRIAL :  cpu time   13.2709: real time   13.3068
    CORREC:  cpu time    4.1540: real time    4.1636
    CHARGE:  cpu time    0.4746: real time    0.4753
    --------------------------------------------
      LOOP:  cpu time   17.9596: real time   18.0059

 eigenvalue-minimisations  :     0
 total energy-change (2. order) :-0.3635849E+02  (-0.1296241E+03)
 number of electron     258.0000015 magnetization       6.0000001
 augmentation part       73.2529459 magnetization       4.3864067

 Free energy of the ion-electron system (eV)
  ---------------------------------------------------
  alpha Z        PSCENC =       742.96071412
  Ewald energy   TEWEN  =    -13735.57669179
  -Hartree energ DENC   =     -6958.18399538
  -exchange      EXHF   =         0.00000000
  -V(xc)+E(xc)   XCENC  =       862.65628345
  PAW double counting   =     23647.97453828   -23989.49578262
  entropy T*S    EENTRO =        -0.03107844
  eigenvalues    EBANDS =      -851.98973194
  atomic energy  EATOM  =     20168.87094289
  ---------------------------------------------------
  free energy    TOTEN  =      -112.82871929 eV

  energy without entropy =     -112.79764085  energy(sigma->0) =     -112.81318007


--------------------------------------------------------------------------------------------------------




--------------------------------------- Iteration      1(  10)  ---------------------------------------


    POTLOK:  cpu time    0.0439: real time    0.0440
    SETDIJ:  cpu time    0.0121: real time    0.0121
    TRIAL :  cpu time   13.3563: real time   13.3914
    CORREC:  cpu time    4.1543: real time    4.1645
    CHARGE:  cpu time    0.4717: real time    0.4724
    --------------------------------------------
      LOOP:  cpu time   18.0425: real time   18.0885

 eigenvalue-minimisations  :     0
 total energy-change (2. order) : 0.8844703E+01  (-0.2494448E+02)
 number of electron     258.0000014 magnetization       6.0000002
 augmentation part       73.8633306 magnetization       4.3307165

 Free energy of the ion-electron system (eV)
  ---------------------------------------------------
  alpha Z        PSCENC =       742.96071412
  Ewald energy   TEWEN  =    -13735.57669179
  -Hartree energ DENC   =     -7014.73803711
  -exchange      EXHF   =         0.00000000
  -V(xc)+E(xc)   XCENC  =       858.41949313
  PAW double counting   =     23950.88784051   -24369.05792481
  entropy T*S    EENTRO =        -0.03782267
  eigenvalues    EBANDS =      -705.71927462
  atomic energy  EATOM  =     20168.87094289
  ---------------------------------------------------
  free energy    TOTEN  =      -103.98401612 eV

  energy without entropy =     -103.94619344  energy(sigma->0) =     -103.96510478


--------------------------------------------------------------------------------------------------------




--------------------------------------- Iteration      1(  11)  ---------------------------------------


    POTLOK:  cpu time    0.0440: real time    0.0440
    SETDIJ:  cpu time    0.0120: real time    0.0121
    TRIAL :  cpu time   13.2960: real time   13.3306
    CORREC:  cpu time    4.1842: real time    4.1931
    CHARGE:  cpu time    0.4807: real time    0.4816
    --------------------------------------------
      LOOP:  cpu time   18.0209: real time   18.0654

 eigenvalue-minimisations  :     0
 total energy-change (2. order) :-0.6579268E+02  (-0.1728569E+02)
 number of electron     258.0000015 magnetization       6.0000001
 augmentation part       74.0589556 magnetization       4.3082220

 Free energy of the ion-electron system (eV)
  ---------------------------------------------------
  alpha Z        PSCENC =       742.96071412
  Ewald energy   TEWEN  =    -13735.57669179
  -Hartree energ DENC   =     -7006.36027359
  -exchange      EXHF   =         0.00000000
  -V(xc)+E(xc)   XCENC  =       856.02557430
  PAW double counting   =     23977.24798901   -24417.34721081
  entropy T*S    EENTRO =        -0.03683501
  eigenvalues    EBANDS =      -755.55991513
  atomic energy  EATOM  =     20168.87094289
  ---------------------------------------------------
  free energy    TOTEN  =      -169.77669367 eV

  energy without entropy =     -169.73985867  energy(sigma->0) =     -169.75827617


--------------------------------------------------------------------------------------------------------




--------------------------------------- Iteration      1(  12)  ---------------------------------------


    POTLOK:  cpu time    0.0439: real time    0.0440
    SETDIJ:  cpu time    0.0121: real time    0.0121
    TRIAL :  cpu time   13.3473: real time   13.3817
    CORREC:  cpu time    4.1341: real time    4.1437
    CHARGE:  cpu time    0.4750: real time    0.4758
    --------------------------------------------
      LOOP:  cpu time   18.0163: real time   18.0612

 eigenvalue-minimisations  :     0
 total energy-change (2. order) :-0.2347015E+02  (-0.7497468E+01)
 number of electron     258.0000017 magnetization       5.9999999
 augmentation part       74.6455375 magnetization       4.2839395

 Free energy of the ion-electron system (eV)
  ---------------------------------------------------
  alpha Z        PSCENC =       742.96071412
  Ewald energy   TEWEN  =    -13735.57669179
  -Hartree energ DENC   =     -7028.18316699
  -exchange      EXHF   =         0.00000000
  -V(xc)+E(xc)   XCENC  =       855.34222270
  PAW double counting   =     23982.40753985   -24428.65681284
  entropy T*S    EENTRO =        -0.03215436
  eigenvalues    EBANDS =      -750.37475553
  atomic energy  EATOM  =     20168.87094289
  ---------------------------------------------------
  free energy    TOTEN  =      -193.24684260 eV

  energy without entropy =     -193.21468823  energy(sigma->0) =     -193.23076541


--------------------------------------------------------------------------------------------------------




--------------------------------------- Iteration      1(  13)  ---------------------------------------


    POTLOK:  cpu time    0.0438: real time    0.0439
    SETDIJ:  cpu time    0.0121: real time    0.0121
    TRIAL :  cpu time   13.3270: real time   13.3686
    CORREC:  cpu time    4.2889: real time    4.2990
    CHARGE:  cpu time    0.4815: real time    0.4823
    --------------------------------------------
      LOOP:  cpu time   18.1573: real time   18.2099

 eigenvalue-minimisations  :     0
 total energy-change (2. order) :-0.3849594E+01  (-0.4118922E+02)
 number of electron     258.0000015 magnetization       6.0000001
 augmentation part       75.0375691 magnetization       4.2773957

 Free energy of the ion-electron system (eV)
  ---------------------------------------------------
  alpha Z        PSCENC =       742.96071412
  Ewald energy   TEWEN  =    -13735.57669179
  -Hartree energ DENC   =     -7091.66599641
  -exchange      EXHF   =         0.00000000
  -V(xc)+E(xc)   XCENC  =       854.05822704
  PAW double counting   =     24070.89813640   -24540.03283602
  entropy T*S    EENTRO =        -0.02977387
  eigenvalues    EBANDS =      -666.57677894
  atomic energy  EATOM  =     20168.87094289
  ---------------------------------------------------
  free energy    TOTEN  =      -197.09643706 eV

  energy without entropy =     -197.06666319  energy(sigma->0) =     -197.08155013


--------------------------------------------------------------------------------------------------------




--------------------------------------- Iteration      1(  14)  ---------------------------------------


    POTLOK:  cpu time    0.0441: real time    0.0442
    SETDIJ:  cpu time    0.0120: real time    0.0120
    TRIAL :  cpu time   13.2840: real time   13.3295
    CORREC:  cpu time    4.1460: real time    4.1575
    CHARGE:  cpu time    0.4805: real time    0.4812
    --------------------------------------------
      LOOP:  cpu time   17.9706: real time   18.0283

 eigenvalue-minimisations  :     0
 total energy-change (2. order) : 0.2148244E+02  (-0.1753323E+02)
 number of electron     258.0000016 magnetization       6.0000001
 augmentation part       75.1051984 magnetization       4.2534745

 Free energy of the ion-electron system (eV)
  ---------------------------------------------------
  alpha Z        PSCENC =       742.96071412
  Ewald energy   TEWEN  =    -13735.57669179
  -Hartree energ DENC   =     -7093.23993804
  -exchange      EXHF   =         0.00000000
  -V(xc)+E(xc)   XCENC  =       853.22616146
  PAW double counting   =     24146.66381964   -24632.22934233
  entropy T*S    EENTRO =        -0.03140404
  eigenvalues    EBANDS =      -626.25988653
  atomic energy  EATOM  =     20168.87094289
  ---------------------------------------------------
  free energy    TOTEN  =      -175.61399446 eV

  energy without entropy =     -175.58259042  energy(sigma->0) =     -175.59829244


--------------------------------------------------------------------------------------------------------




--------------------------------------- Iteration      1(  15)  ---------------------------------------


    POTLOK:  cpu time    0.0438: real time    0.0438
    SETDIJ:  cpu time    0.0120: real time    0.0120
    TRIAL :  cpu time   13.3956: real time   13.4314
    CORREC:  cpu time    4.1528: real time    4.1623
    CHARGE:  cpu time    0.4748: real time    0.4757
    --------------------------------------------
      LOOP:  cpu time   18.0829: real time   18.1292

 eigenvalue-minimisations  :     0
 total energy-change (2. order) :-0.2660188E+02  (-0.1744570E+02)
 number of electron     258.0000017 magnetization       5.9999999
 augmentation part       75.2548925 magnetization       4.2252031

 Free energy of the ion-electron system (eV)
  ---------------------------------------------------
  alpha Z        PSCENC =       742.96071412
  Ewald energy   TEWEN  =    -13735.57669179
  -Hartree energ DENC   =     -7094.44109857
  -exchange      EXHF   =         0.00000000
  -V(xc)+E(xc)   XCENC  =       852.79856936
  PAW double counting   =     24121.61489256   -24607.52783279
  entropy T*S    EENTRO =        -0.02695573
  eigenvalues    EBANDS =      -650.88396852
  atomic energy  EATOM  =     20168.87094289
  ---------------------------------------------------
  free energy    TOTEN  =      -202.21587679 eV

  energy without entropy =     -202.18892106  energy(sigma->0) =     -202.20239892


--------------------------------------------------------------------------------------------------------




--------------------------------------- Iteration      1(  16)  ---------------------------------------


    POTLOK:  cpu time    0.0437: real time    0.0438
    SETDIJ:  cpu time    0.0121: real time    0.0121
    TRIAL :  cpu time   13.2758: real time   13.3187
    CORREC:  cpu time    4.1769: real time    4.1868
    CHARGE:  cpu time    0.4713: real time    0.4722
    --------------------------------------------
      LOOP:  cpu time   17.9839: real time   18.0376

 eigenvalue-minimisations  :     0
 total energy-change (2. order) : 0.3502076E+01  (-0.5776688E+02)
 number of electron     258.0000015 magnetization       6.0000001
 augmentation part       75.3353015 magnetization       4.2289301

 Free energy of the ion-electron system (eV)
  ---------------------------------------------------
  alpha Z        PSCENC =       742.96071412
  Ewald energy   TEWEN  =    -13735.57669179
  -Hartree energ DENC   =     -7157.08611313
  -exchange      EXHF   =         0.00000000
  -V(xc)+E(xc)   XCENC  =       852.65510884
  PAW double counting   =     24117.50760735   -24607.16832735
  entropy T*S    EENTRO =        -0.02634515
  eigenvalues    EBANDS =      -580.85008618
  atomic energy  EATOM  =     20168.87094289
  ---------------------------------------------------
  free energy    TOTEN  =      -198.71380098 eV

  energy without entropy =     -198.68745583  energy(sigma->0) =     -198.70062841


--------------------------------------------------------------------------------------------------------




--------------------------------------- Iteration      1(  17)  ---------------------------------------


    POTLOK:  cpu time    0.0440: real time    0.0441
    SETDIJ:  cpu time    0.0139: real time    0.0140
    TRIAL :  cpu time   12.8788: real time   13.3319
    CORREC:  cpu time    4.1672: real time    4.1709
    CHARGE:  cpu time    0.4758: real time    0.4761
    --------------------------------------------
      LOOP:  cpu time   17.5837: real time   18.0409

 eigenvalue-minimisations  :     0
 total energy-change (2. order) : 0.2274578E+02  (-0.2643279E+02)
 number of electron     258.0000016 magnetization       6.0000000
 augmentation part       75.3880590 magnetization       4.2018290

 Free energy of the ion-electron system (eV)
  ---------------------------------------------------
  alpha Z        PSCENC =       742.96071412
  Ewald energy   TEWEN  =    -13735.57669179
  -Hartree energ DENC   =     -7131.96400179
  -exchange      EXHF   =         0.00000000
  -V(xc)+E(xc)   XCENC  =       852.41102333
  PAW double counting   =     24125.58994286   -24618.44170151
  entropy T*S    EENTRO =        -0.02714503
  eigenvalues    EBANDS =      -579.79190624
  atomic energy  EATOM  =     20168.87094289
  ---------------------------------------------------
  free energy    TOTEN  =      -175.96802327 eV

  energy without entropy =     -175.94087825  energy(sigma->0) =     -175.95445076


--------------------------------------------------------------------------------------------------------




--------------------------------------- Iteration      1(  18)  ---------------------------------------


    POTLOK:  cpu time    0.0439: real time    0.0439
    SETDIJ:  cpu time    0.0120: real time    0.0120
    TRIAL :  cpu time   13.3587: real time   13.3707
    CORREC:  cpu time    4.3342: real time    4.3373
    CHARGE:  cpu time    0.4728: real time    0.4731
    --------------------------------------------
      LOOP:  cpu time   18.2257: real time   18.2410

 eigenvalue-minimisations  :     0
 total energy-change (2. order) :-0.3259657E+02  (-0.1205277E+02)
 number of electron     258.0000017 magnetization       5.9999999
 augmentation part       75.4455327 magnetization       4.1790136

 Free energy of the ion-electron system (eV)
  ---------------------------------------------------
  alpha Z        PSCENC =       742.96071412
  Ewald energy   TEWEN  =    -13735.57669179
  -Hartree energ DENC   =     -7127.93371005
  -exchange      EXHF   =         0.00000000
  -V(xc)+E(xc)   XCENC  =       851.96007327
  PAW double counting   =     24089.61996686   -24581.57375406
  entropy T*S    EENTRO =        -0.02391360
  eigenvalues    EBANDS =      -616.86499149
  atomic energy  EATOM  =     20168.87094289
  ---------------------------------------------------
  free energy    TOTEN  =      -208.56459527 eV

  energy without entropy =     -208.54068167  energy(sigma->0) =     -208.55263847


--------------------------------------------------------------------------------------------------------




--------------------------------------- Iteration      1(  19)  ---------------------------------------


    POTLOK:  cpu time    0.0438: real time    0.0438
    SETDIJ:  cpu time    0.0120: real time    0.0120
    TRIAL :  cpu time   13.2875: real time   13.2990
    CORREC:  cpu time    4.1636: real time    4.1677
    CHARGE:  cpu time    0.4721: real time    0.4724
    --------------------------------------------
      LOOP:  cpu time   17.9830: real time   17.9989

 eigenvalue-minimisations  :     0
 total energy-change (2. order) : 0.2970070E+01  (-0.2700054E+02)
 number of electron     258.0000016 magnetization       6.0000000
 augmentation part       75.4481765 magnetization       4.1782393

 Free energy of the ion-electron system (eV)
  ---------------------------------------------------
  alpha Z        PSCENC =       742.96071412
  Ewald energy   TEWEN  =    -13735.57669179
  -Hartree energ DENC   =     -7174.94475506
  -exchange      EXHF   =         0.00000000
  -V(xc)+E(xc)   XCENC  =       851.95920689
  PAW double counting   =     24071.96849209   -24564.02800007
  entropy T*S    EENTRO =        -0.02425914
  eigenvalues    EBANDS =      -566.78052119
  atomic energy  EATOM  =     20168.87094289
  ---------------------------------------------------
  free energy    TOTEN  =      -205.59452572 eV

  energy without entropy =     -205.57026658  energy(sigma->0) =     -205.58239615


--------------------------------------------------------------------------------------------------------




--------------------------------------- Iteration      1(  20)  ---------------------------------------


    POTLOK:  cpu time    0.0439: real time    0.0439
    SETDIJ:  cpu time    0.0120: real time    0.0120
    TRIAL :  cpu time   13.3670: real time   13.3792
    CORREC:  cpu time    4.1505: real time    4.1535
    CHARGE:  cpu time    0.4778: real time    0.4781
    --------------------------------------------
      LOOP:  cpu time   18.0554: real time   18.0709

 eigenvalue-minimisations  :     0
 total energy-change (2. order) : 0.3150212E+01  (-0.2237396E+02)
 number of electron     258.0000016 magnetization       6.0000000
 augmentation part       75.4978649 magnetization       4.1505244

 Free energy of the ion-electron system (eV)
  ---------------------------------------------------
  alpha Z        PSCENC =       742.96071412
  Ewald energy   TEWEN  =    -13735.57669179
  -Hartree energ DENC   =     -7145.90220115
  -exchange      EXHF   =         0.00000000
  -V(xc)+E(xc)   XCENC  =       851.72920320
  PAW double counting   =     24050.49251874   -24541.44131259
  entropy T*S    EENTRO =        -0.02082847
  eigenvalues    EBANDS =      -593.55322846
  atomic energy  EATOM  =     20168.87094289
  ---------------------------------------------------
  free energy    TOTEN  =      -202.44431419 eV

  energy without entropy =     -202.42348571  energy(sigma->0) =     -202.43389995


--------------------------------------------------------------------------------------------------------




--------------------------------------- Iteration      1(  21)  ---------------------------------------


    POTLOK:  cpu time    0.0439: real time    0.0439
    SETDIJ:  cpu time    0.0120: real time    0.0120
    TRIAL :  cpu time   13.3478: real time   13.3587
    CORREC:  cpu time    4.1762: real time    4.1795
    CHARGE:  cpu time    0.4728: real time    0.4730
    --------------------------------------------
      LOOP:  cpu time   18.0567: real time   18.0711

 eigenvalue-minimisations  :     0
 total energy-change (2. order) :-0.5084101E+01  (-0.1478678E+02)
 number of electron     258.0000016 magnetization       6.0000000
 augmentation part       75.4891040 magnetization       4.1475114

 Free energy of the ion-electron system (eV)
  ---------------------------------------------------
  alpha Z        PSCENC =       742.96071412
  Ewald energy   TEWEN  =    -13735.57669179
  -Hartree energ DENC   =     -7181.86725274
  -exchange      EXHF   =         0.00000000
  -V(xc)+E(xc)   XCENC  =       851.66802970
  PAW double counting   =     24025.25105313   -24515.52309162
  entropy T*S    EENTRO =        -0.02329861
  eigenvalues    EBANDS =      -563.29128996
  atomic energy  EATOM  =     20168.87094289
  ---------------------------------------------------
  free energy    TOTEN  =      -207.52841474 eV

  energy without entropy =     -207.50511613  energy(sigma->0) =     -207.51676544


--------------------------------------------------------------------------------------------------------




--------------------------------------- Iteration      1(  22)  ---------------------------------------


    POTLOK:  cpu time    0.0438: real time    0.0438
    SETDIJ:  cpu time    0.0121: real time    0.0121
    TRIAL :  cpu time   13.3475: real time   13.3594
    CORREC:  cpu time    4.1431: real time    4.1469
    CHARGE:  cpu time    0.4942: real time    0.4944
    --------------------------------------------
      LOOP:  cpu time   18.0445: real time   18.0605

 eigenvalue-minimisations  :     0
 total energy-change (2. order) :-0.6175767E+01  (-0.3887501E+01)
 number of electron     258.0000016 magnetization       6.0000000
 augmentation part       75.5006662 magnetization       4.1382586

 Free energy of the ion-electron system (eV)
  ---------------------------------------------------
  alpha Z        PSCENC =       742.96071412
  Ewald energy   TEWEN  =    -13735.57669179
  -Hartree energ DENC   =     -7156.16279248
  -exchange      EXHF   =         0.00000000
  -V(xc)+E(xc)   XCENC  =       851.43555201
  PAW double counting   =     24001.71057355   -24490.20485481
  entropy T*S    EENTRO =        -0.02158770
  eigenvalues    EBANDS =      -596.71432649
  atomic energy  EATOM  =     20168.87094289
  ---------------------------------------------------
  free energy    TOTEN  =      -213.70418162 eV

  energy without entropy =     -213.68259392  energy(sigma->0) =     -213.69338777


--------------------------------------------------------------------------------------------------------




--------------------------------------- Iteration      1(  23)  ---------------------------------------


    POTLOK:  cpu time    0.0442: real time    0.0443
    SETDIJ:  cpu time    0.0122: real time    0.0122
    TRIAL :  cpu time   13.1892: real time   13.2015
    CORREC:  cpu time    4.2754: real time    4.2789
    CHARGE:  cpu time    0.4727: real time    0.4729
    --------------------------------------------
      LOOP:  cpu time   17.9977: real time   18.0138

 eigenvalue-minimisations  :     0
 total energy-change (2. order) :-0.3641890E+01  (-0.1110259E+01)
 number of electron     258.0000016 magnetization       5.9999999
 augmentation part       75.5320019 magnetization       4.1063118

 Free energy of the ion-electron system (eV)
  ---------------------------------------------------
  alpha Z        PSCENC =       742.96071412
  Ewald energy   TEWEN  =    -13735.57669179
  -Hartree energ DENC   =     -7165.93096378
  -exchange      EXHF   =         0.00000000
  -V(xc)+E(xc)   XCENC  =       851.37537888
  PAW double counting   =     23984.42374722   -24471.90589011
  entropy T*S    EENTRO =        -0.02173703
  eigenvalues    EBANDS =      -591.54172118
  atomic energy  EATOM  =     20168.87094289
  ---------------------------------------------------
  free energy    TOTEN  =      -217.34607143 eV

  energy without entropy =     -217.32433441  energy(sigma->0) =     -217.33520292


--------------------------------------------------------------------------------------------------------




--------------------------------------- Iteration      1(  24)  ---------------------------------------


    POTLOK:  cpu time    0.0438: real time    0.0439
    SETDIJ:  cpu time    0.0120: real time    0.0120
    TRIAL :  cpu time   13.3070: real time   13.3195
    CORREC:  cpu time    4.1426: real time    4.1464
    CHARGE:  cpu time    0.4722: real time    0.4725
    --------------------------------------------
      LOOP:  cpu time   17.9816: real time   17.9983

 eigenvalue-minimisations  :     0
 total energy-change (2. order) :-0.1109060E+01  (-0.2530220E+01)
 number of electron     258.0000016 magnetization       5.9999999
 augmentation part       75.6535081 magnetization       4.0066950

 Free energy of the ion-electron system (eV)
  ---------------------------------------------------
  alpha Z        PSCENC =       742.96071412
  Ewald energy   TEWEN  =    -13735.57669179
  -Hartree energ DENC   =     -7174.67860846
  -exchange      EXHF   =         0.00000000
  -V(xc)+E(xc)   XCENC  =       851.14797289
  PAW double counting   =     23922.21242045   -24405.54909707
  entropy T*S    EENTRO =        -0.01704959
  eigenvalues    EBANDS =      -587.82104700
  atomic energy  EATOM  =     20168.87094289
  ---------------------------------------------------
  free energy    TOTEN  =      -218.45513101 eV

  energy without entropy =     -218.43808142  energy(sigma->0) =     -218.44660622


--------------------------------------------------------------------------------------------------------




--------------------------------------- Iteration      1(  25)  ---------------------------------------


    POTLOK:  cpu time    0.0455: real time    0.0455
    SETDIJ:  cpu time    0.0121: real time    0.0121
    TRIAL :  cpu time   13.3835: real time   13.4054
    CORREC:  cpu time    4.1585: real time    4.1727
    CHARGE:  cpu time    0.4719: real time    0.4726
    --------------------------------------------
      LOOP:  cpu time   18.0755: real time   18.1122

 eigenvalue-minimisations  :     0
[...]
   20        1.571   3.414   0.000   4.985
   21        1.581   3.382   0.000   4.963
   22        1.577   3.368   0.000   4.945
   23        1.571   3.423   0.000   4.994
   24        1.576   3.407   0.000   4.983
   25        1.579   3.414   0.000   4.994
   26        1.585   3.339   0.000   4.925
   27        1.561   3.444   0.000   5.005
   28        1.555   3.465   0.000   5.020
   29        1.566   3.469   0.000   5.035
   30        1.561   3.500   0.000   5.061
   31        1.569   3.439   0.000   5.008
   32        1.567   3.419   0.000   4.986
   33        1.559   3.422   0.000   4.981
   34        1.562   3.431   0.000   4.992
   35        1.580   3.369   0.000   4.948
   36        1.569   3.407   0.000   4.975
   37        1.566   3.458   0.000   5.024
   38        1.578   3.358   0.000   4.936
   39        1.558   3.470   0.000   5.028
   40        1.567   3.423   0.000   4.990
   41        1.572   3.428   0.000   4.999
   42        1.565   3.426   0.000   4.991
--------------------------------------------------
tot         43.592  91.758  87.535 222.885
 


 magnetization (x)
 
# of ion       s       p       d       tot
------------------------------------------
    1        0.001   0.000   0.000   0.002
    2        0.001   0.000   0.000   0.001
    3        0.000   0.000   0.000   0.001
    4        0.001   0.000   0.000   0.001
    5        0.000  -0.001   0.000  -0.001
    6        0.001   0.001   0.000   0.002
    7        0.005   0.007  -0.002   0.009
    8        0.012   0.015   1.353   1.381
    9        0.013   0.019   1.296   1.328
   10        0.013   0.019   1.343   1.375
   11        0.007   0.009   1.100   1.117
   12        0.005   0.004   0.023   0.032
   13        0.001   0.001  -0.013  -0.011
   14        0.001   0.001  -0.017  -0.015
   15        0.004   0.005  -0.009   0.000
   16        0.010   0.014   1.234   1.259
   17        0.012   0.013   1.353   1.378
   18        0.003   0.003   0.010   0.015
   19        0.001  -0.085   0.000  -0.084
   20        0.000  -0.103   0.000  -0.103
   21        0.002  -0.145   0.000  -0.143
   22        0.001  -0.120   0.000  -0.120
   23        0.000  -0.099   0.000  -0.099
   24        0.001  -0.114   0.000  -0.113
   25        0.001  -0.057   0.000  -0.056
   26        0.001  -0.170   0.000  -0.169
   27       -0.000  -0.047   0.000  -0.047
   28       -0.000  -0.012   0.000  -0.012
   29        0.000  -0.003   0.000  -0.002
   30        0.000  -0.006   0.000  -0.005
   31        0.000  -0.021   0.000  -0.020
   32        0.000  -0.028   0.000  -0.028
   33       -0.001  -0.024   0.000  -0.025
   34       -0.000  -0.051   0.000  -0.051
   35        0.001  -0.123   0.000  -0.122
   36       -0.000  -0.033   0.000  -0.033
   37       -0.000  -0.047   0.000  -0.047
   38        0.000  -0.132   0.000  -0.132
   39        0.000  -0.035   0.000  -0.035
   40        0.001  -0.078   0.000  -0.077
   41        0.001  -0.082   0.000  -0.081
   42       -0.000  -0.043   0.000  -0.043
--------------------------------------------------
tot          0.100  -1.546   7.672   6.226
 
    FORLOC:  cpu time    0.0081: real time    0.0081
    FORNL :  cpu time    4.5744: real time    4.6198
    STRESS:  cpu time   13.7574: real time   13.8893
    FORCOR:  cpu time    0.0471: real time    0.0473
    OFIELD:  cpu time    0.0005: real time    0.0005

  DFT-D2 method for vdW energy calculation
  -------------------------------------------------------------------

  Parameters of vdW forcefield:
         C6(Jnm^6/mol)     R0(A)
   -----------------------------
   Li       1.610          0.825
   Co      10.800          1.562
   O        0.700          1.342

  IVDW =   1
  VDW_RADIUS =    50.000 A
  VDW_S6 =     0.750
  VDW_SR =     1.000
  VDW_D =    20.000
  LVDW_EWALD = F

  Number of pair interactions contributing to vdW energy: 1199134
  Edisp (eV):   -9.50770
    FORVDW:  cpu time    0.1727: real time    0.1732

  FORCE on cell =-STRESS in cart. coord.  units (eV):
  Direction    XX          YY          ZZ          XY          YZ          ZX
  --------------------------------------------------------------------------------------
  Alpha Z   742.96071   742.96071   742.96071
  Ewald   -1475.13435 -1412.54467-10847.96491  -110.55623   -23.72668  -125.96843
  Hartree  4735.35426  4767.80851 -2289.44387   -32.94266   -11.97805   -49.66130
  E(xc)   -1285.21579 -1285.19714 -1286.41125    -0.22603    -0.04563    -0.02875
  Local   -8208.59426 -8303.42461  8150.38466   128.10306    34.66383   166.45188
  n-local  -592.59092  -591.29667  -600.17324    -5.15320    -1.30880    -4.77599
  augment  2020.68068  2021.90422  2000.07730     8.05995     0.59169     4.20953
  Kinetic  4068.43312  4067.99803  4139.62965    10.40015     1.65500     0.83424
  Fock        0.00000     0.00000     0.00000     0.00000     0.00000     0.00000
  vdW        -5.89390    -6.00588   -13.15122     0.09456    -0.02019     0.06573
  -------------------------------------------------------------------------------------
  Total      -0.00045     2.20250    -4.09217    -2.22040    -0.16883    -8.87309
  in kB      -0.00185     8.94290   -16.61557    -9.01558    -0.68553   -36.02771
  external pressure =       -2.56 kB  Pullay stress =        0.00 kB


 VOLUME and BASIS-vectors are now :
 -----------------------------------------------------------------------------
  energy-cutoff  :      600.00
  volume of cell :      394.59
      direct lattice vectors                 reciprocal lattice vectors
     5.642866611  0.000000000  0.000000000     0.177214893  0.103238293 -0.003453271
    -2.835055828  4.866548061  0.000000000     0.000000000  0.205484460 -0.003284573
     0.146196410  0.229682580 14.369050026     0.000000000  0.000000000  0.069594023

  length of vectors
     5.642866611  5.632124962 14.371629209     0.205122374  0.205510709  0.069594023


 FORCES acting on ions:
    Electron-Ion                     Ewald-Force                    Non-Local-Force
 -----------------------------------------------------------------------------------------------
   -.214E+01 -.236E+01 -.359E+01   0.184E+01 0.230E+01 0.308E+01   0.403E+00 -.175E+00 0.265E+00
   -.946E+00 -.196E+01 0.204E+02   0.733E+00 0.181E+01 -.196E+02   0.187E+00 0.101E+00 -.101E+01
   0.168E+00 0.199E+00 0.202E+02   -.400E-01 -.292E+00 -.193E+02   -.474E+00 -.910E-01 -.112E+01
   0.122E+01 0.173E+01 0.121E+01   -.924E+00 -.151E+01 -.113E+01   -.123E+00 -.417E+00 -.538E+00
   0.292E+01 0.771E-01 -.950E+01   -.247E+01 -.194E+00 0.922E+01   -.391E+00 0.383E+00 0.496E+00
   0.953E+00 0.430E+00 -.891E+01   -.932E+00 -.797E+00 0.855E+01   -.718E+00 0.552E+00 0.506E+00
   -.443E+02 0.894E+01 0.400E+02   0.456E+02 -.958E+01 -.400E+02   -.398E+00 -.109E+01 -.555E+00
   0.106E+01 -.856E+01 -.977E+01   -.110E+01 0.851E+01 0.997E+01   0.276E+00 -.118E+00 0.509E+00
   0.525E+02 -.348E+02 0.696E+02   -.543E+02 0.369E+02 -.684E+02   0.699E-01 0.419E+00 0.715E+00
   -.819E-01 0.450E+02 0.118E+03   -.145E-01 -.466E+02 -.118E+03   -.415E+00 -.203E-01 -.463E+00
   -.281E+02 0.980E+01 0.765E+02   0.294E+02 -.996E+01 -.792E+02   -.610E+00 -.853E-01 -.339E+00
   0.292E+02 -.166E+02 0.138E+02   -.300E+02 0.181E+02 -.153E+02   -.662E+00 -.892E-01 0.786E+00
   0.157E+02 -.160E+02 0.630E+02   -.164E+02 0.151E+02 -.641E+02   0.602E+00 -.776E-01 0.372E+00
   -.427E+00 0.150E+02 0.792E+02   0.771E+00 -.159E+02 -.805E+02   -.172E+00 -.799E-01 0.131E+01
   0.142E+02 -.328E+02 -.794E+02   -.151E+02 0.336E+02 0.794E+02   -.169E+00 0.137E+00 -.947E+00
   0.709E+00 0.788E+01 -.184E+03   -.445E+00 -.757E+01 0.184E+03   0.154E+00 0.847E+00 -.692E+00
   -.286E+02 -.167E+02 -.701E+02   0.304E+02 0.169E+02 0.708E+02   0.863E+00 -.383E+00 -.363E+00
   -.829E+01 0.419E+02 -.129E+03   0.800E+01 -.428E+02 0.131E+03   0.438E+00 -.956E+00 -.188E+01
   -.152E+02 -.144E+02 -.298E+03   0.157E+02 0.176E+02 0.318E+03   -.766E+00 -.323E+01 -.196E+02
   0.606E+01 -.972E+01 -.311E+03   -.609E+01 0.967E+01 0.331E+03   -.747E+00 0.384E+00 -.204E+02
   0.299E+02 0.116E+02 -.310E+03   -.329E+02 -.136E+02 0.333E+03   0.214E+01 0.216E+01 -.226E+02
   -.169E+01 0.197E+02 -.283E+03   0.189E+01 -.214E+02 0.305E+03   -.300E-01 0.142E+01 -.221E+02
   0.255E+02 -.255E+02 0.356E+03   -.316E+02 0.287E+02 -.376E+03   0.649E+01 -.285E+01 0.188E+02
   -.296E+02 0.977E+01 0.366E+03   0.314E+02 -.126E+02 -.389E+03   -.450E+00 0.327E+01 0.223E+02
   -.383E+02 -.143E+01 0.392E+03   0.454E+02 0.340E+01 -.417E+03   -.617E+01 -.229E+01 0.241E+02
   0.148E+02 0.231E+01 0.370E+03   -.141E+02 -.234E+01 -.395E+03   -.812E+00 0.368E+00 0.256E+02
   -.482E+02 -.152E+02 -.296E+03   0.522E+02 0.181E+02 0.313E+03   -.315E+01 -.337E+01 -.166E+02
   0.257E+02 0.123E+02 -.266E+03   -.239E+02 -.116E+02 0.280E+03   -.265E+01 -.198E+01 -.143E+02
   0.629E+02 -.488E+02 -.303E+03   -.698E+02 0.499E+02 0.323E+03   0.510E+01 0.130E+01 -.186E+02
   -.327E+02 0.782E+02 -.287E+03   0.333E+02 -.860E+02 0.302E+03   0.466E+00 0.561E+01 -.133E+02
   0.393E+01 -.375E+02 0.381E+03   -.711E-01 0.400E+02 -.402E+03   -.443E+01 -.123E+01 0.213E+02
   -.375E+02 0.283E+02 0.358E+03   0.423E+02 -.283E+02 -.376E+03   -.363E+01 -.398E+00 0.186E+02
   -.179E+02 -.517E+01 0.341E+03   0.153E+02 0.471E+01 -.357E+03   0.400E+01 0.815E+00 0.173E+02
   0.266E+02 -.536E+01 0.369E+03   -.296E+02 0.532E+01 -.386E+03   0.311E+01 0.929E+00 0.168E+02
   0.509E+01 0.151E+02 -.401E+03   -.635E+01 -.187E+02 0.425E+03   0.708E+00 0.406E+01 -.239E+02
   0.273E+02 0.948E+01 -.394E+03   -.303E+02 -.108E+02 0.415E+03   0.227E+01 0.127E+01 -.218E+02
   0.946E+01 -.418E+02 -.382E+03   -.105E+02 0.468E+02 0.403E+03   0.336E+00 -.436E+01 -.189E+02
   -.254E+02 0.179E+00 -.401E+03   0.274E+02 0.144E+01 0.424E+03   -.171E+01 -.125E+01 -.240E+02
   -.819E+01 0.270E+01 0.242E+03   0.940E+01 -.126E+01 -.257E+03   -.127E+01 -.125E+01 0.152E+02
   0.576E+02 -.521E+00 0.249E+03   -.623E+02 0.143E+01 -.265E+03   0.297E+01 -.102E+01 0.171E+02
   0.976E+01 -.496E+01 0.266E+03   -.112E+02 0.259E+01 -.286E+03   0.145E+01 0.189E+01 0.199E+02
   -.549E+02 0.189E+02 0.240E+03   0.593E+02 -.211E+02 -.255E+03   -.314E+01 0.161E+01 0.167E+02
 -----------------------------------------------------------------------------------------------
   0.108E+01 -.663E+00 0.539E+01   0.711E-14 -.114E-12 0.171E-12   -.105E+01 0.717E+00 -.541E+01
 
 
 POSITION                                       TOTAL-FORCE (eV/Angst)
 -----------------------------------------------------------------------------------
      2.58859      0.41416     14.36330         0.170868     -0.202366     -0.242321
      4.23287      0.94138      5.01175        -0.008803     -0.006590     -0.067529
      2.96784      3.42632      4.98434        -0.299186     -0.087588     -0.069253
      0.12576      1.73356      9.60610         0.134204     -0.120900     -0.383371
     -1.32092      4.04976      9.47528         0.091762      0.230802      0.038209
      1.69551      3.95519      9.54703        -0.545314      0.102013      0.093342
      0.00405      1.96702      2.47387         0.757141     -1.541179     -0.379839
     -1.42336      4.30345      2.47617         0.203008     -0.155151      0.488739
      2.89275      1.81283      2.36073        -1.467629      2.162183      1.728660
      1.46922      4.34535      2.36453        -0.461494     -1.400350     -0.017028
      2.85465      4.96416      7.26579         0.618879     -0.258351     -2.597319
      4.32866      2.46496      7.28167        -1.272078      1.327163     -0.703000
      2.83555      0.16058      7.22713        -0.033552     -0.935703     -0.656805
      1.41434      2.58710      7.17081         0.212632     -0.819002      0.113574
      1.58487      0.75900     11.89780        -0.918912      0.724859     -0.900596
      0.13891      3.16784     12.01660         0.425754      1.023835     -0.637913
      4.30891      0.78669     11.84720         2.361589     -0.248628      0.276523
      2.95794      3.31116     11.97550         0.064347     -1.492097     -0.786879
      0.01513      0.26318      3.36080        -0.166979     -0.033176      0.992093
     -1.39718      2.65934      3.46116        -0.706644      0.293294     -0.154155
      2.96683      0.25047      3.38070        -0.871398      0.080892      0.204049
      1.49285      2.76050      3.37668         0.169041     -0.297674     -0.367571
      1.41767      1.02521      1.55321         0.337073      0.377215     -1.028884
     -0.10610      3.53469      1.49346         1.333936      0.402863     -0.342302
      4.22806      1.08838      1.47152         0.925541     -0.360294     -1.117829
      2.87089      3.46486      1.42523        -0.049902      0.343516      0.338991
      1.37316      0.98350      8.22908         0.886840     -0.482308      0.331636
      0.10891      3.47289      8.31759        -0.895726     -1.300299     -0.766485
      4.38883      0.73817      8.21699        -1.888037      2.461832      1.162209
      2.81321      3.44236      8.13349         1.018179     -2.233788      1.340039
      0.04184      1.60972      6.27296        -0.517656      1.383864     -0.328543
     -1.45970      4.17021      6.25880         1.184768     -0.432716      0.479482
      2.77034      1.72415      6.12880         1.310046      0.285958      1.028945
      1.42585      4.15536      6.15897         0.008365      0.830646      0.302499
      0.15726      1.51198     12.84280        -0.535288      0.418944      0.179586
     -1.19000      4.05852     12.97280        -0.764426     -0.172988     -0.444255
      3.00909      1.57423     12.76830        -0.644753      0.729080      1.293529
      1.49136      4.04869     12.95230         0.282755      0.372315     -0.482849
      2.93486      4.83180     10.87350        -0.045050      0.208576      0.388918
     -1.12169      2.46176     10.86390        -1.779916     -0.157523      0.834812
      0.12232      4.80793     10.93460         0.065853     -0.422542     -0.278170
      1.43594      2.50273     10.86800         1.310162     -0.598636      1.137059
 -----------------------------------------------------------------------------------
    total drift:                                0.030565      0.054361     -0.019959


--------------------------------------------------------------------------------------------------------



  FREE ENERGIE OF THE ION-ELECTRON SYSTEM (eV)
  ---------------------------------------------------
  free  energy   TOTEN  =      -234.27812693 eV

  energy  without entropy=     -234.27621554  energy(sigma->0) =     -234.27717123
 


--------------------------------------------------------------------------------------------------------


    POTLOK:  cpu time    0.0605: real time    0.0609


--------------------------------------------------------------------------------------------------------


     LOOP+:  cpu time 2053.9705: real time 2068.6271
    4ORBIT:  cpu time    0.0000: real time    0.0000
 


 total charge     
 
# of ion       s       p       d       tot
------------------------------------------
    1        0.074   0.148   0.000   0.222
    2        0.085   0.174   0.000   0.258
    3        0.087   0.181   0.000   0.268
    4        0.101   0.214   0.000   0.314
    5        0.090   0.187   0.000   0.277
    6        0.107   0.230   0.000   0.337
    7        0.432   0.676   7.353   8.462
    8        0.471   0.764   7.238   8.473
    9        0.478   0.773   7.256   8.508
   10        0.470   0.760   7.237   8.468
   11        0.532   0.923   7.378   8.833
   12        0.385   0.549   7.284   8.218
   13        0.409   0.622   7.306   8.337
   14        0.428   0.670   7.348   8.445
   15        0.435   0.680   7.384   8.499
   16        0.480   0.785   7.248   8.513
   17        0.462   0.735   7.222   8.419
   18        0.399   0.587   7.280   8.265
   19        1.571   3.426   0.000   4.998
   20        1.571   3.414   0.000   4.985
   21        1.581   3.382   0.000   4.963
   22        1.577   3.368   0.000   4.945
   23        1.571   3.423   0.000   4.994
   24        1.576   3.407   0.000   4.983
   25        1.579   3.414   0.000   4.994
   26        1.585   3.339   0.000   4.925
   27        1.561   3.444   0.000   5.005
   28        1.555   3.465   0.000   5.020
   29        1.566   3.469   0.000   5.035
   30        1.561   3.500   0.000   5.061
   31        1.569   3.439   0.000   5.008
   32        1.567   3.419   0.000   4.986
   33        1.559   3.422   0.000   4.981
   34        1.562   3.431   0.000   4.992
   35        1.580   3.369   0.000   4.948
   36        1.569   3.407   0.000   4.975
   37        1.566   3.458   0.000   5.024
   38        1.578   3.358   0.000   4.936
   39        1.558   3.470   0.000   5.028
   40        1.567   3.423   0.000   4.990
   41        1.572   3.428   0.000   4.999
   42        1.565   3.426   0.000   4.991
--------------------------------------------------
tot         43.592  91.758  87.535 222.885
 


 magnetization (x)
 
# of ion       s       p       d       tot
------------------------------------------
    1        0.001   0.000   0.000   0.002
    2        0.001   0.000   0.000   0.001
    3        0.000   0.000   0.000   0.001
    4        0.001   0.000   0.000   0.001
    5        0.000  -0.001   0.000  -0.001
    6        0.001   0.001   0.000   0.002
    7        0.005   0.007  -0.002   0.009
    8        0.012   0.015   1.353   1.381
    9        0.013   0.019   1.296   1.328
   10        0.013   0.019   1.343   1.375
   11        0.007   0.009   1.100   1.117
   12        0.005   0.004   0.023   0.032
   13        0.001   0.001  -0.013  -0.011
   14        0.001   0.001  -0.017  -0.015
   15        0.004   0.005  -0.009   0.000
   16        0.010   0.014   1.234   1.259
   17        0.012   0.013   1.353   1.378
   18        0.003   0.003   0.010   0.015
   19        0.001  -0.085   0.000  -0.084
   20        0.000  -0.103   0.000  -0.103
   21        0.002  -0.145   0.000  -0.143
   22        0.001  -0.120   0.000  -0.120
   23        0.000  -0.099   0.000  -0.099
   24        0.001  -0.114   0.000  -0.113
   25        0.001  -0.057   0.000  -0.056
   26        0.001  -0.170   0.000  -0.169
   27       -0.000  -0.047   0.000  -0.047
   28       -0.000  -0.012   0.000  -0.012
   29        0.000  -0.003   0.000  -0.002
   30        0.000  -0.006   0.000  -0.005
   31        0.000  -0.021   0.000  -0.020
   32        0.000  -0.028   0.000  -0.028
   33       -0.001  -0.024   0.000  -0.025
   34       -0.000  -0.051   0.000  -0.051
   35        0.001  -0.123   0.000  -0.122
   36       -0.000  -0.033   0.000  -0.033
   37       -0.000  -0.047   0.000  -0.047
   38        0.000  -0.132   0.000  -0.132
   39        0.000  -0.035   0.000  -0.035
   40        0.001  -0.078   0.000  -0.077
   41        0.001  -0.082   0.000  -0.081
   42       -0.000  -0.043   0.000  -0.043
--------------------------------------------------
tot          0.100  -1.546   7.672   6.226
 

 total amount of memory used by VASP MPI-rank0   159293. kBytes
=======================================================================

   base      :      30000. kBytes
   nonlr-proj:       4287. kBytes
   fftplans  :       1688. kBytes
   grid      :       4644. kBytes
   one-center:        342. kBytes
   wavefun   :     118332. kBytes
 
  
  
 General timing and accounting informations for this job:
 ========================================================
  
                  Total CPU time used (sec):     2076.014
                            User time (sec):     1946.964
                          System time (sec):      129.051
                         Elapsed time (sec):     2091.126
  
                   Maximum memory used (kb):      652452.
                   Average memory used (kb):           0.
  
                          Minor page faults:        71050
                          Major page faults:           67
                 Voluntary context switches:          578
