       N       E                     dE             d eps       ncg     rms          ort
DAV:   1     0.356723150462E+04    0.35672E+04   -0.14061E+05  5760   0.228E+03
DAV:   2     0.421923377203E+03   -0.31453E+04   -0.29072E+04  5760   0.561E+02
DAV:   3    -0.215176446029E+03   -0.63710E+03   -0.56852E+03  5760   0.260E+02
DAV:   4    -0.267676061008E+03   -0.52500E+02   -0.51510E+02  5760   0.773E+01
DAV:   5    -0.269307313061E+03   -0.16313E+01   -0.16288E+01  5760   0.135E+01
SDA:   6     0.107420904732E+03    0.37673E+03   -0.16288E+01  5760   0.446E+04 0.000E+00
CGA:   7     0.366943215955E+02   -0.70727E+02   -0.17292E+03  5760   0.689E+04 0.333E+03
CGA:   8    -0.842907415632E+01   -0.45123E+02   -0.31335E+03  5760   0.718E+04-0.826E+03
CGA:   9    -0.127277562494E+03   -0.11885E+03   -0.18021E+03  5760   0.546E+03-0.100E+04
CGA:  10    -0.163110989433E+03   -0.35833E+02   -0.45117E+02  5760   0.494E+03-0.174E+02
CGA:  11    -0.191375054491E+03   -0.28264E+02   -0.34750E+02  5760   0.367E+03-0.897E+02
CGA:  12    -0.207409059054E+03   -0.16034E+02   -0.18053E+02  5760   0.109E+03-0.207E+02
CGA:  13    -0.210110790721E+03   -0.27017E+01   -0.48892E+01  5760   0.693E+02-0.352E+02
CGA:  14    -0.213328373960E+03   -0.32176E+01   -0.33047E+01  5760   0.255E+02 0.122E+00
CGA:  15    -0.214438746236E+03   -0.11104E+01   -0.12796E+01  5760   0.212E+02-0.270E+01
CGA:  16    -0.215727153909E+03   -0.12884E+01   -0.13668E+01  5760   0.104E+02-0.269E+00
CGA:  17    -0.216364048419E+03   -0.63689E+00   -0.68483E+00  5760   0.932E+01-0.242E+00
CGA:  18    -0.216775143238E+03   -0.41109E+00   -0.43980E+00  5760   0.168E+01-0.165E+00
CGA:  19    -0.216896598601E+03   -0.12146E+00   -0.12648E+00  5760   0.222E+01-0.419E-01
CGA:  20    -0.217040560273E+03   -0.14396E+00   -0.14859E+00  5760   0.831E+00-0.168E-01
CGA:  21    -0.217115477498E+03   -0.74917E-01   -0.76427E-01  5760   0.118E+01-0.953E-02
CGA:  22    -0.217195292615E+03   -0.79815E-01   -0.87558E-01  5760   0.577E+00 0.329E-01
CGA:  23    -0.217244549845E+03   -0.49257E-01   -0.50875E-01  5760   0.518E+00 0.515E-02
CGA:  24    -0.217276968856E+03   -0.32419E-01   -0.34353E-01  5760   0.321E+00-0.391E-02
CGA:  25    -0.217329430583E+03   -0.52462E-01   -0.51494E-01  5760   0.387E+00 0.181E-01
CGA:  26    -0.217352716742E+03   -0.23286E-01   -0.25709E-01  5760   0.234E+00-0.118E-01
CGA:  27    -0.217384471663E+03   -0.31755E-01   -0.31522E-01  5760   0.226E+00 0.915E-02
CGA:  28    -0.217441283432E+03   -0.56812E-01   -0.55561E-01  5760   0.550E+00 0.168E-01
CGA:  29    -0.217495922099E+03   -0.54639E-01   -0.56544E-01  5760   0.417E+00 0.240E-01
CGA:  30    -0.217572727372E+03   -0.76805E-01   -0.80566E-01  5760   0.519E+00-0.550E-01
CGA:  31    -0.217641947101E+03   -0.69220E-01   -0.69283E-01  5760   0.834E+00-0.296E-02
CGA:  32    -0.217738141649E+03   -0.96195E-01   -0.96060E-01  5760   0.689E+00-0.150E-02
CGA:  33    -0.217818016472E+03   -0.79875E-01   -0.79986E-01  5760   0.508E+00 0.566E-02
CGA:  34    -0.217878549180E+03   -0.60533E-01   -0.60715E-01  5760   0.493E+00 0.985E-02
CGA:  35    -0.217947987547E+03   -0.69438E-01   -0.69056E-01  5760   0.385E+00 0.220E-01
CGA:  36    -0.218007327185E+03   -0.59340E-01   -0.59075E-01  5760   0.298E+00 0.111E-01
SDA:  37    -0.218048558993E+03   -0.41232E-01   -0.41220E-01  5760   0.287E+00 0.168E-01
CGA:  38    -0.218094311674E+03   -0.45753E-01   -0.45608E-01  5760   0.345E+00-0.507E-02
CGA:  39    -0.218145261725E+03   -0.50950E-01   -0.50784E-01  5760   0.358E+00 0.121E-02
CGA:  40    -0.218204980150E+03   -0.59718E-01   -0.59247E-01  5760   0.372E+00-0.862E-02
CGA:  41    -0.218241904541E+03   -0.36924E-01   -0.37113E-01  5760   0.182E+00 0.161E-02
CGA:  42    -0.218310205166E+03   -0.68301E-01   -0.72183E-01  5760   0.267E+00-0.212E-01
CGA:  43    -0.218343200693E+03   -0.32996E-01   -0.33083E-01  5760   0.140E+00 0.952E-02
CGA:  44    -0.218369036664E+03   -0.25836E-01   -0.25874E-01  5760   0.193E+00 0.234E-03
CGA:  45    -0.218396990174E+03   -0.27954E-01   -0.27960E-01  5760   0.251E+00-0.212E-02
CGA:  46    -0.218428854986E+03   -0.31865E-01   -0.31252E-01  5760   0.208E+00-0.101E-01
CGA:  47    -0.218458371015E+03   -0.29516E-01   -0.29463E-01  5760   0.242E+00 0.899E-02
CGA:  48    -0.218486648906E+03   -0.28278E-01   -0.28803E-01  5760   0.211E+00 0.490E-02
CGA:  49    -0.218513174599E+03   -0.26526E-01   -0.26717E-01  5760   0.187E+00 0.216E-02
CGA:  50    -0.218556043436E+03   -0.42869E-01   -0.42689E-01  5760   0.151E+00 0.251E-02
CGA:  51    -0.218583884942E+03   -0.27842E-01   -0.27836E-01  5760   0.160E+00-0.152E-02
CGA:  52    -0.218610172068E+03   -0.26287E-01   -0.26166E-01  5760   0.232E+00 0.942E-02
CGA:  53    -0.218637291935E+03   -0.27120E-01   -0.27938E-01  5760   0.167E+00 0.466E-02
CGA:  54    -0.218669371158E+03   -0.32079E-01   -0.32091E-01  5760   0.168E+00-0.410E-02
CGA:  55    -0.218701312177E+03   -0.31941E-01   -0.34388E-01  5760   0.365E+00-0.532E-01
CGA:  56    -0.218718678235E+03   -0.17366E-01   -0.14799E-01  5760   0.301E+00-0.330E-02
CGA:  57    -0.218737755966E+03   -0.19078E-01   -0.20988E-01  5760   0.298E+00-0.711E-02
CGA:  58    -0.218759977134E+03   -0.22221E-01   -0.22353E-01  5760   0.169E+00 0.107E-01
CGA:  59    -0.218775166441E+03   -0.15189E-01   -0.15262E-01  5760   0.215E+00 0.420E-02
CGA:  60    -0.218792153925E+03   -0.16987E-01   -0.18022E-01  5760   0.124E+00 0.213E-02
CGA:  61    -0.218806858446E+03   -0.14705E-01   -0.14774E-01  5760   0.206E+00-0.765E-03
CGA:  62    -0.218822107492E+03   -0.15249E-01   -0.14585E-01  5760   0.103E+00 0.465E-02
CGA:  63    -0.218834618854E+03   -0.12511E-01   -0.12527E-01  5760   0.162E+00 0.368E-02
CGA:  64    -0.218844801950E+03   -0.10183E-01   -0.10822E-01  5760   0.896E-01-0.104E-02
CGA:  65    -0.218857529865E+03   -0.12728E-01   -0.12696E-01  5760   0.162E+00-0.371E-03
CGA:  66    -0.218868254440E+03   -0.10725E-01   -0.10534E-01  5760   0.899E-01 0.364E-02
CGA:  67    -0.218879372145E+03   -0.11118E-01   -0.11129E-01  5760   0.106E+00 0.512E-02
SDA:  68    -0.218885817085E+03   -0.64449E-02   -0.69220E-02  5760   0.649E-01 0.366E-04
CGA:  69    -0.218899093053E+03   -0.13276E-01   -0.13199E-01  5760   0.135E+00 0.376E-03
CGA:  70    -0.218910579565E+03   -0.11487E-01   -0.11647E-01  5760   0.781E-01-0.454E-03
CGA:  71    -0.218926753766E+03   -0.16174E-01   -0.16125E-01  5760   0.312E-01-0.134E-03
CGA:  72    -0.218937267912E+03   -0.10514E-01   -0.10212E-01  5760   0.191E-01 0.122E-02
CGA:  73    -0.218941670375E+03   -0.44025E-02   -0.43932E-02  5760   0.308E-01-0.234E-03
CGA:  74    -0.218943718783E+03   -0.20484E-02   -0.21068E-02  5760   0.125E-01-0.184E-03
CGA:  75    -0.218946456958E+03   -0.27382E-02   -0.27356E-02  5760   0.625E-02 0.333E-04
CGA:  76    -0.218948201010E+03   -0.17441E-02   -0.17394E-02  5760   0.808E-02 0.215E-04
CGA:  77    -0.218948706705E+03   -0.50570E-03   -0.53371E-03  5760   0.416E-02-0.992E-04
CGA:  78    -0.218949966590E+03   -0.12599E-02   -0.12691E-02  5760   0.444E-02-0.920E-04
CGA:  79    -0.218951554352E+03   -0.15878E-02   -0.15668E-02  5760   0.546E-02 0.787E-04
CGA:  80    -0.218952712395E+03   -0.11580E-02   -0.11582E-02  5760   0.120E-01-0.128E-03
CGA:  81    -0.218953650946E+03   -0.93855E-03   -0.96647E-03  5760   0.460E-02-0.669E-04
CGA:  82    -0.218955076734E+03   -0.14258E-02   -0.14306E-02  5760   0.284E-02-0.329E-04
CGA:  83    -0.218955450225E+03   -0.37349E-03   -0.37425E-03  5760   0.527E-02-0.504E-04
CGA:  84    -0.218956096040E+03   -0.64582E-03   -0.65019E-03  5760   0.210E-02 0.776E-05
CGA:  85    -0.218956623350E+03   -0.52731E-03   -0.52718E-03  5760   0.254E-02 0.380E-05
CGA:  86    -0.218956824675E+03   -0.20132E-03   -0.20412E-03  5760   0.250E-02-0.707E-04
CGA:  87    -0.218957634531E+03   -0.80986E-03   -0.78658E-03  5760   0.284E-02 0.112E-03
CGA:  88    -0.218957997728E+03   -0.36320E-03   -0.36289E-03  5760   0.518E-02-0.976E-04
CGA:  89    -0.218958562096E+03   -0.56437E-03   -0.57453E-03  5760   0.270E-02 0.592E-04
CGA:  90    -0.218958947007E+03   -0.38491E-03   -0.38606E-03  5760   0.623E-02-0.964E-04
CGA:  91    -0.218959509302E+03   -0.56229E-03   -0.55905E-03  5760   0.232E-02 0.115E-04
CGA:  92    -0.218959765137E+03   -0.25584E-03   -0.25592E-03  5760   0.415E-02 0.323E-04
CGA:  93    -0.218960106827E+03   -0.34169E-03   -0.36610E-03  5760   0.163E-02 0.105E-03
CGA:  94    -0.218960228298E+03   -0.12147E-03   -0.12551E-03  5760   0.202E-02-0.929E-04
CGA:  95    -0.218960466045E+03   -0.23775E-03   -0.23537E-03  5760   0.153E-02-0.368E-04
CGA:  96    -0.218960560764E+03   -0.94719E-04   -0.94844E-04  5760   0.145E-02 0.425E-04
CGA:  97    -0.218960734187E+03   -0.17342E-03   -0.17920E-03  5760   0.147E-02 0.196E-03
CGA:  98    -0.218960808819E+03   -0.74632E-04   -0.86223E-04  5760   0.742E-03-0.131E-03
SDA:  99    -0.218960957712E+03   -0.14889E-03   -0.15745E-03  5760   0.191E-02-0.145E-03
CGA: 100    -0.218961035570E+03   -0.77858E-04   -0.85507E-04  5760   0.347E-03-0.578E-04
CGA: 101    -0.218961109641E+03   -0.74071E-04   -0.74542E-04  5760   0.310E-03-0.224E-05
CGA: 102    -0.218961167320E+03   -0.57679E-04   -0.56914E-04  5760   0.596E-03-0.556E-05
CGA: 103    -0.218961230193E+03   -0.62874E-04   -0.62445E-04  5760   0.335E-03-0.161E-05
CGA: 104    -0.218961308629E+03   -0.78435E-04   -0.76795E-04  5760   0.391E-03 0.491E-05
CGA: 105    -0.218961352982E+03   -0.44353E-04   -0.44183E-04  5760   0.514E-03 0.119E-05
CGA: 106    -0.218961461477E+03   -0.10850E-03   -0.10392E-03  5760   0.252E-03 0.500E-04
CGA: 107    -0.218961537281E+03   -0.75804E-04   -0.75760E-04  5760   0.458E-03 0.987E-05
CGA: 108    -0.218961575031E+03   -0.37750E-04   -0.40091E-04  5760   0.348E-03-0.227E-04
CGA: 109    -0.218961643496E+03   -0.68465E-04   -0.69748E-04  5760   0.192E-03-0.158E-04
CGA: 110    -0.218961696797E+03   -0.53301E-04   -0.53141E-04  5760   0.147E-03 0.166E-05
CGA: 111    -0.218961723228E+03   -0.26431E-04   -0.26349E-04  5760   0.247E-03 0.323E-06
CGA: 112    -0.218961745047E+03   -0.21820E-04   -0.22025E-04  5760   0.155E-03 0.299E-06
CGA: 113    -0.218961788354E+03   -0.43306E-04   -0.43374E-04  5760   0.103E-03-0.213E-05
CGA: 114    -0.218961827273E+03   -0.38919E-04   -0.38498E-04  5760   0.124E-03-0.460E-06
CGA: 115    -0.218961846474E+03   -0.19201E-04   -0.19250E-04  5760   0.191E-03 0.515E-06
CGA: 116    -0.218961862577E+03   -0.16103E-04   -0.16436E-04  5760   0.747E-04-0.476E-06
CGA: 117    -0.218961884257E+03   -0.21680E-04   -0.21754E-04  5760   0.603E-04-0.119E-05
CGA: 118    -0.218961898482E+03   -0.14224E-04   -0.14245E-04  5760   0.959E-04-0.742E-06
CGA: 119    -0.218961905352E+03   -0.68707E-05   -0.71207E-05  5760   0.552E-04-0.165E-05
CGA: 120    -0.218961919746E+03   -0.14393E-04   -0.14343E-04  5760   0.489E-04 0.505E-06
CGA: 121    -0.218961935923E+03   -0.16177E-04   -0.16529E-04  5760   0.587E-04-0.259E-05
CGA: 122    -0.218961942505E+03   -0.65828E-05   -0.65909E-05  5760   0.909E-04-0.112E-05
CGA: 123    -0.218961955691E+03   -0.13186E-04   -0.13285E-04  5760   0.482E-04 0.567E-06
CGA: 124    -0.218961970272E+03   -0.14581E-04   -0.14308E-04  5760   0.339E-04 0.212E-05
CGA: 125    -0.218961981376E+03   -0.11104E-04   -0.10950E-04  5760   0.555E-04 0.275E-06
CGA: 126    -0.218961986032E+03   -0.46564E-05   -0.46732E-05  5760   0.485E-04 0.105E-05
CGA: 127    -0.218961994249E+03   -0.82168E-05   -0.83312E-05  5760   0.229E-04 0.378E-05
CGA: 128    -0.218962000286E+03   -0.60367E-05   -0.59829E-05  5760   0.380E-04-0.635E-06
CGA: 129    -0.218962003229E+03   -0.29438E-05   -0.28532E-05  5760   0.289E-04 0.584E-06
SDA: 130    -0.218962011048E+03   -0.78187E-05   -0.77008E-05  5760   0.165E-04 0.105E-05
CGA: 131    -0.218962013267E+03   -0.22190E-05   -0.22485E-05  5760   0.156E-04 0.168E-06
CGA: 132    -0.218962014384E+03   -0.11166E-05   -0.11972E-05  5760   0.828E-05 0.103E-06
CGA: 133    -0.218962016414E+03   -0.20304E-05   -0.20537E-05  5760   0.482E-05-0.295E-06
CGA: 134    -0.218962018149E+03   -0.17349E-05   -0.18836E-05  5760   0.111E-04-0.866E-06
CGA: 135    -0.218962018839E+03   -0.68980E-06   -0.67816E-06  5760   0.806E-05 0.188E-06
CGA: 136    -0.218962020327E+03   -0.14884E-05   -0.14967E-05  5760   0.461E-05 0.115E-05
CGA: 137    -0.218962021221E+03   -0.89388E-06   -0.89045E-06  5760   0.134E-04-0.469E-06
CGA: 138    -0.218962022407E+03   -0.11857E-05   -0.11299E-05  5760   0.649E-05-0.525E-06
CGA: 139    -0.218962022871E+03   -0.46390E-06   -0.46640E-06  5760   0.849E-05-0.565E-07
CGA: 140    -0.218962023832E+03   -0.96160E-06   -0.10040E-05  5760   0.653E-05 0.607E-06
   1 F= -.23038630E+03 E0= -.23038122E+03  d E =-.101690E-01  mag=     6.0000
