 vasp.5.4.4.18Apr17-6-g9f103f2a35 (build Nov 22 2021 14:44:17) complex          
  
 executed on             LinuxIFC date 2022.08.08  10:57:10
 running on   64 total cores
 distrk:  each k-point on   64 cores,    1 groups
 distr:  one band on NCORES_PER_BAND=   4 cores,   16 groups


--------------------------------------------------------------------------------------------------------


 INCAR:
 POTCAR:    PAW_PBE Li 17Jan2003                  
 POTCAR:    PAW_PBE Co 02Aug2007                  
 POTCAR:    PAW_PBE O 08Apr2002                   
 POTCAR:    PAW_PBE Li 17Jan2003                  
   VRHFIN =Li: s1p0                                                             
   LEXCH  = PE                                                                  
   EATOM  =     5.3001 eV,    0.3895 Ry                                         
                                                                                
   TITEL  = PAW_PBE Li 17Jan2003                                                
   LULTRA =        F    use ultrasoft PP ?                                      
   IUNSCR =        1    unscreen: 0-lin 1-nonlin 2-no                           
   RPACOR =    1.500    partial core radius                                     
   POMASS =    7.010; ZVAL   =    1.000    mass and valenz                      
   RCORE  =    2.050    outmost cutoff radius                                   
   RWIGS  =    2.600; RWIGS  =    1.376    wigner-seitz radius (au A)           
   ENMAX  =  140.000; ENMIN  =  100.000 eV                                      
   ICORE  =        2    local potential                                         
   LCOR   =        T    correct aug charges                                     
   LPAW   =        T    paw PP                                                  
   EAUG   =  331.638                                                            
   DEXC   =    0.000                                                            
   RMAX   =    2.098    core radius for proj-oper                               
   RAUG   =    1.300    factor for augmentation sphere                          
   RDEP   =    2.094    radius for radial grids                                 
   RDEPT  =    1.810    core radius for aug-charge                              
                                                                                
   Atomic configuration                                                         
    4 entries                                                                   
     n  l   j            E        occ.                                          
     1  0  0.50       -51.8549   2.0000                                         
     2  0  0.50        -2.8742   1.0000                                         
     2  1  0.50        -1.3606   0.0000                                         
     3  2  1.50        -1.3606   0.0000                                         
   Description                                                                  
     l       E           TYP  RCUT    TYP  RCUT                                 
     0     -2.8742052     23  2.050                                             
     0     27.2116520     23  2.050                                             
     1     -1.3605826     23  2.050                                             
     2     -1.3605826     23  2.050                                             
  local pseudopotential read in
  partial core-charges read in
  partial kinetic energy density read in
  atomic valenz-charges read in
  non local Contribution for L=           0  read in
    real space projection operators read in
  non local Contribution for L=           0  read in
    real space projection operators read in
  non local Contribution for L=           1  read in
    real space projection operators read in
    PAW grid and wavefunctions read in
 
   number of l-projection  operators is LMAX  =           3
   number of lm-projection operators is LMMAX =           5
 
 POTCAR:    PAW_PBE Co 02Aug2007                  
   VRHFIN =Co: d8 s1                                                            
   LEXCH  = PE                                                                  
   EATOM  =   813.3670 eV,   59.7808 Ry                                         
                                                                                
   TITEL  = PAW_PBE Co 02Aug2007                                                
   LULTRA =        F    use ultrasoft PP ?                                      
   IUNSCR =        1    unscreen: 0-lin 1-nonlin 2-no                           
   RPACOR =    2.000    partial core radius                                     
   POMASS =   58.933; ZVAL   =    9.000    mass and valenz                      
   RCORE  =    2.300    outmost cutoff radius                                   
   RWIGS  =    2.460; RWIGS  =    1.302    wigner-seitz radius (au A)           
   ENMAX  =  267.968; ENMIN  =  200.976 eV                                      
   RCLOC  =    1.203    cutoff for local pot                                    
   LCOR   =        T    correct aug charges                                     
   LPAW   =        T    paw PP                                                  
   EAUG   =  477.818                                                            
   DEXC   =    0.000                                                            
   RMAX   =    2.360    core radius for proj-oper                               
   RAUG   =    1.300    factor for augmentation sphere                          
   RDEP   =    2.393    radius for radial grids                                 
   RDEPT  =    1.864    core radius for aug-charge                              
                                                                                
   Atomic configuration                                                         
    9 entries                                                                   
     n  l   j            E        occ.                                          
     1  0  0.50     -7587.6674   2.0000                                         
     2  0  0.50      -893.6084   2.0000                                         
     2  1  1.50      -764.5805   6.0000                                         
     3  0  0.50       -97.5973   2.0000                                         
     3  1  1.50       -60.9648   6.0000                                         
     3  2  2.50        -4.2382   8.0000                                         
     4  0  0.50        -4.3746   1.0000                                         
     4  1  1.50        -4.0817   0.0000                                         
     4  3  2.50        -1.3606   0.0000                                         
   Description                                                                  
     l       E           TYP  RCUT    TYP  RCUT                                 
     2     -4.2382362     23  2.300                                             
     2     -5.5988188     23  2.300                                             
     0     -4.3745797     23  2.300                                             
     0      5.7660125     23  2.300                                             
     1     -2.7211652     23  2.300                                             
     1     16.9860234     23  2.300                                             
  local pseudopotential read in
  partial core-charges read in
  partial kinetic energy density read in
  atomic valenz-charges read in
  non local Contribution for L=           2  read in
    real space projection operators read in
  non local Contribution for L=           2  read in
    real space projection operators read in
  non local Contribution for L=           0  read in
    real space projection operators read in
  non local Contribution for L=           0  read in
    real space projection operators read in
  non local Contribution for L=           1  read in
    real space projection operators read in
  non local Contribution for L=           1  read in
    real space projection operators read in
    PAW grid and wavefunctions read in
 
   number of l-projection  operators is LMAX  =           6
   number of lm-projection operators is LMMAX =          18
 
 POTCAR:    PAW_PBE O 08Apr2002                   
   VRHFIN =O: s2p4                                                              
   LEXCH  = PE                                                                  
   EATOM  =   432.3788 eV,   31.7789 Ry                                         
                                                                                
   TITEL  = PAW_PBE O 08Apr2002                                                 
   LULTRA =        F    use ultrasoft PP ?                                      
   IUNSCR =        1    unscreen: 0-lin 1-nonlin 2-no                           
   RPACOR =    1.200    partial core radius                                     
   POMASS =   16.000; ZVAL   =    6.000    mass and valenz                      
   RCORE  =    1.520    outmost cutoff radius                                   
   RWIGS  =    1.550; RWIGS  =    0.820    wigner-seitz radius (au A)           
   ENMAX  =  400.000; ENMIN  =  300.000 eV                                      
   ICORE  =        2    local potential                                         
   LCOR   =        T    correct aug charges                                     
   LPAW   =        T    paw PP                                                  
   EAUG   =  605.392                                                            
   DEXC   =    0.000                                                            
   RMAX   =    1.553    core radius for proj-oper                               
   RAUG   =    1.300    factor for augmentation sphere                          
   RDEP   =    1.550    radius for radial grids                                 
   RDEPT  =    1.329    core radius for aug-charge                              
                                                                                
   Atomic configuration                                                         
    4 entries                                                                   
     n  l   j            E        occ.                                          
     1  0  0.50      -514.6923   2.0000                                         
     2  0  0.50       -23.9615   2.0000                                         
     2  1  0.50        -9.0305   4.0000                                         
     3  2  1.50        -9.5241   0.0000                                         
   Description                                                                  
     l       E           TYP  RCUT    TYP  RCUT                                 
     0    -23.9615318     23  1.200                                             
     0     -9.5240782     23  1.200                                             
     1     -9.0304911     23  1.520                                             
     1      8.1634956     23  1.520                                             
     2     -9.5240782      7  1.500                                             
  local pseudopotential read in
  partial core-charges read in
  partial kinetic energy density read in
  kinetic energy density of atom read in
  atomic valenz-charges read in
  non local Contribution for L=           0  read in
    real space projection operators read in
  non local Contribution for L=           0  read in
    real space projection operators read in
  non local Contribution for L=           1  read in
    real space projection operators read in
  non local Contribution for L=           1  read in
    real space projection operators read in
    PAW grid and wavefunctions read in
 
   number of l-projection  operators is LMAX  =           4
   number of lm-projection operators is LMMAX =           8
 
 Optimization of the real space projectors (new method)

 maximal supplied QI-value         = 18.33
 optimisation between [QCUT,QGAM] = [ 12.46, 24.93] = [ 43.51,174.03] Ry 
 Optimized for a Real-space Cutoff    1.13 Angstroem

   l    n(q)    QCUT    max X(q) W(low)/X(q) W(high)/X(q)  e(spline) 
   0      8    12.465    33.825    0.12E-03    0.29E-03    0.99E-07
   0      8    12.465     8.944    0.86E-04    0.22E-03    0.72E-07
   1      8    12.465     4.214    0.27E-03    0.11E-03    0.82E-07
 Optimization of the real space projectors (new method)

 maximal supplied QI-value         = 16.25
 optimisation between [QCUT,QGAM] = [ 12.51, 25.03] = [ 43.85,175.40] Ry 
 Optimized for a Real-space Cutoff    1.31 Angstroem

   l    n(q)    QCUT    max X(q) W(low)/X(q) W(high)/X(q)  e(spline) 
   2      9    12.514    65.824    0.30E-03    0.46E-03    0.43E-06
   2      9    12.514    61.429    0.31E-03    0.46E-03    0.44E-06
   0     10    12.514    56.174    0.90E-04    0.33E-03    0.30E-06
   0     10    12.514    31.263    0.81E-04    0.30E-03    0.28E-06
   1      9    12.514    19.828    0.38E-03    0.65E-04    0.24E-06
   1      9    12.514    15.139    0.32E-03    0.60E-04    0.20E-06
 Optimization of the real space projectors (new method)

 maximal supplied QI-value         = 24.76
 optimisation between [QCUT,QGAM] = [ 12.38, 25.00] = [ 42.90,175.06] Ry 
 Optimized for a Real-space Cutoff    1.13 Angstroem

   l    n(q)    QCUT    max X(q) W(low)/X(q) W(high)/X(q)  e(spline) 
   0      8    12.378    20.381    0.16E-03    0.54E-05    0.27E-06
   0      8    12.378    15.268    0.17E-03    0.61E-05    0.29E-06
   1      8    12.378     5.964    0.38E-03    0.23E-03    0.28E-06
   1      8    12.378     5.382    0.33E-03    0.20E-03    0.25E-06
  PAW_PBE Li 17Jan2003                  :
 energy of atom  1       EATOM=   -5.3001
 kinetic energy error for atom=    0.0000 (will be added to EATOM!!)
  PAW_PBE Co 02Aug2007                  :
 energy of atom  2       EATOM= -813.3670
 kinetic energy error for atom=    0.0018 (will be added to EATOM!!)
  PAW_PBE O 08Apr2002                   :
 energy of atom  3       EATOM= -432.3788
 kinetic energy error for atom=    0.0168 (will be added to EATOM!!)
 
 
 POSCAR: Li6 Co12 O24                            
  positions in cartesian coordinates
  No initial velocities read in
 exchange correlation table for  LEXCH =        8
   RHO(1)=    0.500       N(1)  =     2000
   RHO(2)=  100.500       N(2)  =     4000
 


--------------------------------------------------------------------------------------------------------


 ion  position               nearest neighbor table
   1  0.501  0.054  0.012-  25 1.80  23 1.85  37 1.85  36 1.91  38 2.23  24 2.27   9 2.35  15 2.54
                             8 2.55  16 2.73  17 2.73  10 2.76
   2  0.803  0.643  0.329-  34 1.89  22 1.94  20 1.95  32 1.96  19 2.05  33 2.05  14 2.46   9 2.52
                            11 2.59  10 2.64  12 2.66   8 2.75
   3  0.191  0.322  0.664-  27 1.90  28 2.05  42 2.10  39 2.11  40 2.12  29 2.14   5 2.47   4 2.59
                             6 2.65  11 2.73  15 2.77  14 2.78   6 2.85  16 2.85  17 2.85  12 2.92
   4  0.188  0.851  0.670-  39 1.85  41 2.01  27 2.05  40 2.06  30 2.11  28 2.14   5 2.43   6 2.59
                             3 2.59  15 2.78  18 2.80  13 2.80  16 2.86  11 2.90   6 2.91  12 2.93
   5  0.628  0.299  0.675-  42 1.88  27 1.95  41 1.97  40 2.17  29 2.19  30 2.25   4 2.43   3 2.47
                            15 2.61   6 2.65  18 2.78  13 2.81  17 2.86   6 2.88  14 2.90   3 3.03
   6  0.647  0.828  0.661-  28 1.90  41 1.91  42 1.97  29 2.13  30 2.15  39 2.18   4 2.59   3 2.65
                             5 2.65  13 2.73  14 2.73  16 2.80  11 2.83   3 2.85  17 2.86   5 2.88
   7  0.143  0.328  0.170-  22 1.78  23 1.78  20 1.79  24 1.82  19 1.87  25 1.88   9 2.59  10 2.69
                             8 2.70  10 2.78   8 2.83   9 2.90
   8  0.152  0.843  0.160-  23 1.82  21 1.84  20 1.85  24 1.87  19 1.91  26 1.96   1 2.55   9 2.60
                             7 2.70  10 2.70   2 2.75  10 2.80   7 2.83   9 2.87
   9  0.617  0.330  0.167-  26 1.81  22 1.82  21 1.83  23 1.87  25 1.87  20 1.88   1 2.35   2 2.52
                             7 2.59   8 2.60  10 2.77  10 2.77   8 2.87   7 2.90
  10  0.644  0.844  0.177-  25 1.78  24 1.81  26 1.89  22 1.89  19 1.93  21 1.96   2 2.64   7 2.69
                             8 2.70   1 2.76   9 2.77   9 2.77   7 2.78   8 2.80
  11  0.001  1.000  0.485-  32 1.80  34 1.80  31 1.83  29 1.84  27 1.90  30 1.99   2 2.59  12 2.69
                            13 2.73   3 2.73  14 2.74  14 2.74  13 2.76   6 2.83  12 2.85   4 2.90
  12  0.036  0.502  0.478-  28 1.81  31 1.84  32 1.86  29 1.93  33 1.94  30 1.95  13 2.59  14 2.65
                             2 2.66  11 2.69  14 2.84  11 2.85  13 2.89   3 2.92   4 2.93   5 3.21
  13  0.498  0.988  0.486-  33 1.75  34 1.78  29 1.86  32 1.89  27 1.89  28 1.95  12 2.59  11 2.73
                             6 2.73  14 2.74  11 2.76  14 2.79   4 2.80   5 2.81  12 2.89
  14  0.511  0.490  0.486-  33 1.81  31 1.83  34 1.85  28 1.86  30 1.86  27 1.89   2 2.46  12 2.65
                             6 2.73  13 2.74  11 2.74  11 2.74   3 2.78  13 2.79  12 2.84   5 2.90
  15  0.350  0.194  0.849-  35 1.81  37 1.83  36 1.92  39 1.94  42 2.00  41 2.07   1 2.54   5 2.61
                            17 2.62  16 2.64  18 2.67   3 2.77   4 2.78  18 2.81  17 2.87  16 2.89
  16  0.355  0.674  0.849-  36 1.81  41 1.84  38 1.85  35 1.87  40 1.91  42 1.94  15 2.64  17 2.73
                             1 2.73  18 2.74  17 2.75  18 2.75   6 2.80   3 2.85   4 2.86  15 2.89
  17  0.859  0.167  0.848-  35 1.80  38 1.85  37 1.87  41 1.90  39 1.96  40 2.01  15 2.62  16 2.73
                             1 2.73  18 2.74  16 2.75  18 2.78   3 2.85   6 2.86   5 2.86  15 2.87
  18  0.853  0.668  0.847-  42 1.80  36 1.83  38 1.84  37 1.85  40 1.86  39 1.86  15 2.67  16 2.74
                            17 2.74  16 2.75   5 2.78  17 2.78   4 2.80  15 2.81   6 3.00
  19  0.999  0.011  0.251-   7 1.87   8 1.91  10 1.93   2 2.05
  20  0.980  0.508  0.228-   7 1.79   8 1.85   9 1.88   2 1.95
  21  0.459  0.025  0.249-   9 1.83   8 1.84  10 1.96
  22  0.462  0.499  0.244-   7 1.78   9 1.82  10 1.89   2 1.94
  23  0.282  0.162  0.088-   7 1.78   8 1.82   1 1.85   9 1.87
  24  0.322  0.652  0.099-  10 1.81   7 1.82   8 1.87   1 2.27
  25  0.791  0.149  0.101-  10 1.78   1 1.80   9 1.87   7 1.88
  26  0.776  0.646  0.094-   9 1.81  10 1.89   8 1.96
  27  0.341  0.167  0.566-  14 1.89  13 1.89  11 1.90   3 1.90   5 1.95   4 2.05
  28  0.339  0.647  0.565-  12 1.81  14 1.86   6 1.90  13 1.95   3 2.05   4 2.14
  29  0.839  0.171  0.560-  11 1.84  13 1.86  12 1.93   6 2.13   3 2.14   5 2.19
  30  0.843  0.651  0.564-  14 1.86  12 1.95  11 1.99   4 2.11   6 2.15   5 2.25
  31  0.185  0.312  0.407-  11 1.83  14 1.83  12 1.84
  32  0.156  0.835  0.409-  11 1.80  12 1.86  13 1.89   2 1.96
  33  0.657  0.299  0.419-  13 1.75  14 1.81  12 1.94   2 2.05
  34  0.666  0.825  0.418-  13 1.78  11 1.80  14 1.85   2 1.89
  35  0.179  0.348  0.925-  17 1.80  15 1.81  16 1.87
  36  0.190  0.844  0.917-  16 1.81  18 1.83   1 1.91  15 1.92
  37  0.686  0.341  0.920-  15 1.83  18 1.85   1 1.85  17 1.87
  38  0.693  0.841  0.922-  18 1.84  16 1.85  17 1.85   1 2.23
  39  0.014  0.977  0.763-   4 1.85  18 1.86  15 1.94  17 1.96   3 2.11   6 2.18
  40  0.021  0.512  0.764-  18 1.86  16 1.91  17 2.01   4 2.06   3 2.12   5 2.17
  41  0.519  0.985  0.768-  16 1.84  17 1.90   6 1.91   5 1.97   4 2.01  15 2.07
  42  0.550  0.533  0.762-  18 1.80   5 1.88  16 1.94   6 1.97  15 2.00   3 2.10
 

IMPORTANT INFORMATION: All symmetrisations will be switched off!
NOSYMM: (Re-)initialisation of all symmetry stuff for point group C_1.

 
 

Automatic generation of k-mesh.
 generate k-points for:    6    6    2
Space group operators:
 irot       det(A)        alpha          n_x          n_y          n_z        tau_x        tau_y        tau_z
    1     1.000000     0.000000     1.000000     0.000000     0.000000     0.000000     0.000000     0.000000
 
 Subroutine IBZKPT returns following result:
 ===========================================
 
 Found     36 irreducible k-points:
 
 Following reciprocal coordinates:
            Coordinates               Weight
  0.083333  0.083333  0.250000      2.000000
  0.250000  0.083333  0.250000      2.000000
  0.416667  0.083333  0.250000      2.000000
 -0.416667  0.083333  0.250000      2.000000
 -0.250000  0.083333  0.250000      2.000000
 -0.083333  0.083333  0.250000      2.000000
  0.083333  0.250000  0.250000      2.000000
  0.250000  0.250000  0.250000      2.000000
  0.416667  0.250000  0.250000      2.000000
 -0.416667  0.250000  0.250000      2.000000
 -0.250000  0.250000  0.250000      2.000000
 -0.083333  0.250000  0.250000      2.000000
  0.083333  0.416667  0.250000      2.000000
  0.250000  0.416667  0.250000      2.000000
  0.416667  0.416667  0.250000      2.000000
 -0.416667  0.416667  0.250000      2.000000
 -0.250000  0.416667  0.250000      2.000000
 -0.083333  0.416667  0.250000      2.000000
  0.083333 -0.416667  0.250000      2.000000
  0.250000 -0.416667  0.250000      2.000000
  0.416667 -0.416667  0.250000      2.000000
 -0.416667 -0.416667  0.250000      2.000000
 -0.250000 -0.416667  0.250000      2.000000
 -0.083333 -0.416667  0.250000      2.000000
  0.083333 -0.250000  0.250000      2.000000
  0.250000 -0.250000  0.250000      2.000000
  0.416667 -0.250000  0.250000      2.000000
 -0.416667 -0.250000  0.250000      2.000000
 -0.250000 -0.250000  0.250000      2.000000
 -0.083333 -0.250000  0.250000      2.000000
  0.083333 -0.083333  0.250000      2.000000
  0.250000 -0.083333  0.250000      2.000000
  0.416667 -0.083333  0.250000      2.000000
 -0.416667 -0.083333  0.250000      2.000000
 -0.250000 -0.083333  0.250000      2.000000
 -0.083333 -0.083333  0.250000      2.000000
 
 Following cartesian coordinates:
            Coordinates               Weight
  0.015200  0.026403  0.020312      2.000000
  0.045600  0.044226  0.020757      2.000000
  0.076000  0.062049  0.021202      2.000000
 -0.076000 -0.027066  0.018977      2.000000
 -0.045600 -0.009243  0.019422      2.000000
 -0.015200  0.008580  0.019867      2.000000
  0.015200  0.061386  0.021637      2.000000
  0.045600  0.079209  0.022082      2.000000
  0.076000  0.097032  0.022527      2.000000
 -0.076000  0.007918  0.020302      2.000000
 -0.045600  0.025740  0.020747      2.000000
 -0.015200  0.043563  0.021192      2.000000
  0.015200  0.096370  0.022962      2.000000
  0.045600  0.114193  0.023407      2.000000
  0.076000  0.132015  0.023852      2.000000
 -0.076000  0.042901  0.021627      2.000000
 -0.045600  0.060724  0.022072      2.000000
 -0.015200  0.078547  0.022517      2.000000
  0.015200 -0.078547  0.016337      2.000000
  0.045600 -0.060724  0.016782      2.000000
  0.076000 -0.042901  0.017227      2.000000
 -0.076000 -0.132015  0.015002      2.000000
 -0.045600 -0.114193  0.015447      2.000000
 -0.015200 -0.096370  0.015892      2.000000
  0.015200 -0.043563  0.017662      2.000000
  0.045600 -0.025740  0.018107      2.000000
  0.076000 -0.007918  0.018552      2.000000
 -0.076000 -0.097032  0.016327      2.000000
 -0.045600 -0.079209  0.016772      2.000000
 -0.015200 -0.061386  0.017217      2.000000
  0.015200 -0.008580  0.018987      2.000000
  0.045600  0.009243  0.019432      2.000000
  0.076000  0.027066  0.019877      2.000000
 -0.076000 -0.062049  0.017652      2.000000
 -0.045600 -0.044226  0.018097      2.000000
 -0.015200 -0.026403  0.018542      2.000000
 


--------------------------------------------------------------------------------------------------------




 Dimension of arrays:
   k-points           NKPTS =     36   k-points in BZ     NKDIM =     36   number of bands    NBANDS=    160
   number of dos      NEDOS =    301   number of ions     NIONS =     42
   non local maximal  LDIM  =      6   non local SUM 2l+1 LMDIM =     18
   total plane-waves  NPLWV = 103680
   max r-space proj   IRMAX =   2933   max aug-charges    IRDMAX=  12363
   dimension x,y,z NGX =    36 NGY =   36 NGZ =   80
   dimension x,y,z NGXF=    72 NGYF=   72 NGZF=  160
   support grid    NGXF=    72 NGYF=   72 NGZF=  160
   ions per type =               6  12  24
   NGX,Y,Z   is equivalent  to a cutoff of  10.92, 10.84, 10.33 a.u.
   NGXF,Y,Z  is equivalent  to a cutoff of  21.83, 21.67, 20.65 a.u.

 SYSTEM =  LiCoO2                                  
 POSCAR =  Li6 Co12 O24                            

 Startparameter for this run:
   NWRITE =      2    write-flag & timer
   PREC   = normal    normal or accurate (medium, high low for compatibility)
   ISTART =      0    job   : 0-new  1-cont  2-samecut
   ICHARG =      2    charge: 1-file 2-atom 10-const
   ISPIN  =      2    spin polarized calculation?
   LNONCOLLINEAR =      F non collinear calculations
   LSORBIT =      F    spin-orbit coupling
   INIWAV =      1    electr: 0-lowe 1-rand  2-diag
   LASPH  =      F    aspherical Exc in radial PAW
   METAGGA=      F    non-selfconsistent MetaGGA calc.

 Electronic Relaxation 1
   ENCUT  =  600.0 eV  44.10 Ry    6.64 a.u.  10.95 11.03 25.72*2*pi/ulx,y,z
   ENINI  =  600.0     initial cutoff
   ENAUG  =  605.4 eV  augmentation charge cutoff
   NELM   =    600;   NELMIN=  2; NELMDL= -5     # of ELM steps 
   EDIFF  = 0.1E-05   stopping-criterion for ELM
   LREAL  =      T    real-space projection
   NLSPLINE    = F    spline interpolate recip. space projectors
   LCOMPAT=      F    compatible to vasp.4.4
   GGA_COMPAT  = T    GGA compatible to vasp.4.4-vasp.4.6
   LMAXPAW     = -100 max onsite density
   LMAXMIX     =    2 max onsite mixed and CHGCAR
   VOSKOWN=      0    Vosko Wilk Nusair interpolation
   ROPT   =   -0.00050  -0.00050  -0.00050
 Ionic relaxation
   EDIFFG = 0.1E-04   stopping-criterion for IOM
   NSW    =      0    number of steps for IOM
   NBLOCK =      1;   KBLOCK =      1    inner block; outer block 
   IBRION =     -1    ionic relax: 0-MD 1-quasi-New 2-CG
   NFREE  =      0    steps in history (QN), initial steepest desc. (CG)
   ISIF   =      2    stress and relaxation
   IWAVPR =     10    prediction:  0-non 1-charg 2-wave 3-comb
   ISYM   =      0    0-nonsym 1-usesym 2-fastsym
   LCORR  =      T    Harris-Foulkes like correction to forces

   POTIM  = 0.5000    time-step for ionic-motion
   TEIN   =    0.0    initial temperature
   TEBEG  =    0.0;   TEEND  =   0.0 temperature during run
   SMASS  =  -3.00    Nose mass-parameter (am)
   estimated Nose-frequenzy (Omega)   =  0.10E-29 period in steps =****** mass=  -0.687E-27a.u.
   SCALEE = 1.0000    scale energy and forces
   NPACO  =    256;   APACO  = 16.0  distance and # of slots for P.C.
   PSTRESS=    0.0 pullay stress

  Mass of Ions in am
   POMASS =   7.01 58.93 16.00
  Ionic Valenz
   ZVAL   =   1.00  9.00  6.00
  Atomic Wigner-Seitz radii
   RWIGS  =  -1.00 -1.00 -1.00
  virtual crystal weights 
   VCA    =   1.00  1.00  1.00
   NELECT =     258.0000    total number of electrons
   NUPDOWN=       6.0000    fix difference up-down

 DOS related values:
   EMIN   =  10.00;   EMAX   =-10.00  energy-range for DOS
   EFERMI =   0.00
   ISMEAR =     0;   SIGMA  =   0.05  broadening in eV -4-tet -1-fermi 0-gaus

 Electronic relaxation 2 (details)
   IALGO  =     58    algorithm
   LDIAG  =      T    sub-space diagonalisation (order eigenvalues)
   LSUBROT=      F    optimize rotation matrix (better conditioning)
   TURBO    =      0    0=normal 1=particle mesh
   IRESTART =      0    0=no restart 2=restart with 2 vectors
   NREBOOT  =      0    no. of reboots
   NMIN     =      0    reboot dimension
   EREF     =   0.00    reference energy to select bands
   IMIX   =      4    mixing-type and parameters
     AMIX     =   0.40;   BMIX     =  1.00
     AMIX_MAG =   1.60;   BMIX_MAG =  1.00
     AMIN     =   0.10
     WC   =   100.;   INIMIX=   1;  MIXPRE=   1;  MAXMIX= -45

 Intra band minimization:
   WEIMIN = 0.0000     energy-eigenvalue tresh-hold
   EBREAK =  0.16E-08  absolut break condition
   DEPER  =   0.30     relativ break condition  

   TIME   =   0.40     timestep for ELM

  volume/ion in A,a.u.               =       8.00        54.01
  Fermi-wavevector in a.u.,A,eV,Ry     =   1.498931  2.832570 30.569508  2.246795
  Thomas-Fermi vector in A             =   2.610627
 
 Write flags
   LWAVE        =      F    write WAVECAR
   LDOWNSAMPLE  =      F    k-point downsampling of WAVECAR
   LCHARG       =      F    write CHGCAR
   LVTOT        =      F    write LOCPOT, total local potential
   LVHAR        =      F    write LOCPOT, Hartree potential only
   LELF         =      F    write electronic localiz. function (ELF)
   LORBIT       =     11    0 simple, 1 ext, 2 COOP (PROOUT), +10 PAW based schemes


 Dipole corrections
   LMONO  =      F    monopole corrections only (constant potential shift)
   LDIPOL =      F    correct potential (dipole corrections)
   IDIPOL =      0    1-x, 2-y, 3-z, 4-all directions 
   EPSILON=  1.0000000 bulk dielectric constant

 LDA+U is selected, type is set to LDAUTYPE =  2
   angular momentum for each species LDAUL =    -1    2   -1
   U (eV)           for each species LDAUU =   0.0  5.1  0.0
   J (eV)           for each species LDAUJ =   0.0  0.0  0.0
 Exchange correlation treatment:
   GGA     =    --    GGA type
   LEXCH   =     8    internal setting for exchange type
   VOSKOWN=      0    Vosko Wilk Nusair interpolation
   LHFCALC =     F    Hartree Fock is set to
   LHFONE  =     F    Hartree Fock one center treatment
   AEXX    =    0.0000 exact exchange contribution

 Linear response parameters
   LEPSILON=     F    determine dielectric tensor
   LRPA    =     F    only Hartree local field effects (RPA)
   LNABLA  =     F    use nabla operator in PAW spheres
   LVEL    =     F    velocity operator in full k-point grid
   LINTERFAST=   F  fast interpolation
   KINTER  =     0    interpolate to denser k-point grid
   CSHIFT  =0.1000    complex shift for real part using Kramers Kronig
   OMEGAMAX=  -1.0    maximum frequency
   DEG_THRESHOLD= 0.2000000E-02 threshold for treating states as degnerate
   RTIME   =   -0.100 relaxation time in fs
  (WPLASMAI=    0.000 imaginary part of plasma frequency in eV, 0.658/RTIME)
   DFIELD  = 0.0000000 0.0000000 0.0000000 field for delta impulse in time
 
 Orbital magnetization related:
   ORBITALMAG=     F  switch on orbital magnetization
   LCHIMAG   =     F  perturbation theory with respect to B field
   DQ        =  0.001000  dq finite difference perturbation B field
   LLRAUG    =     F  two centre corrections for induced B field



--------------------------------------------------------------------------------------------------------


 Static calculation
 charge density and potential will be updated during run
 spin polarized calculation
 Conjugate gradient for all bands (Freysoldt, et al. PRB 79, 241103 (2009))
 preconditioned conjugated gradient                                        
 perform sub-space diagonalisation
    before iterative eigenvector-optimisation
 modified Broyden-mixing scheme, WC =      100.0
 initial mixing is a Kerker type mixing with AMIX =  0.4000 and BMIX =      1.0000
 Hartree-type preconditioning will be used
 using additional bands           31
 real space projection scheme for non local part
 use partial core corrections
 no Harris-corrections to forces 
 use gradient corrections 
 use of overlap-Matrix (Vanderbilt PP)
 Gauss-broadening in eV      SIGMA  =   0.05


--------------------------------------------------------------------------------------------------------


  energy-cutoff  :      600.00
  volume of cell :      336.12
      direct lattice vectors                 reciprocal lattice vectors
     5.482486248  0.000000000  0.000000000     0.182398998  0.106937626  0.002669929
    -2.793165445  4.764184475  0.000000000     0.000000000  0.209899513  0.007949513
     0.097369984 -0.487373441 12.868643761     0.000000000  0.000000000  0.077708267

  length of vectors
     5.482486248  5.522610516 12.878237691     0.211452546  0.210049995  0.077708267


 
 k-points in units of 2pi/SCALE and weight: read from INCAR                         
   0.01519992  0.02640309  0.02031202       0.028
   0.04559975  0.04422603  0.02075701       0.028
   0.07599958  0.06204897  0.02120200       0.028
  -0.07599958 -0.02706572  0.01897706       0.028
  -0.04559975 -0.00924278  0.01942204       0.028
  -0.01519992  0.00858016  0.01986703       0.028
   0.01519992  0.06138635  0.02163694       0.028
   0.04559975  0.07920928  0.02208193       0.028
   0.07599958  0.09703222  0.02252692       0.028
  -0.07599958  0.00791753  0.02030197       0.028
  -0.04559975  0.02574047  0.02074696       0.028
  -0.01519992  0.04356341  0.02119195       0.028
   0.01519992  0.09636960  0.02296186       0.028
   0.04559975  0.11419254  0.02340685       0.028
   0.07599958  0.13201547  0.02385183       0.028
  -0.07599958  0.04290079  0.02162689       0.028
  -0.04559975  0.06072372  0.02207188       0.028
  -0.01519992  0.07854666  0.02251687       0.028
   0.01519992 -0.07854666  0.01633726       0.028
   0.04559975 -0.06072372  0.01678225       0.028
   0.07599958 -0.04290079  0.01722724       0.028
  -0.07599958 -0.13201547  0.01500230       0.028
  -0.04559975 -0.11419254  0.01544729       0.028
  -0.01519992 -0.09636960  0.01589228       0.028
   0.01519992 -0.04356341  0.01766218       0.028
   0.04559975 -0.02574047  0.01810717       0.028
   0.07599958 -0.00791753  0.01855216       0.028
  -0.07599958 -0.09703222  0.01632722       0.028
  -0.04559975 -0.07920928  0.01677221       0.028
  -0.01519992 -0.06138635  0.01721719       0.028
   0.01519992 -0.00858016  0.01898710       0.028
   0.04559975  0.00924278  0.01943209       0.028
   0.07599958  0.02706572  0.01987708       0.028
  -0.07599958 -0.06204897  0.01765214       0.028
  -0.04559975 -0.04422603  0.01809712       0.028
  -0.01519992 -0.02640309  0.01854211       0.028
 
 k-points in reciprocal lattice and weights: read from INCAR                         
   0.08333333  0.08333333  0.25000000       0.028
   0.25000000  0.08333333  0.25000000       0.028
   0.41666667  0.08333333  0.25000000       0.028
  -0.41666667  0.08333333  0.25000000       0.028
  -0.25000000  0.08333333  0.25000000       0.028
  -0.08333333  0.08333333  0.25000000       0.028
   0.08333333  0.25000000  0.25000000       0.028
   0.25000000  0.25000000  0.25000000       0.028
   0.41666667  0.25000000  0.25000000       0.028
  -0.41666667  0.25000000  0.25000000       0.028
  -0.25000000  0.25000000  0.25000000       0.028
  -0.08333333  0.25000000  0.25000000       0.028
   0.08333333  0.41666667  0.25000000       0.028
   0.25000000  0.41666667  0.25000000       0.028
   0.41666667  0.41666667  0.25000000       0.028
  -0.41666667  0.41666667  0.25000000       0.028
  -0.25000000  0.41666667  0.25000000       0.028
  -0.08333333  0.41666667  0.25000000       0.028
   0.08333333 -0.41666667  0.25000000       0.028
   0.25000000 -0.41666667  0.25000000       0.028
   0.41666667 -0.41666667  0.25000000       0.028
  -0.41666667 -0.41666667  0.25000000       0.028
  -0.25000000 -0.41666667  0.25000000       0.028
  -0.08333333 -0.41666667  0.25000000       0.028
   0.08333333 -0.25000000  0.25000000       0.028
   0.25000000 -0.25000000  0.25000000       0.028
   0.41666667 -0.25000000  0.25000000       0.028
  -0.41666667 -0.25000000  0.25000000       0.028
  -0.25000000 -0.25000000  0.25000000       0.028
  -0.08333333 -0.25000000  0.25000000       0.028
   0.08333333 -0.08333333  0.25000000       0.028
   0.25000000 -0.08333333  0.25000000       0.028
   0.41666667 -0.08333333  0.25000000       0.028
  -0.41666667 -0.08333333  0.25000000       0.028
  -0.25000000 -0.08333333  0.25000000       0.028
  -0.08333333 -0.08333333  0.25000000       0.028
 
 position of ions in fractional coordinates (direct lattice) 
   0.50128706  0.05417957  0.01173939
   0.80340171  0.64279955  0.32860959
   0.19096855  0.32166478  0.66448106
   0.18777972  0.85139885  0.66989964
   0.62813264  0.29878782  0.67541694
   0.64674241  0.82787783  0.66112091
   0.14348265  0.32767183  0.17007310
   0.15205087  0.84269954  0.15982804
   0.61650784  0.32968919  0.16668968
   0.64424863  0.84422843  0.17680495
   0.00096304  0.99985036  0.48513427
   0.03592616  0.50248668  0.47811254
   0.49784113  0.98772158  0.48590592
   0.51145016  0.48986777  0.48560363
   0.35045199  0.19447143  0.84915944
   0.35498563  0.67404324  0.84862326
   0.85877789  0.16679358  0.84814919
   0.85258132  0.66768448  0.84695249
   0.99933021  0.01059036  0.25147950
   0.97960738  0.50760182  0.22791291
   0.45893076  0.02493441  0.24899205
   0.46243489  0.49916487  0.24439872
   0.28201184  0.16162596  0.08762462
   0.32219740  0.65173494  0.09931894
   0.79052118  0.14926850  0.10064697
   0.77626007  0.64619725  0.09377368
   0.34071484  0.16715450  0.56594152
   0.33916982  0.64712176  0.56531053
   0.83907679  0.17147947  0.55965261
   0.84329829  0.65090779  0.56446428
   0.18539900  0.31217730  0.40736771
   0.15647118  0.83460437  0.40933529
   0.65722994  0.29914457  0.41877529
   0.66562008  0.82526957  0.41800908
   0.17923454  0.34780530  0.92540673
   0.19006618  0.84420750  0.91738724
   0.68602831  0.34088503  0.91976516
   0.69279014  0.84068894  0.92195654
   0.01420739  0.97711019  0.76326071
   0.02064601  0.51218439  0.76413882
   0.51869831  0.98464480  0.76799313
   0.54991119  0.53256833  0.76184643
 
 position of ions in cartesian coordinates  (Angst):
   2.59810996  0.25240001  0.15107000
   2.64119005  2.90226007  4.22875977
   0.21322000  1.20861995  8.55097008
  -1.28337002  3.72972989  8.62069988
   2.67493010  1.09430003  8.69169998
   1.29772997  3.62194991  8.50772953
  -0.11204000  1.47819996  2.18861008
  -1.50461996  3.93688011  2.05677009
   2.47534990  1.48945999  2.14507008
   1.19123006  3.93588996  2.27523994
  -2.74023008  4.52702999  6.24302006
  -1.16000998  2.16091990  6.15265989
   0.01785000  4.46887016  6.25295019
   1.48301995  2.09715009  6.24906015
   1.46083999  0.51264000 10.92753029
   0.14612000  2.79766989 10.92063046
   4.32494020  0.38126999 10.91452980
   2.89177990  2.76818991 10.89912987
   5.47372007 -0.07211000  3.23620009
   3.97505999  2.30723000  2.93292999
   2.47068000 -0.00256000  3.20419002
   1.16483998  2.25900006  3.14508009
   1.10320997  0.72731000  1.12760997
  -0.04429000  3.05658007  1.27810001
   3.92688990  0.66209000  1.29518998
   2.46003008  3.03290009  1.20674002
   1.45617998  0.52052999  7.28289986
   0.10702000  2.80749011  7.27477980
   4.17574978  0.54420000  7.20197010
   2.86023998  2.82593989  7.26388979
   0.18415000  1.28873003  5.24226999
  -1.43348002  3.77671003  5.26759005
   2.80847001  1.22107995  5.38907003
   1.38484001  3.72800994  5.37921000
   0.10128000  1.20598996 11.90872955
  -1.22665000  3.57485008 11.80552959
   2.89855003  1.17577004 11.83613014
   1.53980005  3.55586004 11.86433029
  -2.57701993  4.28314018  9.82213020
  -1.24302006  2.06771994  9.83343029
   0.16825999  4.31673002  9.88302994
   1.60151005  2.16595006  9.80393028
 


--------------------------------------------------------------------------------------------------------


 k-point  1 :   0.0833 0.0833 0.2500  plane waves:   11188
 k-point  2 :   0.2500 0.0833 0.2500  plane waves:   11215
 k-point  3 :   0.4167 0.0833 0.2500  plane waves:   11227
 k-point  4 :  -0.4167 0.0833 0.2500  plane waves:   11234
 k-point  5 :  -0.2500 0.0833 0.2500  plane waves:   11207
 k-point  6 :  -0.0833 0.0833 0.2500  plane waves:   11157
 k-point  7 :   0.0833 0.2500 0.2500  plane waves:   11217
 k-point  8 :   0.2500 0.2500 0.2500  plane waves:   11229
 k-point  9 :   0.4167 0.2500 0.2500  plane waves:   11216
 k-point 10 :  -0.4167 0.2500 0.2500  plane waves:   11230
 k-point 11 :  -0.2500 0.2500 0.2500  plane waves:   11228
 k-point 12 :  -0.0833 0.2500 0.2500  plane waves:   11194
 k-point 13 :   0.0833 0.4167 0.2500  plane waves:   11220
 k-point 14 :   0.2500 0.4167 0.2500  plane waves:   11219
 k-point 15 :   0.4167 0.4167 0.2500  plane waves:   11252
 k-point 16 :  -0.4167 0.4167 0.2500  plane waves:   11219
 k-point 17 :  -0.2500 0.4167 0.2500  plane waves:   11230
 k-point 18 :  -0.0833 0.4167 0.2500  plane waves:   11220
 k-point 19 :   0.0833-0.4167 0.2500  plane waves:   11239
 k-point 20 :   0.2500-0.4167 0.2500  plane waves:   11226
 k-point 21 :   0.4167-0.4167 0.2500  plane waves:   11231
 k-point 22 :  -0.4167-0.4167 0.2500  plane waves:   11242
 k-point 23 :  -0.2500-0.4167 0.2500  plane waves:   11220
 k-point 24 :  -0.0833-0.4167 0.2500  plane waves:   11215
 k-point 25 :   0.0833-0.2500 0.2500  plane waves:   11212
 k-point 26 :   0.2500-0.2500 0.2500  plane waves:   11202
 k-point 27 :   0.4167-0.2500 0.2500  plane waves:   11216
 k-point 28 :  -0.4167-0.2500 0.2500  plane waves:   11241
 k-point 29 :  -0.2500-0.2500 0.2500  plane waves:   11222
 k-point 30 :  -0.0833-0.2500 0.2500  plane waves:   11220
 k-point 31 :   0.0833-0.0833 0.2500  plane waves:   11160
 k-point 32 :   0.2500-0.0833 0.2500  plane waves:   11217
 k-point 33 :   0.4167-0.0833 0.2500  plane waves:   11213
 k-point 34 :  -0.4167-0.0833 0.2500  plane waves:   11230
 k-point 35 :  -0.2500-0.0833 0.2500  plane waves:   11218
 k-point 36 :  -0.0833-0.0833 0.2500  plane waves:   11175

 maximum and minimum number of plane-waves per node :      2840     2785

 maximum number of plane-waves:     11252
 maximum index in each direction: 
   IXMAX=   11   IYMAX=   11   IZMAX=   25
   IXMIN=  -11   IYMIN=  -11   IZMIN=  -25


 real space projection operators:
  total allocation   :       7829.41 KBytes
  max/ min on nodes  :       1966.17       1947.49


 parallel 3D FFT for wavefunctions:
    minimum data exchange during FFTs selected (reduces bandwidth)
 parallel 3D FFT for charge:
    minimum data exchange during FFTs selected (reduces bandwidth)


 total amount of memory used by VASP MPI-rank0   142184. kBytes
=======================================================================

   base      :      30000. kBytes
   nonlr-proj:       4466. kBytes
   fftplans  :       1502. kBytes
   grid      :       4132. kBytes
   one-center:        342. kBytes
   wavefun   :     101742. kBytes
 
     INWAV:  cpu time    0.0000: real time    0.0002
 Broyden mixing: mesh for mixing (old mesh)
   NGX = 21   NGY = 23   NGZ = 51
  (NGX  = 72   NGY  = 72   NGZ  =160)
  gives a total of  24633 points

 initial charge density was supplied:
 charge density of overlapping atoms calculated
 number of electron     258.0000000 magnetization       6.0000000
 keeping initial charge density in first step


--------------------------------------------------------------------------------------------------------


 Maximum index for non-local projection operator          714
 Maximum index for augmentation-charges          965 (set IRDMAX)


--------------------------------------------------------------------------------------------------------


 First call to EWALD:  gamma=   0.255
 Maximum number of real-space cells 4x 4x 2
 Maximum number of reciprocal cells 2x 2x 5

    FEWALD:  cpu time    0.0054: real time    0.0054


--------------------------------------- Iteration      1(   1)  ---------------------------------------


    POTLOK:  cpu time    0.0655: real time    0.0703
    SETDIJ:  cpu time    0.0198: real time    0.0208
    TRIAL :  cpu time   21.9400: real time   22.0459
    CORREC:  cpu time    0.0041: real time    0.0041
    --------------------------------------------
      LOOP:  cpu time   22.2387: real time   22.3558

 eigenvalue-minimisations  : 23040
 total energy-change (2. order) : 0.3567232E+04  (-0.1406088E+05)
 number of electron     258.0000000 magnetization       6.0000000
 augmentation part      258.0000000 magnetization       6.0000000

 Free energy of the ion-electron system (eV)
  ---------------------------------------------------
  alpha Z        PSCENC =       872.19945058
  Ewald energy   TEWEN  =    -15681.93808826
  -Hartree energ DENC   =     -5868.96516283
  -exchange      EXHF   =         0.00000000
  -V(xc)+E(xc)   XCENC  =       851.82097335
  PAW double counting   =     17015.18481625   -17491.61297812
  entropy T*S    EENTRO =        -0.00490711
  eigenvalues    EBANDS =      3701.67645788
  atomic energy  EATOM  =     20168.87094289
  ---------------------------------------------------
  free energy    TOTEN  =      3567.23150462 eV

  energy without entropy =     3567.23641173  energy(sigma->0) =     3567.23395817


--------------------------------------------------------------------------------------------------------




--------------------------------------- Iteration      1(   2)  ---------------------------------------


    TRIAL :  cpu time   23.3578: real time   23.4201
    CORREC:  cpu time    0.0043: real time    0.0043
    --------------------------------------------
      LOOP:  cpu time   23.3668: real time   23.4291

 eigenvalue-minimisations  : 24304
 total energy-change (2. order) :-0.3145308E+04  (-0.2907189E+04)
 number of electron     258.0000000 magnetization       6.0000000
 augmentation part      258.0000000 magnetization       6.0000000

 Free energy of the ion-electron system (eV)
  ---------------------------------------------------
  alpha Z        PSCENC =       872.19945058
  Ewald energy   TEWEN  =    -15681.93808826
  -Hartree energ DENC   =     -5868.96516283
  -exchange      EXHF   =         0.00000000
  -V(xc)+E(xc)   XCENC  =       851.82097335
  PAW double counting   =     17015.18481625   -17491.61297812
  entropy T*S    EENTRO =        -0.02043521
  eigenvalues    EBANDS =       556.38385857
  atomic energy  EATOM  =     20168.87094289
  ---------------------------------------------------
  free energy    TOTEN  =       421.92337720 eV

  energy without entropy =      421.94381242  energy(sigma->0) =      421.93359481


--------------------------------------------------------------------------------------------------------




--------------------------------------- Iteration      1(   3)  ---------------------------------------


    TRIAL :  cpu time   23.2174: real time   23.2826
    CORREC:  cpu time    0.0042: real time    0.0042
    --------------------------------------------
      LOOP:  cpu time   23.2257: real time   23.2909

 eigenvalue-minimisations  : 25136
 total energy-change (2. order) :-0.6370998E+03  (-0.5685217E+03)
 number of electron     258.0000000 magnetization       6.0000000
 augmentation part      258.0000000 magnetization       6.0000000

 Free energy of the ion-electron system (eV)
  ---------------------------------------------------
  alpha Z        PSCENC =       872.19945058
  Ewald energy   TEWEN  =    -15681.93808826
  -Hartree energ DENC   =     -5868.96516283
  -exchange      EXHF   =         0.00000000
  -V(xc)+E(xc)   XCENC  =       851.82097335
  PAW double counting   =     17015.18481625   -17491.61297812
  entropy T*S    EENTRO =        -0.02189722
  eigenvalues    EBANDS =       -80.71450265
  atomic energy  EATOM  =     20168.87094289
  ---------------------------------------------------
  free energy    TOTEN  =      -215.17644603 eV

  energy without entropy =     -215.15454881  energy(sigma->0) =     -215.16549742


--------------------------------------------------------------------------------------------------------




--------------------------------------- Iteration      1(   4)  ---------------------------------------


    TRIAL :  cpu time   23.5228: real time   23.5599
    CORREC:  cpu time    0.0041: real time    0.0041
    --------------------------------------------
      LOOP:  cpu time   23.5311: real time   23.5682

 eigenvalue-minimisations  : 25152
 total energy-change (2. order) :-0.5249961E+02  (-0.5150971E+02)
 number of electron     258.0000000 magnetization       6.0000000
 augmentation part      258.0000000 magnetization       6.0000000

 Free energy of the ion-electron system (eV)
  ---------------------------------------------------
  alpha Z        PSCENC =       872.19945058
  Ewald energy   TEWEN  =    -15681.93808826
  -Hartree energ DENC   =     -5868.96516283
  -exchange      EXHF   =         0.00000000
  -V(xc)+E(xc)   XCENC  =       851.82097335
  PAW double counting   =     17015.18481625   -17491.61297812
  entropy T*S    EENTRO =        -0.01706460
  eigenvalues    EBANDS =      -133.21895025
  atomic energy  EATOM  =     20168.87094289
  ---------------------------------------------------
  free energy    TOTEN  =      -267.67606101 eV

  energy without entropy =     -267.65899641  energy(sigma->0) =     -267.66752871


--------------------------------------------------------------------------------------------------------




--------------------------------------- Iteration      1(   5)  ---------------------------------------


    TRIAL :  cpu time   26.1816: real time   26.2335
    CORREC:  cpu time    0.0053: real time    0.0053
    CHARGE:  cpu time    0.3788: real time    0.3792
    --------------------------------------------
      LOOP:  cpu time   26.5700: real time   26.6222

 eigenvalue-minimisations  : 28080
 total energy-change (2. order) :-0.1631252E+01  (-0.1628849E+01)
 number of electron     257.9999997 magnetization       6.0000004
 augmentation part       68.3455516 magnetization       4.2960734

 Free energy of the ion-electron system (eV)
  ---------------------------------------------------
  alpha Z        PSCENC =       872.19945058
  Ewald energy   TEWEN  =    -15681.93808826
  -Hartree energ DENC   =     -5868.96516283
  -exchange      EXHF   =         0.00000000
  -V(xc)+E(xc)   XCENC  =       851.82097335
  PAW double counting   =     17015.18481625   -17491.61297812
  entropy T*S    EENTRO =        -0.01724834
  eigenvalues    EBANDS =      -134.85001857
  atomic energy  EATOM  =     20168.87094289
  ---------------------------------------------------
  free energy    TOTEN  =      -269.30731306 eV

  energy without entropy =     -269.29006473  energy(sigma->0) =     -269.29868889


--------------------------------------------------------------------------------------------------------




--------------------------------------- Iteration      1(   6)  ---------------------------------------


    POTLOK:  cpu time    0.0436: real time    0.0436
    SETDIJ:  cpu time    0.0132: real time    0.0132
    TRIAL :  cpu time   12.8616: real time   12.8854
    CORREC:  cpu time    4.2003: real time    4.2086
    CHARGE:  cpu time    0.3721: real time    0.3727
    --------------------------------------------
      LOOP:  cpu time   17.4955: real time   17.5282

 eigenvalue-minimisations  :     0
 total energy-change (2. order) : 0.3767282E+03  (-0.1729236E+03)
 number of electron     258.0000004 magnetization       5.9999998
 augmentation part       70.4556811 magnetization       4.4245226

 Free energy of the ion-electron system (eV)
  ---------------------------------------------------
  alpha Z        PSCENC =       872.19945058
  Ewald energy   TEWEN  =    -15681.93808826
  -Hartree energ DENC   =     -5510.50438594
  -exchange      EXHF   =         0.00000000
  -V(xc)+E(xc)   XCENC  =       885.19974655
  PAW double counting   =     25071.00691808   -25287.50379999
  entropy T*S    EENTRO =        -0.02866550
  eigenvalues    EBANDS =      -409.89263083
  atomic energy  EATOM  =     20168.87094289
  ---------------------------------------------------
  free energy    TOTEN  =       107.42090473 eV

  energy without entropy =      107.44957023  energy(sigma->0) =      107.43523748


--------------------------------------------------------------------------------------------------------




--------------------------------------- Iteration      1(   7)  ---------------------------------------


    POTLOK:  cpu time    0.0429: real time    0.0429
    SETDIJ:  cpu time    0.0132: real time    0.0132
    TRIAL :  cpu time   12.5286: real time   12.5497
    CORREC:  cpu time    4.1120: real time    4.1193
    CHARGE:  cpu time    0.5015: real time    0.5023
    --------------------------------------------
      LOOP:  cpu time   17.2025: real time   17.2317

 eigenvalue-minimisations  :     0
 total energy-change (2. order) :-0.7072658E+02  (-0.3133531E+03)
 number of electron     258.0000007 magnetization       5.9999997
 augmentation part       74.3650232 magnetization       4.1810834

 Free energy of the ion-electron system (eV)
  ---------------------------------------------------
  alpha Z        PSCENC =       872.19945058
  Ewald energy   TEWEN  =    -15681.93808826
  -Hartree energ DENC   =     -5783.20646507
  -exchange      EXHF   =         0.00000000
  -V(xc)+E(xc)   XCENC  =       877.53067444
  PAW double counting   =     25016.41266000   -25317.68840441
  entropy T*S    EENTRO =        -0.02098536
  eigenvalues    EBANDS =      -115.45778308
  atomic energy  EATOM  =     20168.87094289
  ---------------------------------------------------
  free energy    TOTEN  =        36.69432160 eV

  energy without entropy =       36.71530695  energy(sigma->0) =       36.70481427


--------------------------------------------------------------------------------------------------------




--------------------------------------- Iteration      1(   8)  ---------------------------------------


    POTLOK:  cpu time    0.0432: real time    0.0432
    SETDIJ:  cpu time    0.0131: real time    0.0131
    TRIAL :  cpu time   12.6179: real time   12.6413
    CORREC:  cpu time    4.1360: real time    4.1457
    CHARGE:  cpu time    0.3687: real time    0.3691
    --------------------------------------------
      LOOP:  cpu time   17.1833: real time   17.2168

 eigenvalue-minimisations  :     0
 total energy-change (2. order) :-0.4512340E+02  (-0.1802051E+03)
 number of electron     258.0000005 magnetization       6.0000000
 augmentation part       77.3082683 magnetization       3.0130972

 Free energy of the ion-electron system (eV)
  ---------------------------------------------------
  alpha Z        PSCENC =       872.19945058
  Ewald energy   TEWEN  =    -15681.93808826
  -Hartree energ DENC   =     -5830.31572113
  -exchange      EXHF   =         0.00000000
  -V(xc)+E(xc)   XCENC  =       862.88705122
  PAW double counting   =     24784.37439634   -25253.63976352
  entropy T*S    EENTRO =        -0.02571882
  eigenvalues    EBANDS =        69.15364308
  atomic energy  EATOM  =     20168.87094289
  ---------------------------------------------------
  free energy    TOTEN  =        -8.42907416 eV

  energy without entropy =       -8.40335533  energy(sigma->0) =       -8.41621475


--------------------------------------------------------------------------------------------------------




--------------------------------------- Iteration      1(   9)  ---------------------------------------


    POTLOK:  cpu time    0.0426: real time    0.0426
    SETDIJ:  cpu time    0.0132: real time    0.0133
    TRIAL :  cpu time   12.4095: real time   12.4327
    CORREC:  cpu time    4.1311: real time    4.1388
    CHARGE:  cpu time    0.4235: real time    0.4239
    --------------------------------------------
      LOOP:  cpu time   17.0243: real time   17.0556

 eigenvalue-minimisations  :     0
 total energy-change (2. order) :-0.1188485E+03  (-0.4511747E+02)
 number of electron     258.0000003 magnetization       6.0000000
 augmentation part       77.5218356 magnetization       3.0874373

 Free energy of the ion-electron system (eV)
  ---------------------------------------------------
  alpha Z        PSCENC =       872.19945058
  Ewald energy   TEWEN  =    -15681.93808826
  -Hartree energ DENC   =     -5715.02564466
  -exchange      EXHF   =         0.00000000
  -V(xc)+E(xc)   XCENC  =       851.70096882
  PAW double counting   =     25251.98964889   -25823.87009241
  entropy T*S    EENTRO =        -0.02014489
  eigenvalues    EBANDS =       -51.17902952
  atomic energy  EATOM  =     20168.87094289
  ---------------------------------------------------
  free energy    TOTEN  =      -127.27756249 eV

  energy without entropy =     -127.25741760  energy(sigma->0) =     -127.26749005


--------------------------------------------------------------------------------------------------------




--------------------------------------- Iteration      1(  10)  ---------------------------------------


    POTLOK:  cpu time    0.0425: real time    0.0425
    SETDIJ:  cpu time    0.0132: real time    0.0132
    TRIAL :  cpu time   12.6786: real time   12.7038
    CORREC:  cpu time    4.3800: real time    4.3861
    CHARGE:  cpu time    0.3685: real time    0.3689
    --------------------------------------------
      LOOP:  cpu time   17.4869: real time   17.5187

 eigenvalue-minimisations  :     0
 total energy-change (2. order) :-0.3583343E+02  (-0.3475047E+02)
 number of electron     258.0000001 magnetization       6.0000000
 augmentation part       76.3181451 magnetization       3.3073211

 Free energy of the ion-electron system (eV)
  ---------------------------------------------------
  alpha Z        PSCENC =       872.19945058
  Ewald energy   TEWEN  =    -15681.93808826
  -Hartree energ DENC   =     -5829.49225598
  -exchange      EXHF   =         0.00000000
  -V(xc)+E(xc)   XCENC  =       853.41139229
  PAW double counting   =     24881.57389840   -25454.26273866
  entropy T*S    EENTRO =        -0.02127105
  eigenvalues    EBANDS =        26.54655421
  atomic energy  EATOM  =     20168.87094289
  ---------------------------------------------------
  free energy    TOTEN  =      -163.11098943 eV

  energy without entropy =     -163.08971838  energy(sigma->0) =     -163.10035391


--------------------------------------------------------------------------------------------------------




--------------------------------------- Iteration      1(  11)  ---------------------------------------


    POTLOK:  cpu time    0.0425: real time    0.0425
    SETDIJ:  cpu time    0.0134: real time    0.0134
    TRIAL :  cpu time   12.2672: real time   12.2876
    CORREC:  cpu time    4.2320: real time    4.2382
    CHARGE:  cpu time    0.3689: real time    0.3694
    --------------------------------------------
      LOOP:  cpu time   16.9284: real time   16.9555

 eigenvalue-minimisations  :     0
 total energy-change (2. order) :-0.2826407E+02  (-0.1805263E+02)
 number of electron     258.0000002 magnetization       6.0000000
 augmentation part       75.2927979 magnetization       3.5233497

 Free energy of the ion-electron system (eV)
  ---------------------------------------------------
  alpha Z        PSCENC =       872.19945058
  Ewald energy   TEWEN  =    -15681.93808826
  -Hartree energ DENC   =     -5805.57478486
  -exchange      EXHF   =         0.00000000
  -V(xc)+E(xc)   XCENC  =       855.80261586
  PAW double counting   =     24967.34641078   -25478.19089029
  entropy T*S    EENTRO =        -0.02282265
  eigenvalues    EBANDS =       -89.86944013
  atomic energy  EATOM  =     20168.87094289
  ---------------------------------------------------
  free energy    TOTEN  =      -191.37505449 eV

  energy without entropy =     -191.35223184  energy(sigma->0) =     -191.36364316


--------------------------------------------------------------------------------------------------------




--------------------------------------- Iteration      1(  12)  ---------------------------------------


    POTLOK:  cpu time    0.0424: real time    0.0424
    SETDIJ:  cpu time    0.0132: real time    0.0132
    TRIAL :  cpu time   12.5638: real time   12.6031
    CORREC:  cpu time    4.1525: real time    4.1583
    CHARGE:  cpu time    0.3780: real time    0.3785
    --------------------------------------------
      LOOP:  cpu time   17.1542: real time   17.1999

 eigenvalue-minimisations  :     0
 total energy-change (2. order) :-0.1603400E+02  (-0.4889177E+01)
 number of electron     258.0000002 magnetization       6.0000000
 augmentation part       75.3270716 magnetization       3.5824886

 Free energy of the ion-electron system (eV)
  ---------------------------------------------------
  alpha Z        PSCENC =       872.19945058
  Ewald energy   TEWEN  =    -15681.93808826
  -Hartree energ DENC   =     -5816.87838089
  -exchange      EXHF   =         0.00000000
  -V(xc)+E(xc)   XCENC  =       857.85482261
  PAW double counting   =     25346.36876097   -25801.34514343
  entropy T*S    EENTRO =        -0.02106300
  eigenvalues    EBANDS =      -152.51860084
  atomic energy  EATOM  =     20168.87094289
  ---------------------------------------------------
  free energy    TOTEN  =      -207.40905905 eV

  energy without entropy =     -207.38799605  energy(sigma->0) =     -207.39852755


--------------------------------------------------------------------------------------------------------




--------------------------------------- Iteration      1(  13)  ---------------------------------------


    POTLOK:  cpu time    0.0436: real time    0.0437
    SETDIJ:  cpu time    0.0134: real time    0.0133
    TRIAL :  cpu time   12.5066: real time   12.5181
    CORREC:  cpu time    4.1290: real time    4.1350
    CHARGE:  cpu time    0.4128: real time    0.4130
    --------------------------------------------
      LOOP:  cpu time   17.1100: real time   17.1276

 eigenvalue-minimisations  :     0
 total energy-change (2. order) :-0.2701732E+01  (-0.3304654E+01)
 number of electron     258.0000003 magnetization       6.0000000
 augmentation part       75.8002576 magnetization       3.5909919

 Free energy of the ion-electron system (eV)
  ---------------------------------------------------
  alpha Z        PSCENC =       872.19945058
  Ewald energy   TEWEN  =    -15681.93808826
  -Hartree energ DENC   =     -5795.95750130
  -exchange      EXHF   =         0.00000000
  -V(xc)+E(xc)   XCENC  =       858.89466078
  PAW double counting   =     25484.59947101   -25934.88306923
  entropy T*S    EENTRO =        -0.02158970
  eigenvalues    EBANDS =      -181.87559418
  atomic energy  EATOM  =     20168.87094289
  ---------------------------------------------------
  free energy    TOTEN  =      -210.11079072 eV

  energy without entropy =     -210.08920102  energy(sigma->0) =     -210.09999587


--------------------------------------------------------------------------------------------------------




--------------------------------------- Iteration      1(  14)  ---------------------------------------


    POTLOK:  cpu time    0.0442: real time    0.0442
    SETDIJ:  cpu time    0.0134: real time    0.0134
    TRIAL :  cpu time   12.5148: real time   12.5259
    CORREC:  cpu time    4.2125: real time    4.2167
    CHARGE:  cpu time    0.3776: real time    0.3778
    --------------------------------------------
      LOOP:  cpu time   17.1669: real time   17.1824

 eigenvalue-minimisations  :     0
 total energy-change (2. order) :-0.3217583E+01  (-0.1279625E+01)
 number of electron     258.0000003 magnetization       5.9999999
 augmentation part       76.0248366 magnetization       3.5847481

 Free energy of the ion-electron system (eV)
  ---------------------------------------------------
  alpha Z        PSCENC =       872.19945058
  Ewald energy   TEWEN  =    -15681.93808826
  -Hartree energ DENC   =     -5806.24796508
  -exchange      EXHF   =         0.00000000
  -V(xc)+E(xc)   XCENC  =       860.16170885
  PAW double counting   =     25581.13050485   -26040.73688742
  entropy T*S    EENTRO =        -0.02197433
  eigenvalues    EBANDS =      -166.74645066
  atomic energy  EATOM  =     20168.87094289
  ---------------------------------------------------
  free energy    TOTEN  =      -213.32837396 eV

  energy without entropy =     -213.30639963  energy(sigma->0) =     -213.31738680


--------------------------------------------------------------------------------------------------------




--------------------------------------- Iteration      1(  15)  ---------------------------------------


    POTLOK:  cpu time    0.0430: real time    0.0430
    SETDIJ:  cpu time    0.0133: real time    0.0133
    TRIAL :  cpu time   12.3777: real time   12.3882
    CORREC:  cpu time    4.1042: real time    4.1079
    CHARGE:  cpu time    0.3747: real time    0.3749
    --------------------------------------------
      LOOP:  cpu time   16.9175: real time   16.9318

 eigenvalue-minimisations  :     0
 total energy-change (2. order) :-0.1110372E+01  (-0.1366760E+01)
 number of electron     258.0000003 magnetization       6.0000000
 augmentation part       76.3174454 magnetization       3.5755958

 Free energy of the ion-electron system (eV)
  ---------------------------------------------------
  alpha Z        PSCENC =       872.19945058
  Ewald energy   TEWEN  =    -15681.93808826
  -Hartree energ DENC   =     -5827.33020694
  -exchange      EXHF   =         0.00000000
  -V(xc)+E(xc)   XCENC  =       860.47295694
  PAW double counting   =     25543.25430522   -26008.79128711
  entropy T*S    EENTRO =        -0.02093114
  eigenvalues    EBANDS =      -141.15484522
  atomic energy  EATOM  =     20168.87094289
  ---------------------------------------------------
  free energy    TOTEN  =      -214.43874624 eV

  energy without entropy =     -214.41781510  energy(sigma->0) =     -214.42828067


--------------------------------------------------------------------------------------------------------




--------------------------------------- Iteration      1(  16)  ---------------------------------------


    POTLOK:  cpu time    0.0436: real time    0.0436
    SETDIJ:  cpu time    0.0133: real time    0.0133
    TRIAL :  cpu time   12.5862: real time   12.6318
    CORREC:  cpu time    4.1226: real time    4.1303
    CHARGE:  cpu time    0.3732: real time    0.3737
    --------------------------------------------
      LOOP:  cpu time   17.1434: real time   17.1973

 eigenvalue-minimisations  :     0
 total energy-change (2. order) :-0.1288408E+01  (-0.6848305E+00)
 number of electron     258.0000003 magnetization       6.0000000
 augmentation part       76.3402986 magnetization       3.5697003

 Free energy of the ion-electron system (eV)
  ---------------------------------------------------
  alpha Z        PSCENC =       872.19945058
  Ewald energy   TEWEN  =    -15681.93808826
  -Hartree energ DENC   =     -5829.95092013
  -exchange      EXHF   =         0.00000000
  -V(xc)+E(xc)   XCENC  =       860.78744694
  PAW double counting   =     25415.13655476   -25888.40110660
  entropy T*S    EENTRO =        -0.01991284
  eigenvalues    EBANDS =      -132.41050294
  atomic energy  EATOM  =     20168.87094289
  ---------------------------------------------------
  free energy    TOTEN  =      -215.72715391 eV

  energy without entropy =     -215.70724107  energy(sigma->0) =     -215.71719749


--------------------------------------------------------------------------------------------------------




--------------------------------------- Iteration      1(  17)  ---------------------------------------


    POTLOK:  cpu time    0.0429: real time    0.0430
    SETDIJ:  cpu time    0.0140: real time    0.0140
    TRIAL :  cpu time   12.6960: real time   12.7213
    CORREC:  cpu time    4.3663: real time    4.3739
    CHARGE:  cpu time    0.3740: real time    0.3744
    --------------------------------------------
      LOOP:  cpu time   17.4976: real time   17.5309

 eigenvalue-minimisations  :     0
 total energy-change (2. order) :-0.6368945E+00  (-0.4397996E+00)
 number of electron     258.0000003 magnetization       5.9999999
 augmentation part       76.2863796 magnetization       3.5636760

 Free energy of the ion-electron system (eV)
  ---------------------------------------------------
  alpha Z        PSCENC =       872.19945058
  Ewald energy   TEWEN  =    -15681.93808826
  -Hartree energ DENC   =     -5816.99731144
  -exchange      EXHF   =         0.00000000
  -V(xc)+E(xc)   XCENC  =       860.76222237
  PAW double counting   =     25300.22622668   -25772.92896508
  entropy T*S    EENTRO =        -0.02001734
  eigenvalues    EBANDS =      -146.53861331
  atomic energy  EATOM  =     20168.87094289
  ---------------------------------------------------
  free energy    TOTEN  =      -216.36404842 eV

  energy without entropy =     -216.34403108  energy(sigma->0) =     -216.35403975


--------------------------------------------------------------------------------------------------------




--------------------------------------- Iteration      1(  18)  ---------------------------------------


    POTLOK:  cpu time    0.0432: real time    0.0433
    SETDIJ:  cpu time    0.0133: real time    0.0133
    TRIAL :  cpu time   12.4055: real time   12.4316
    CORREC:  cpu time    4.3227: real time    4.3306
    CHARGE:  cpu time    0.3695: real time    0.3700
    --------------------------------------------
      LOOP:  cpu time   17.1586: real time   17.1933

 eigenvalue-minimisations  :     0
 total energy-change (2. order) :-0.4110948E+00  (-0.1264810E+00)
 number of electron     258.0000003 magnetization       5.9999999
 augmentation part       76.2330885 magnetization       3.5511050

 Free energy of the ion-electron system (eV)
  ---------------------------------------------------
  alpha Z        PSCENC =       872.19945058
  Ewald energy   TEWEN  =    -15681.93808826
  -Hartree energ DENC   =     -5816.64295048
  -exchange      EXHF   =         0.00000000
  -V(xc)+E(xc)   XCENC  =       860.62795496
  PAW double counting   =     25204.88111239   -25674.88584440
  entropy T*S    EENTRO =        -0.02003514
  eigenvalues    EBANDS =      -149.86770357
  atomic energy  EATOM  =     20168.87094289
  ---------------------------------------------------
  free energy    TOTEN  =      -216.77514324 eV

  energy without entropy =     -216.75510810  energy(sigma->0) =     -216.76512567


--------------------------------------------------------------------------------------------------------




--------------------------------------- Iteration      1(  19)  ---------------------------------------


    POTLOK:  cpu time    0.0445: real time    0.0445
    SETDIJ:  cpu time    0.0135: real time    0.0134
    TRIAL :  cpu time   12.5469: real time   12.6004
    CORREC:  cpu time    4.1000: real time    4.1072
    CHARGE:  cpu time    0.3713: real time    0.3717
    --------------------------------------------
      LOOP:  cpu time   17.0806: real time   17.1418

 eigenvalue-minimisations  :     0
 total energy-change (2. order) :-0.1214554E+00  (-0.1485885E+00)
 number of electron     258.0000003 magnetization       5.9999999
 augmentation part       76.1680187 magnetization       3.5257296

 Free energy of the ion-electron system (eV)
  ---------------------------------------------------
  alpha Z        PSCENC =       872.19945058
  Ewald energy   TEWEN  =    -15681.93808826
  -Hartree energ DENC   =     -5816.53268176
  -exchange      EXHF   =         0.00000000
  -V(xc)+E(xc)   XCENC  =       860.51081593
  PAW double counting   =     25167.00604746   -25635.14423376
  entropy T*S    EENTRO =        -0.01911715
  eigenvalues    EBANDS =      -151.84881652
  atomic energy  EATOM  =     20168.87094289
  ---------------------------------------------------
  free energy    TOTEN  =      -216.89659860 eV

  energy without entropy =     -216.87748145  energy(sigma->0) =     -216.88704003


--------------------------------------------------------------------------------------------------------




--------------------------------------- Iteration      1(  20)  ---------------------------------------


    POTLOK:  cpu time    0.0427: real time    0.0428
    SETDIJ:  cpu time    0.0132: real time    0.0132
    TRIAL :  cpu time   12.3916: real time   12.4170
    CORREC:  cpu time    4.1113: real time    4.1187
    CHARGE:  cpu time    0.3655: real time    0.3659
    --------------------------------------------
      LOOP:  cpu time   16.9286: real time   16.9619

 eigenvalue-minimisations  :     0
 total energy-change (2. order) :-0.1439617E+00  (-0.7642683E-01)
 number of electron     258.0000003 magnetization       5.9999999
 augmentation part       76.1648693 magnetization       3.5066956

 Free energy of the ion-electron system (eV)
  ---------------------------------------------------
  alpha Z        PSCENC =       872.19945058
  Ewald energy   TEWEN  =    -15681.93808826
  -Hartree energ DENC   =     -5808.95899906
  -exchange      EXHF   =         0.00000000
  -V(xc)+E(xc)   XCENC  =       860.35680221
  PAW double counting   =     25123.18392207   -25589.29084115
  entropy T*S    EENTRO =        -0.01861422
  eigenvalues    EBANDS =      -161.44463240
  atomic energy  EATOM  =     20168.87094289
  ---------------------------------------------------
  free energy    TOTEN  =      -217.04056027 eV

  energy without entropy =     -217.02194605  energy(sigma->0) =     -217.03125316


--------------------------------------------------------------------------------------------------------




--------------------------------------- Iteration      1(  21)  ---------------------------------------


    POTLOK:  cpu time    0.0450: real time    0.0451
    SETDIJ:  cpu time    0.0131: real time    0.0131
    TRIAL :  cpu time   12.4258: real time   12.5178
    CORREC:  cpu time    4.1497: real time    4.1575
    CHARGE:  cpu time    0.3660: real time    0.3664
    --------------------------------------------
      LOOP:  cpu time   17.0040: real time   17.1042

 eigenvalue-minimisations  :     0
 total energy-change (2. order) :-0.7491722E-01  (-0.8755761E-01)
 number of electron     258.0000003 magnetization       5.9999999
 augmentation part       76.1726631 magnetization       3.4841057

 Free energy of the ion-electron system (eV)
  ---------------------------------------------------
  alpha Z        PSCENC =       872.19945058
  Ewald energy   TEWEN  =    -15681.93808826
  -Hartree energ DENC   =     -5809.73538205
  -exchange      EXHF   =         0.00000000
  -V(xc)+E(xc)   XCENC  =       860.31803079
  PAW double counting   =     25112.42212910   -25578.96852831
  entropy T*S    EENTRO =        -0.01822107
  eigenvalues    EBANDS =      -160.26541801
  atomic energy  EATOM  =     20168.87094289
  ---------------------------------------------------
  free energy    TOTEN  =      -217.11547750 eV

  energy without entropy =     -217.09725643  energy(sigma->0) =     -217.10636696


--------------------------------------------------------------------------------------------------------




--------------------------------------- Iteration      1(  22)  ---------------------------------------


    POTLOK:  cpu time    0.0424: real time    0.0424
    SETDIJ:  cpu time    0.0132: real time    0.0132
    TRIAL :  cpu time   12.4723: real time   12.4981
    CORREC:  cpu time    4.1057: real time    4.1126
    CHARGE:  cpu time    0.3690: real time    0.3695
    --------------------------------------------
      LOOP:  cpu time   17.0067: real time   17.0400

 eigenvalue-minimisations  :     0
 total energy-change (2. order) :-0.7981512E-01  (-0.5087496E-01)
 number of electron     258.0000003 magnetization       5.9999999
 augmentation part       76.1659684 magnetization       3.4740147

 Free energy of the ion-electron system (eV)
  ---------------------------------------------------
  alpha Z        PSCENC =       872.19945058
  Ewald energy   TEWEN  =    -15681.93808826
  -Hartree energ DENC   =     -5816.08477558
  -exchange      EXHF   =         0.00000000
  -V(xc)+E(xc)   XCENC  =       860.31019293
  PAW double counting   =     25107.71219319   -25575.38567035
  entropy T*S    EENTRO =        -0.01775927
  eigenvalues    EBANDS =      -152.86131694
  atomic energy  EATOM  =     20168.87094289
  ---------------------------------------------------
  free energy    TOTEN  =      -217.19529262 eV

  energy without entropy =     -217.17753335  energy(sigma->0) =     -217.18641298


--------------------------------------------------------------------------------------------------------




--------------------------------------- Iteration      1(  23)  ---------------------------------------


    POTLOK:  cpu time    0.0426: real time    0.0426
    SETDIJ:  cpu time    0.0132: real time    0.0132
    TRIAL :  cpu time   12.4586: real time   12.4908
    CORREC:  cpu time    4.1185: real time    4.1260
    CHARGE:  cpu time    0.3659: real time    0.3664
    --------------------------------------------
      LOOP:  cpu time   17.0031: real time   17.0434

 eigenvalue-minimisations  :     0
 total energy-change (2. order) :-0.4925723E-01  (-0.3435324E-01)
 number of electron     258.0000003 magnetization       5.9999999
 augmentation part       76.1516275 magnetization       3.4689543

 Free energy of the ion-electron system (eV)
  ---------------------------------------------------
  alpha Z        PSCENC =       872.19945058
  Ewald energy   TEWEN  =    -15681.93808826
  -Hartree energ DENC   =     -5817.89374564
  -exchange      EXHF   =         0.00000000
  -V(xc)+E(xc)   XCENC  =       860.33352834
  PAW double counting   =     25105.77519127   -25573.63072679
  entropy T*S    EENTRO =        -0.01746561
  eigenvalues    EBANDS =      -150.94334296
  atomic energy  EATOM  =     20168.87094289
  ---------------------------------------------------
  free energy    TOTEN  =      -217.24454984 eV

  energy without entropy =     -217.22708424  energy(sigma->0) =     -217.23581704


--------------------------------------------------------------------------------------------------------




--------------------------------------- Iteration      1(  24)  ---------------------------------------


    POTLOK:  cpu time    0.0425: real time    0.0425
    SETDIJ:  cpu time    0.0131: real time    0.0131
    TRIAL :  cpu time   12.4006: real time   12.4267
    CORREC:  cpu time    4.3028: real time    4.3108
    CHARGE:  cpu time    0.3657: real time    0.3662
    --------------------------------------------
      LOOP:  cpu time   17.1291: real time   17.1637

 eigenvalue-minimisations  :     0
 total energy-change (2. order) :-0.3241901E-01  (-0.5149374E-01)
 number of electron     258.0000003 magnetization       5.9999999
 augmentation part       76.1224051 magnetization       3.4649977

 Free energy of the ion-electron system (eV)
  ---------------------------------------------------
  alpha Z        PSCENC =       872.19945058
  Ewald energy   TEWEN  =    -15681.93808826
  -Hartree energ DENC   =     -5816.73690527
  -exchange      EXHF   =         0.00000000
  -V(xc)+E(xc)   XCENC  =       860.35690784
  PAW double counting   =     25102.66659272   -25570.19868528
  entropy T*S    EENTRO =        -0.01698133
  eigenvalues    EBANDS =      -152.47971845
  atomic energy  EATOM  =     20168.87094289
  ---------------------------------------------------
  free energy    TOTEN  =      -217.27696886 eV

  energy without entropy =     -217.25998752  energy(sigma->0) =     -217.26847819


--------------------------------------------------------------------------------------------------------




--------------------------------------- Iteration      1(  25)  ---------------------------------------


    POTLOK:  cpu time    0.0433: real time    0.0433
    SETDIJ:  cpu time    0.0137: real time    0.0137
    TRIAL :  cpu time   12.3013: real time   12.4876
    CORREC:  cpu time    4.2638: real time    4.2947
    CHARGE:  cpu time    0.4387: real time    0.4394
    --------------------------------------------
      LOOP:  cpu time   17.0652: real time   17.2830

 eigenvalue-minimisations  :     0
[...]
   20        1.576   3.452   0.000   5.028
   21        1.592   3.366   0.000   4.958
   22        1.580   3.458   0.000   5.038
   23        1.585   3.456   0.000   5.041
   24        1.585   3.415   0.000   4.999
   25        1.578   3.460   0.000   5.038
   26        1.590   3.364   0.000   4.953
   27        1.555   3.531   0.000   5.086
   28        1.558   3.524   0.000   5.082
   29        1.562   3.490   0.000   5.052
   30        1.563   3.454   0.000   5.017
   31        1.591   3.391   0.000   4.982
   32        1.579   3.440   0.000   5.019
   33        1.575   3.446   0.000   5.021
   34        1.574   3.483   0.000   5.057
   35        1.583   3.401   0.000   4.984
   36        1.571   3.453   0.000   5.025
   37        1.572   3.457   0.000   5.029
   38        1.579   3.417   0.000   4.996
   39        1.559   3.493   0.000   5.052
   40        1.560   3.474   0.000   5.034
   41        1.554   3.517   0.000   5.071
   42        1.559   3.515   0.000   5.074
--------------------------------------------------
tot         44.241  93.873  88.943 227.057
 


 magnetization (x)
 
# of ion       s       p       d       tot
------------------------------------------
    1       -0.001  -0.004   0.000  -0.005
    2        0.000  -0.001   0.000  -0.001
    3       -0.000  -0.001   0.000  -0.001
    4        0.000   0.000   0.000   0.001
    5        0.000  -0.000   0.000  -0.000
    6        0.001   0.001   0.000   0.001
    7        0.008   0.014   1.115   1.137
    8        0.012   0.019   1.299   1.329
    9        0.010   0.016   1.187   1.213
   10        0.006   0.009  -0.001   0.014
   11        0.009   0.007   1.206   1.222
   12        0.002   0.011   0.100   0.113
   13        0.001   0.003   0.099   0.103
   14        0.002   0.003   0.098   0.102
   15        0.002   0.002   0.057   0.060
   16        0.002   0.005   0.027   0.034
   17        0.002   0.005   0.033   0.040
   18        0.006   0.009   1.102   1.118
   19        0.002  -0.075   0.000  -0.074
   20        0.000  -0.103   0.000  -0.103
   21        0.003  -0.033   0.000  -0.029
   22        0.001  -0.035   0.000  -0.034
   23        0.002  -0.051   0.000  -0.049
   24        0.002  -0.070   0.000  -0.069
   25        0.001  -0.073   0.000  -0.073
   26        0.002  -0.050   0.000  -0.048
   27        0.000  -0.017   0.000  -0.016
   28        0.001   0.036   0.000   0.037
   29        0.001  -0.005   0.000  -0.004
   30        0.001  -0.017   0.000  -0.016
   31        0.001  -0.058   0.000  -0.057
   32        0.001  -0.027   0.000  -0.026
   33        0.002   0.147   0.000   0.149
   34       -0.000  -0.048   0.000  -0.048
   35        0.002   0.081   0.000   0.082
   36        0.000  -0.003   0.000  -0.003
   37        0.000  -0.005   0.000  -0.005
   38        0.000  -0.021   0.000  -0.021
   39        0.000  -0.015   0.000  -0.014
   40        0.000  -0.015   0.000  -0.015
   41        0.000   0.020   0.000   0.020
   42        0.000  -0.007   0.000  -0.007
--------------------------------------------------
tot          0.083  -0.350   6.321   6.055
 
    FORLOC:  cpu time    0.0076: real time    0.0076
    FORNL :  cpu time    4.2826: real time    4.2842
    STRESS:  cpu time   12.8141: real time   12.8181
    FORCOR:  cpu time    0.0452: real time    0.0453
    OFIELD:  cpu time    0.0004: real time    0.0004

  DFT-D2 method for vdW energy calculation
  -------------------------------------------------------------------

  Parameters of vdW forcefield:
         C6(Jnm^6/mol)     R0(A)
   -----------------------------
   Li       1.610          0.825
   Co      10.800          1.562
   O        0.700          1.342

  IVDW =   1
  VDW_RADIUS =    50.000 A
  VDW_S6 =     0.750
  VDW_SR =     1.000
  VDW_D =    20.000
  LVDW_EWALD = F

  Number of pair interactions contributing to vdW energy: 1406889
  Edisp (eV):  -11.42428
    FORVDW:  cpu time    0.1927: real time    0.1936

  FORCE on cell =-STRESS in cart. coord.  units (eV):
  Direction    XX          YY          ZZ          XY          YZ          ZX
  --------------------------------------------------------------------------------------
  Alpha Z   872.19945   872.19945   872.19945
  Ewald   -3054.49928 -3080.91015 -9546.60152   -23.17277    35.11908    30.01275
  Hartree  3468.15929  3468.36856 -1129.96968    -6.32576    11.53307    12.79602
  E(xc)   -1294.09174 -1293.91757 -1294.66088    -0.12603    -0.00211     0.04424
  Local   -5484.65339 -5461.28553  5547.34041    24.67564   -42.50686   -41.73903
  n-local  -579.62324  -581.88971  -590.08774    -0.45701     1.68688     0.31946
  augment  2013.85409  2014.36647  2002.97840     2.95653    -1.58965    -0.04701
  Kinetic  4104.45246  4107.03847  4183.67521     5.11672     0.22997    -2.60023
  Fock        0.00000     0.00000     0.00000     0.00000     0.00000     0.00000
  vdW        -8.40689    -8.11155   -14.98724     0.02424     0.16658     0.00518
  -------------------------------------------------------------------------------------
  Total      37.39075    35.85844    29.88641     2.69156     4.63697    -1.20862
  in kB     178.22797   170.92400   142.45751    12.82968    22.10275    -5.76103
  external pressure =      163.87 kB  Pullay stress =        0.00 kB


 VOLUME and BASIS-vectors are now :
 -----------------------------------------------------------------------------
  energy-cutoff  :      600.00
  volume of cell :      336.12
      direct lattice vectors                 reciprocal lattice vectors
     5.482486248  0.000000000  0.000000000     0.182398998  0.106937626  0.002669929
    -2.793165445  4.764184475  0.000000000     0.000000000  0.209899513  0.007949513
     0.097369984 -0.487373441 12.868643761     0.000000000  0.000000000  0.077708267

  length of vectors
     5.482486248  5.522610516 12.878237691     0.211452546  0.210049995  0.077708267


 FORCES acting on ions:
    Electron-Ion                     Ewald-Force                    Non-Local-Force
 -----------------------------------------------------------------------------------------------
   -.332E+01 0.628E+01 0.153E+02   0.349E+01 -.592E+01 -.158E+02   0.192E+00 -.126E+01 -.553E+00
   -.318E+01 0.390E+01 -.487E+01   0.326E+01 -.357E+01 0.487E+01   0.206E+00 -.293E+00 -.166E+00
   0.400E+01 0.157E+01 -.933E+01   -.417E+01 -.139E+01 0.901E+01   -.667E+00 0.138E+00 0.655E+00
   -.305E+01 -.174E+00 0.540E+01   0.262E+01 -.219E+00 -.488E+01   0.515E+00 -.532E+00 -.930E+00
   -.498E+01 0.214E+01 0.568E+01   0.504E+01 -.178E+01 -.548E+01   0.109E+01 0.194E+00 -.622E+00
   -.329E+01 -.520E+01 -.311E+01   0.310E+01 0.498E+01 0.368E+01   0.101E+01 0.353E+00 -.400E+00
   0.649E+02 0.157E+02 0.240E+02   -.671E+02 -.159E+02 -.239E+02   0.311E+00 -.206E-01 -.171E+00
   0.211E+02 0.500E+02 0.111E+03   -.230E+02 -.525E+02 -.110E+03   -.142E+00 0.240E+00 -.440E+00
   -.561E+02 -.984E+01 0.400E+02   0.583E+02 0.111E+02 -.394E+02   -.720E-01 -.508E+00 -.498E+00
   -.181E+02 -.234E+02 -.598E+02   0.187E+02 0.227E+02 0.603E+02   -.237E+00 -.690E+00 0.818E+00
   0.132E+01 0.241E+02 -.209E+03   -.529E+00 -.243E+02 0.209E+03   0.288E+00 -.311E+00 0.116E+01
   0.359E+02 -.415E+01 -.961E+02   -.384E+02 0.291E+01 0.959E+02   -.104E+01 -.528E+00 0.780E+00
   0.153E+02 0.382E+02 -.192E+03   -.156E+02 -.378E+02 0.190E+03   -.538E+00 -.875E+00 0.221E+01
   -.183E+02 -.245E+02 -.161E+03   0.185E+02 0.239E+02 0.161E+03   -.302E+00 -.119E+00 0.542E+00
   -.116E+02 0.486E+01 0.169E+03   0.122E+02 -.705E+01 -.167E+03   0.623E+00 -.197E+00 -.291E+01
   0.337E+01 0.292E+02 0.121E+03   -.394E+01 -.289E+02 -.120E+03   0.710E+00 -.800E+00 -.159E+01
   0.702E+01 -.239E+02 0.160E+03   -.825E+01 0.238E+02 -.159E+03   0.143E+00 0.250E+00 -.210E+01
   -.180E+02 0.135E+02 0.905E+02   0.190E+02 -.129E+02 -.888E+02   -.109E+00 0.241E+00 -.595E+00
   0.245E+02 0.257E+02 -.238E+03   -.218E+02 -.238E+02 0.262E+03   -.363E+01 -.232E+01 -.257E+02
   0.192E+02 -.242E+01 -.246E+03   -.188E+02 0.299E+01 0.267E+03   -.136E+01 -.255E+00 -.191E+02
   -.359E+02 0.178E+02 -.263E+03   0.357E+02 -.192E+02 0.291E+03   0.133E+01 0.828E+00 -.281E+02
   -.110E+02 -.376E+02 -.278E+03   0.867E+01 0.388E+02 0.303E+03   0.299E+01 -.491E+00 -.244E+02
   0.304E+01 0.150E+02 0.323E+03   -.793E+01 -.128E+02 -.350E+03   0.604E+01 -.239E+01 0.267E+02
   0.213E+02 -.909E+01 0.304E+03   -.186E+02 0.666E+01 -.330E+03   -.405E+01 0.351E+01 0.246E+02
   -.569E+01 -.165E+02 0.292E+03   0.104E+02 0.183E+02 -.315E+03   -.444E+01 -.826E+00 0.220E+02
   -.251E+02 -.247E+02 0.291E+03   0.234E+02 0.276E+02 -.317E+03   0.274E+01 -.180E+01 0.261E+02
   0.187E+01 0.155E+02 -.395E+03   -.128E+01 -.153E+02 0.407E+03   -.827E+00 -.769E+00 -.115E+02
   0.731E+01 -.169E+02 -.392E+03   -.775E+01 0.170E+02 0.409E+03   0.387E+00 0.124E+01 -.159E+02
   0.404E+01 -.135E+02 -.397E+03   -.661E+01 0.187E+02 0.413E+03   0.321E+01 -.522E+01 -.148E+02
   -.217E+02 -.103E+02 -.366E+03   0.251E+02 0.863E+01 0.382E+03   -.317E+01 0.298E+01 -.155E+02
   0.200E+02 -.132E+02 0.172E+03   -.179E+02 0.121E+02 -.201E+03   -.295E+01 0.157E+01 0.291E+02
   -.982E+01 0.297E+02 0.162E+03   0.134E+02 -.262E+02 -.188E+03   -.245E+01 -.440E+01 0.253E+02
   -.353E+02 -.314E+02 0.174E+03   0.379E+02 0.307E+02 -.195E+03   -.154E+01 0.282E+01 0.198E+02
   0.640E+01 0.103E+02 0.174E+03   -.104E+02 -.981E+01 -.198E+03   0.480E+01 -.113E+01 0.227E+02
   0.105E+02 -.981E+01 -.177E+03   -.120E+02 0.120E+02 0.204E+03   0.216E+01 -.167E+01 -.283E+02
   0.250E+01 -.998E+01 -.175E+03   -.458E+01 0.100E+02 0.197E+03   0.149E+01 0.582E+00 -.212E+02
   -.159E+02 0.450E+01 -.166E+03   0.184E+02 -.196E+01 0.189E+03   -.238E+01 -.187E+01 -.227E+02
   -.649E+00 -.543E+01 -.189E+03   0.234E+01 0.461E+01 0.215E+03   -.168E+01 0.108E+01 -.258E+02
   -.476E+01 -.386E+02 0.348E+03   0.346E+01 0.383E+02 -.363E+03   0.710E+00 0.207E+01 0.154E+02
   -.154E+02 0.355E+02 0.348E+03   0.163E+02 -.368E+02 -.364E+03   -.528E+00 0.169E-01 0.164E+02
   0.214E+02 -.381E+02 0.342E+03   -.228E+02 0.391E+02 -.352E+03   0.543E+00 0.518E+00 0.952E+01
   0.254E+02 0.387E+02 0.348E+03   -.280E+02 -.367E+02 -.364E+03   0.111E+01 -.407E+01 0.157E+02
 -----------------------------------------------------------------------------------------------
   -.580E+00 0.147E+02 0.448E+01   0.107E-12 0.128E-12 0.625E-12   0.492E+00 -.147E+02 -.449E+01
 
 
 POSITION                                       TOTAL-FORCE (eV/Angst)
 -----------------------------------------------------------------------------------
      2.59811      0.25240      0.15107         0.449667     -0.909213     -1.181069
      2.64119      2.90226      4.22876         0.315398      0.163964     -0.210265
      0.21322      1.20862      8.55097        -0.566943      0.235229      0.245997
     -1.28337      3.72973      8.62070         0.077110     -0.655689     -0.225019
      2.67493      1.09430      8.69170         0.845738      0.439103     -0.309034
      1.29773      3.62195      8.50773         0.549108      0.094453      0.187154
     -0.11204      1.47820      2.18861        -1.682201     -0.041547     -0.104513
     -1.50462      3.93688      2.05677        -1.866480     -2.068472      0.954045
      2.47535      1.48946      2.14507         1.951796      0.834977      0.386283
      1.19123      3.93589      2.27524         0.263091     -1.332172      0.988890
     -2.74023      4.52703      6.24302         0.963430     -0.514331      0.682836
     -1.16001      2.16092      6.15266        -3.178934     -1.616745      0.716317
      0.01785      4.46887      6.25295        -0.645114     -0.213199      0.853216
      1.48302      2.09715      6.24906        -0.122065     -0.796509      0.756391
      1.46084      0.51264     10.92753         1.161347     -2.248241     -1.150221
      0.14612      2.79767     10.92063         0.071664     -0.275887     -0.481942
      4.32494      0.38127     10.91453        -1.083713      0.095352     -0.940006
      2.89178      2.76819     10.89913         0.756290      0.864417      0.732910
      5.47372     -0.07211      3.23620        -0.982255     -0.350095     -1.813538
      3.97506      2.30723      2.93293        -0.883478      0.270800      1.891783
      2.47068     -0.00256      3.20419         1.151593     -0.589306     -0.905879
      1.16484      2.25900      3.14508         0.631540      0.691894      0.727065
      1.10321      0.72731      1.12761         1.121040     -0.168799     -0.068772
     -0.04429      3.05658      1.27810        -1.357056      1.101496     -1.331106
      3.92689      0.66209      1.29519         0.356881      1.009748     -0.516500
      2.46003      3.03290      1.20674         1.105440      1.145815      0.272143
      1.45618      0.52053      7.28290        -0.241656     -0.546836      0.698535
      0.10702      2.80749      7.27478        -0.040878      1.302263      0.752536
      4.17575      0.54420      7.20197         0.623220     -0.060910      1.388543
      2.86024      2.82594      7.26389         0.215293      1.242887      0.201337
      0.18415      1.28873      5.24227        -0.936515      0.416182      0.342821
     -1.43348      3.77671      5.26759         1.231020     -0.908076      0.088824
      2.80847      1.22108      5.38907         1.056640      2.102875     -1.662334
      1.38484      3.72801      5.37921         0.779239     -0.612099     -1.489143
      0.10128      1.20599     11.90873         0.665255      0.512049     -0.730106
     -1.22665      3.57485     11.80553        -0.632093      0.600292      0.682038
      2.89855      1.17577     11.83613         0.151291      0.708004     -0.045467
      1.53980      3.55586     11.86433         0.025912      0.241647      0.224458
     -2.57702      4.28314      9.82213        -0.568546      1.687047      0.285500
     -1.24302      2.06772      9.83343         0.451098     -1.308323     -0.012020
      0.16826      4.31673      9.88303        -0.750851      1.554825     -0.895300
      1.60151      2.16595      9.80393        -1.431321     -2.098869      0.012613
 -----------------------------------------------------------------------------------
    total drift:                               -0.088744      0.004734     -0.009130


--------------------------------------------------------------------------------------------------------



  FREE ENERGIE OF THE ION-ELECTRON SYSTEM (eV)
  ---------------------------------------------------
  free  energy   TOTEN  =      -230.38630417 eV

  energy  without entropy=     -230.37613520  energy(sigma->0) =     -230.38121969
 


--------------------------------------------------------------------------------------------------------


    POTLOK:  cpu time    0.0627: real time    0.0627


--------------------------------------------------------------------------------------------------------


     LOOP+:  cpu time 2453.1560: real time 2460.9451
    4ORBIT:  cpu time    0.0000: real time    0.0000
 


 total charge     
 
# of ion       s       p       d       tot
------------------------------------------
    1        0.136   0.317   0.000   0.453
    2        0.119   0.273   0.000   0.392
    3        0.101   0.215   0.000   0.315
    4        0.112   0.244   0.000   0.357
    5        0.112   0.241   0.000   0.353
    6        0.113   0.247   0.000   0.360
    7        0.521   0.901   7.351   8.772
    8        0.482   0.784   7.301   8.568
    9        0.508   0.860   7.367   8.735
   10        0.466   0.758   7.481   8.704
   11        0.503   0.831   7.341   8.674
   12        0.457   0.720   7.430   8.607
   13        0.487   0.806   7.497   8.790
   14        0.490   0.820   7.516   8.826
   15        0.442   0.674   7.428   8.543
   16        0.470   0.767   7.479   8.715
   17        0.451   0.713   7.439   8.603
   18        0.504   0.863   7.314   8.681
   19        1.587   3.384   0.000   4.971
   20        1.576   3.452   0.000   5.028
   21        1.592   3.366   0.000   4.958
   22        1.580   3.458   0.000   5.038
   23        1.585   3.456   0.000   5.041
   24        1.585   3.415   0.000   4.999
   25        1.578   3.460   0.000   5.038
   26        1.590   3.364   0.000   4.953
   27        1.555   3.531   0.000   5.086
   28        1.558   3.524   0.000   5.082
   29        1.562   3.490   0.000   5.052
   30        1.563   3.454   0.000   5.017
   31        1.591   3.391   0.000   4.982
   32        1.579   3.440   0.000   5.019
   33        1.575   3.446   0.000   5.021
   34        1.574   3.483   0.000   5.057
   35        1.583   3.401   0.000   4.984
   36        1.571   3.453   0.000   5.025
   37        1.572   3.457   0.000   5.029
   38        1.579   3.417   0.000   4.996
   39        1.559   3.493   0.000   5.052
   40        1.560   3.474   0.000   5.034
   41        1.554   3.517   0.000   5.071
   42        1.559   3.515   0.000   5.074
--------------------------------------------------
tot         44.241  93.873  88.943 227.057
 


 magnetization (x)
 
# of ion       s       p       d       tot
------------------------------------------
    1       -0.001  -0.004   0.000  -0.005
    2        0.000  -0.001   0.000  -0.001
    3       -0.000  -0.001   0.000  -0.001
    4        0.000   0.000   0.000   0.001
    5        0.000  -0.000   0.000  -0.000
    6        0.001   0.001   0.000   0.001
    7        0.008   0.014   1.115   1.137
    8        0.012   0.019   1.299   1.329
    9        0.010   0.016   1.187   1.213
   10        0.006   0.009  -0.001   0.014
   11        0.009   0.007   1.206   1.222
   12        0.002   0.011   0.100   0.113
   13        0.001   0.003   0.099   0.103
   14        0.002   0.003   0.098   0.102
   15        0.002   0.002   0.057   0.060
   16        0.002   0.005   0.027   0.034
   17        0.002   0.005   0.033   0.040
   18        0.006   0.009   1.102   1.118
   19        0.002  -0.075   0.000  -0.074
   20        0.000  -0.103   0.000  -0.103
   21        0.003  -0.033   0.000  -0.029
   22        0.001  -0.035   0.000  -0.034
   23        0.002  -0.051   0.000  -0.049
   24        0.002  -0.070   0.000  -0.069
   25        0.001  -0.073   0.000  -0.073
   26        0.002  -0.050   0.000  -0.048
   27        0.000  -0.017   0.000  -0.016
   28        0.001   0.036   0.000   0.037
   29        0.001  -0.005   0.000  -0.004
   30        0.001  -0.017   0.000  -0.016
   31        0.001  -0.058   0.000  -0.057
   32        0.001  -0.027   0.000  -0.026
   33        0.002   0.147   0.000   0.149
   34       -0.000  -0.048   0.000  -0.048
   35        0.002   0.081   0.000   0.082
   36        0.000  -0.003   0.000  -0.003
   37        0.000  -0.005   0.000  -0.005
   38        0.000  -0.021   0.000  -0.021
   39        0.000  -0.015   0.000  -0.014
   40        0.000  -0.015   0.000  -0.015
   41        0.000   0.020   0.000   0.020
   42        0.000  -0.007   0.000  -0.007
--------------------------------------------------
tot          0.083  -0.350   6.321   6.055
 

 total amount of memory used by VASP MPI-rank0   142184. kBytes
=======================================================================

   base      :      30000. kBytes
   nonlr-proj:       4466. kBytes
   fftplans  :       1502. kBytes
   grid      :       4132. kBytes
   one-center:        342. kBytes
   wavefun   :     101742. kBytes
 
  
  
 General timing and accounting informations for this job:
 ========================================================
  
                  Total CPU time used (sec):     2477.179
                            User time (sec):     2301.364
                          System time (sec):      175.815
                         Elapsed time (sec):     2485.491
  
                   Maximum memory used (kb):      704076.
                   Average memory used (kb):           0.
  
                          Minor page faults:        66185
                          Major page faults:           71
                 Voluntary context switches:          591
