 running on   64 total cores
 distrk:  each k-point on   64 cores,    1 groups
 distr:  one band on    4 cores,   16 groups
 using from now: INCAR     
 vasp.5.4.4.18Apr17-6-g9f103f2a35 (build Nov 22 2021 14:44:17) complex          
  
 POSCAR found type information on POSCAR  Li Co O 
 POSCAR found :  3 types and      42 ions
 scaLAPACK will be used
 LDA part: xc-table for Pade appr. of Perdew
 generate k-points for:    6    6    2
 POSCAR, INCAR and KPOINTS ok, starting setup
 FFT: planning ...
 WAVECAR not read
 entering main loop
       N       E                     dE             d eps       ncg     rms          ort
DAV:   1     0.348909266697E+04    0.34891E+04   -0.13972E+05  5760   0.219E+03
DAV:   2     0.412826674866E+03   -0.30763E+04   -0.28374E+04  5760   0.533E+02
DAV:   3    -0.218218477895E+03   -0.63105E+03   -0.57576E+03  5760   0.254E+02
DAV:   4    -0.269779273754E+03   -0.51561E+02   -0.50371E+02  5760   0.747E+01
DAV:   5    -0.271591271672E+03   -0.18120E+01   -0.18087E+01  5760   0.140E+01
 gam= 0.000 g(H,U,f)=  0.178E+04 0.899E+03 0.185E+04 ort(H,U,f) = 0.000E+00 0.000E+00 0.000E+00
SDA:   6     0.108439315819E+03    0.38003E+03   -0.18087E+01  5760   0.454E+04 0.000E+00
 gam= 0.000 trial= 0.400  step= 0.064 mean= 0.400
 gam= 0.474 g(H,U,f)=  0.106E+04 0.674E+03 0.420E+03 ort(H,U,f) = 0.109E+04 0.387E+03-0.305E+03
CGA:   7     0.287072567912E+02   -0.79732E+02   -0.14589E+03  5760   0.215E+04 0.117E+04
 gam= 0.474 trial= 0.383  step= 0.042 mean= 0.383
 gam= 0.000 g(H,U,f)=  0.511E+03 0.400E+03 0.514E+02 ort(H,U,f) = 0.111E+04 0.497E+03-0.306E+03
CGA:   8    -0.981315638881E+02   -0.12684E+03   -0.56191E+02  5760   0.962E+03 0.130E+04
 gam= 0.000 trial= 0.366  step= 0.191 mean= 0.366
 gam= 1.579 g(H,U,f)=  0.801E+02 0.622E+03 0.818E+03 ort(H,U,f) = 0.131E+02 0.594E+02-0.827E+02
CGA:   9    -0.178331453619E+03   -0.80200E+02   -0.91929E+02  5760   0.152E+04-0.102E+02
 gam= 1.579 trial= 0.357  step= 0.051 mean= 0.357
 gam= 0.325 g(H,U,f)=  0.102E+03 0.272E+03 0.120E+03 ort(H,U,f) =-0.255E+03-0.237E+03-0.128E+03
CGA:  10    -0.191347379565E+03   -0.13016E+02   -0.38517E+02  5760   0.494E+03-0.620E+03
 gam= 0.325 trial= 0.342  step= 0.086 mean= 0.342
 gam= 0.544 g(H,U,f)=  0.122E+03 0.102E+03 0.456E+02 ort(H,U,f) =-0.320E+02-0.120E+03-0.311E+02
CGA:  11    -0.194158915696E+03   -0.28115E+01   -0.12622E+02  5760   0.269E+03-0.183E+03
 gam= 0.544 trial= 0.329  step= 0.144 mean= 0.329
 gam= 0.985 g(H,U,f)=  0.751E+02 0.142E+03 0.480E+02 ort(H,U,f) = 0.555E+02-0.634E+02-0.190E+02
CGA:  12    -0.202629681568E+03   -0.84708E+01   -0.12143E+02  5760   0.265E+03-0.269E+02
 gam= 0.985 trial= 0.320  step= 0.125 mean= 0.320
 gam= 0.334 g(H,U,f)=  0.159E+02 0.460E+02 0.264E+02 ort(H,U,f) = 0.124E+02-0.205E+02-0.178E+02
CGA:  13    -0.214367393867E+03   -0.11738E+02   -0.14917E+02  5760   0.883E+02-0.259E+02
 gam= 0.334 trial= 0.310  step= 0.079 mean= 0.310
 gam= 0.227 g(H,U,f)=  0.647E+01 0.112E+02 0.230E+01 ort(H,U,f) = 0.181E+01-0.836E+01-0.422E+01
CGA:  14    -0.217101301009E+03   -0.27339E+01   -0.31462E+01  5760   0.200E+02-0.108E+02
 gam= 0.227 trial= 0.299  step= 0.148 mean= 0.299
 gam= 1.049 g(H,U,f)=  0.334E+01 0.132E+02 0.443E+01 ort(H,U,f) = 0.220E+01-0.164E+01-0.150E+01
CGA:  15    -0.218278808677E+03   -0.11775E+01   -0.13013E+01  5760   0.210E+02-0.947E+00
 gam= 1.049 trial= 0.291  step= 0.090 mean= 0.291
 gam= 0.330 g(H,U,f)=  0.160E+01 0.442E+01 0.899E+00 ort(H,U,f) = 0.419E+00-0.181E+01-0.106E+01
CGA:  16    -0.219049814628E+03   -0.77101E+00   -0.89610E+00  5760   0.692E+01-0.245E+01
 gam= 0.330 trial= 0.281  step= 0.150 mean= 0.281
 gam= 0.802 g(H,U,f)=  0.133E+01 0.285E+01 0.138E+01 ort(H,U,f) = 0.532E+00-0.120E+00-0.706E+00
CGA:  17    -0.219462550528E+03   -0.41274E+00   -0.45711E+00  5760   0.556E+01-0.294E+00
 gam= 0.802 trial= 0.275  step= 0.174 mean= 0.275
 gam= 0.517 g(H,U,f)=  0.811E+00 0.172E+01 0.344E+00 ort(H,U,f) = 0.426E-01 0.192E+00-0.266E+00
CGA:  18    -0.219910195964E+03   -0.44765E+00   -0.46247E+00  5760   0.287E+01-0.305E-01
 gam= 0.517 trial= 0.269  step= 0.138 mean= 0.269
 gam= 0.518 g(H,U,f)=  0.367E+00 0.768E+00 0.353E+00 ort(H,U,f) = 0.100E+00-0.210E-01-0.154E+00
CGA:  19    -0.220096181354E+03   -0.18599E+00   -0.19663E+00  5760   0.149E+01-0.745E-01
 gam= 0.518 trial= 0.263  step= 0.167 mean= 0.263
 gam= 0.930 g(H,U,f)=  0.287E+00 0.841E+00 0.257E+00 ort(H,U,f) =-0.283E-01 0.148E+00-0.129E+00
CGA:  20    -0.220210677107E+03   -0.11450E+00   -0.12077E+00  5760   0.138E+01-0.965E-02
 gam= 0.930 trial= 0.258  step= 0.193 mean= 0.258
 gam= 0.860 g(H,U,f)=  0.291E+00 0.646E+00 0.254E+00 ort(H,U,f) =-0.244E+00 0.331E+00-0.656E-01
CGA:  21    -0.220341779799E+03   -0.13110E+00   -0.13302E+00  5760   0.119E+01 0.210E-01
 gam= 0.860 trial= 0.255  step= 0.210 mean= 0.255
 gam= 0.683 g(H,U,f)=  0.254E+00 0.360E+00 0.200E+00 ort(H,U,f) =-0.211E+00 0.320E+00-0.331E-01
CGA:  22    -0.220463229798E+03   -0.12145E+00   -0.12691E+00  5760   0.813E+00 0.764E-01
 gam= 0.683 trial= 0.253  step= 0.237 mean= 0.253
 gam= 1.341 g(H,U,f)=  0.198E+00 0.615E+00 0.276E+00 ort(H,U,f) =-0.544E-01 0.198E+00-0.168E+00
CGA:  23    -0.220566087421E+03   -0.10286E+00   -0.10245E+00  5760   0.109E+01-0.242E-01
 gam= 1.341 trial= 0.252  step= 0.272 mean= 0.252
 gam= 1.026 g(H,U,f)=  0.301E+00 0.740E+00 0.773E-01 ort(H,U,f) =-0.201E+00 0.244E+00-0.299E-01
CGA:  24    -0.220710079224E+03   -0.14399E+00   -0.14374E+00  5760   0.112E+01 0.133E-01
 gam= 1.026 trial= 0.253  step= 0.351 mean= 0.253
 gam= 1.023 g(H,U,f)=  0.431E+00 0.680E+00 0.331E-01 ort(H,U,f) =-0.173E+00 0.270E+00 0.154E-01
CGA:  25    -0.220917055635E+03   -0.20698E+00   -0.19882E+00  5760   0.114E+01 0.113E+00
 gam= 1.023 trial= 0.258  step= 0.313 mean= 0.258
 gam= 0.863 g(H,U,f)=  0.391E+00 0.510E+00 0.863E-01 ort(H,U,f) =-0.882E-01 0.263E+00-0.689E-01
CGA:  26    -0.221118134829E+03   -0.20108E+00   -0.19690E+00  5760   0.987E+00 0.106E+00
 gam= 0.863 trial= 0.260  step= 0.326 mean= 0.260
 gam= 1.725 g(H,U,f)=  0.453E+00 0.861E+00 0.388E+00 ort(H,U,f) =-0.178E+00 0.168E+00-0.952E-01
CGA:  27    -0.221288944851E+03   -0.17081E+00   -0.17562E+00  5760   0.170E+01-0.106E+00
 gam= 1.725 trial= 0.264  step= 0.273 mean= 0.264
 gam= 0.877 g(H,U,f)=  0.700E+00 0.744E+00 0.494E-01 ort(H,U,f) =-0.642E+00 0.608E+00 0.457E-01
CGA:  28    -0.221496082711E+03   -0.20714E+00   -0.20704E+00  5760   0.149E+01 0.108E-01
 gam= 0.877 trial= 0.264  step= 0.285 mean= 0.264
 gam= 0.643 g(H,U,f)=  0.458E+00 0.491E+00 0.118E-01 ort(H,U,f) =-0.294E+00 0.449E+00-0.221E-01
CGA:  29    -0.221712481360E+03   -0.21640E+00   -0.21390E+00  5760   0.961E+00 0.133E+00
 gam= 0.643 trial= 0.265  step= 0.390 mean= 0.265
 gam= 1.017 g(H,U,f)=  0.383E+00 0.514E+00 0.800E-01 ort(H,U,f) =-0.198E+00 0.256E+00 0.329E-01
CGA:  30    -0.221924277917E+03   -0.21180E+00   -0.20418E+00  5760   0.977E+00 0.915E-01
 gam= 1.017 trial= 0.271  step= 0.399 mean= 0.271
 gam= 0.819 g(H,U,f)=  0.329E+00 0.460E+00 0.114E-01 ort(H,U,f) =-0.109E+00 0.206E+00-0.891E-01
CGA:  31    -0.222146186506E+03   -0.22191E+00   -0.21355E+00  5760   0.800E+00 0.765E-02
 gam= 0.819 trial= 0.278  step= 0.061 mean= 0.278
 gam= 0.000 g(H,U,f)=  0.238E+00 0.424E+00 0.466E-01 ort(H,U,f) = 0.191E+00 0.525E+00-0.115E+00
CGA:  32    -0.222188530560E+03   -0.42344E-01   -0.24477E-01  5760   0.708E+00 0.601E+00
 gam= 0.000 trial= 0.267  step= 0.377 mean= 0.267
 gam= 0.597 g(H,U,f)=  0.190E+00 0.226E+00 0.663E-02 ort(H,U,f) = 0.225E-02 0.562E-01-0.112E-01
CGA:  33    -0.222325194707E+03   -0.13666E+00   -0.13335E+00  5760   0.423E+00 0.473E-01
 gam= 0.597 trial= 0.272  step= 0.762 mean= 0.272
 gam= 1.556 g(H,U,f)=  0.273E+00 0.290E+00 0.946E-01 ort(H,U,f) =-0.134E+00 0.990E-01-0.767E-02
CGA:  34    -0.222487469037E+03   -0.16227E+00   -0.17178E+00  5760   0.657E+00-0.425E-01
 gam= 1.556 trial= 0.297  step= 0.340 mean= 0.297
 gam= 0.484 g(H,U,f)=  0.221E+00 0.970E-01 0.528E-03 ort(H,U,f) =-0.129E+00 0.188E+00-0.907E-04
CGA:  35    -0.222590305740E+03   -0.10284E+00   -0.10065E+00  5760   0.318E+00 0.586E-01
 gam= 0.484 trial= 0.299  step= 0.381 mean= 0.299
 gam= 0.607 g(H,U,f)=  0.815E-01 0.103E+00 0.888E-02 ort(H,U,f) =-0.255E-01 0.365E-01-0.116E-01
CGA:  36    -0.222656861032E+03   -0.66555E-01   -0.65924E-01  5760   0.193E+00-0.644E-03
 gam= 0.607 trial= 0.303  step= 0.457 mean= 0.303
 gam= 0.684 g(H,U,f)=  0.661E-01 0.613E-01 0.475E-02 ort(H,U,f) =-0.326E-01 0.332E-01 0.922E-03
CGA:  37    -0.222701034219E+03   -0.44173E-01   -0.44005E-01  5760   0.132E+00 0.143E-02
 gam= 0.684 trial= 0.311  step= 0.473 mean= 0.311
 gam= 0.924 g(H,U,f)=  0.521E-01 0.690E-01 0.101E-02 ort(H,U,f) = 0.108E-02 0.338E-02 0.133E-02
CGA:  38    -0.222733232757E+03   -0.32199E-01   -0.31505E-01  5760   0.122E+00 0.580E-02
 gam= 0.924 trial= 0.319  step= 0.400 mean= 0.319
 gam= 0.601 g(H,U,f)=  0.305E-01 0.428E-01 0.676E-04 ort(H,U,f) =-0.143E-01 0.283E-01 0.466E-03
CGA:  39    -0.222758529111E+03   -0.25296E-01   -0.25495E-01  5760   0.734E-01 0.144E-01
 gam= 0.601 trial= 0.323  step= 0.385 mean= 0.323
 gam= 1.125 g(H,U,f)=  0.476E-01 0.344E-01 0.476E-03 ort(H,U,f) =-0.205E-01 0.186E-01 0.105E-02
CGA:  40    -0.222774135159E+03   -0.15606E-01   -0.15805E-01  5760   0.825E-01-0.823E-03
 gam= 1.125 trial= 0.326  step= 0.455 mean= 0.326
 gam= 0.900 g(H,U,f)=  0.410E-01 0.331E-01 0.182E-03 ort(H,U,f) =-0.231E-01 0.247E-01-0.618E-03
CGA:  41    -0.222792881454E+03   -0.18746E-01   -0.18557E-01  5760   0.743E-01 0.988E-03
 gam= 0.900 trial= 0.333  step= 0.340 mean= 0.333
 gam= 0.772 g(H,U,f)=  0.323E-01 0.244E-01 0.589E-03 ort(H,U,f) =-0.201E-01 0.203E-01-0.567E-03
CGA:  42    -0.222805647962E+03   -0.12767E-01   -0.12774E-01  5760   0.574E-01-0.393E-03
 gam= 0.772 trial= 0.333  step= 0.450 mean= 0.333
 gam= 1.186 g(H,U,f)=  0.276E-01 0.404E-01 0.470E-05 ort(H,U,f) =-0.721E-02 0.732E-02-0.352E-05
CGA:  43    -0.222818386032E+03   -0.12738E-01   -0.12849E-01  5760   0.680E-01 0.113E-03
 gam= 1.186 trial= 0.339  step= 0.342 mean= 0.339
 gam= 0.531 g(H,U,f)=  0.187E-01 0.174E-01 0.195E-04 ort(H,U,f) =-0.119E-01 0.116E-01 0.930E-05
CGA:  44    -0.222830034258E+03   -0.11648E-01   -0.11649E-01  5760   0.361E-01-0.313E-03
 gam= 0.531 trial= 0.339  step= 0.396 mean= 0.339
 gam= 0.847 g(H,U,f)=  0.159E-01 0.146E-01 0.554E-04 ort(H,U,f) =-0.277E-02 0.297E-02 0.618E-04
CGA:  45    -0.222837157339E+03   -0.71231E-02   -0.71268E-02  5760   0.306E-01 0.268E-03
 gam= 0.847 trial= 0.342  step= 0.369 mean= 0.342
 gam= 0.834 g(H,U,f)=  0.123E-01 0.132E-01 0.226E-05 ort(H,U,f) =-0.944E-03 0.111E-02-0.876E-06
CGA:  46    -0.222842834670E+03   -0.56773E-02   -0.56896E-02  5760   0.255E-01 0.169E-03
 gam= 0.834 trial= 0.343  step= 0.421 mean= 0.343
 gam= 0.688 g(H,U,f)=  0.882E-02 0.874E-02 0.321E-05 ort(H,U,f) =-0.550E-02 0.465E-02-0.152E-04
CGA:  47    -0.222848170367E+03   -0.53357E-02   -0.54063E-02  5760   0.176E-01-0.858E-03
 gam= 0.688 trial= 0.347  step= 0.389 mean= 0.347
 gam= 0.882 g(H,U,f)=  0.739E-02 0.810E-02 0.807E-05 ort(H,U,f) =-0.372E-02 0.392E-02 0.255E-04
CGA:  48    -0.222851473095E+03   -0.33027E-02   -0.33009E-02  5760   0.155E-01 0.228E-03
 gam= 0.882 trial= 0.349  step= 0.487 mean= 0.349
 gam= 1.392 g(H,U,f)=  0.105E-01 0.105E-01 0.576E-03 ort(H,U,f) =-0.436E-02 0.445E-02-0.734E-03
CGA:  49    -0.222855201232E+03   -0.37281E-02   -0.38216E-02  5760   0.216E-01-0.642E-03
 gam= 1.392 trial= 0.356  step= 0.479 mean= 0.356
 gam= 0.991 g(H,U,f)=  0.115E-01 0.952E-02 0.356E-03 ort(H,U,f) =-0.818E-02 0.639E-02-0.378E-03
CGA:  50    -0.222859972415E+03   -0.47712E-02   -0.49518E-02  5760   0.214E-01-0.216E-02
 gam= 0.991 trial= 0.362  step= 0.433 mean= 0.362
 gam= 1.116 g(H,U,f)=  0.137E-01 0.999E-02 0.119E-03 ort(H,U,f) =-0.624E-02 0.658E-02 0.197E-04
CGA:  51    -0.222864138917E+03   -0.41665E-02   -0.41673E-02  5760   0.239E-01 0.356E-03
 gam= 1.116 trial= 0.366  step= 0.447 mean= 0.366
 gam= 1.169 g(H,U,f)=  0.153E-01 0.125E-01 0.618E-04 ort(H,U,f) =-0.483E-02 0.460E-02-0.116E-04
CGA:  52    -0.222869467742E+03   -0.53288E-02   -0.54164E-02  5760   0.279E-01-0.240E-03
 gam= 1.169 trial= 0.370  step= 0.409 mean= 0.370
 gam= 0.904 g(H,U,f)=  0.145E-01 0.106E-01 0.320E-04 ort(H,U,f) =-0.709E-02 0.674E-02 0.791E-04
CGA:  53    -0.222875102474E+03   -0.56347E-02   -0.56447E-02  5760   0.252E-01-0.269E-03
 gam= 0.904 trial= 0.372  step= 0.418 mean= 0.372
 gam= 1.081 g(H,U,f)=  0.152E-01 0.121E-01 0.277E-04 ort(H,U,f) =-0.684E-02 0.706E-02-0.668E-04
CGA:  54    -0.222880324044E+03   -0.52216E-02   -0.52222E-02  5760   0.273E-01 0.155E-03
 gam= 1.081 trial= 0.374  step= 0.410 mean= 0.374
 gam= 0.993 g(H,U,f)=  0.145E-01 0.125E-01 0.135E-03 ort(H,U,f) =-0.832E-02 0.765E-02-0.204E-03
CGA:  55    -0.222885913228E+03   -0.55892E-02   -0.56295E-02  5760   0.271E-01-0.883E-03
 gam= 0.993 trial= 0.376  step= 0.383 mean= 0.376
 gam= 0.863 g(H,U,f)=  0.129E-01 0.105E-01 0.334E-04 ort(H,U,f) =-0.708E-02 0.714E-02-0.186E-03
CGA:  56    -0.222890934538E+03   -0.50213E-02   -0.50214E-02  5760   0.234E-01-0.133E-03
 gam= 0.863 trial= 0.376  step= 0.429 mean= 0.376
 gam= 1.038 g(H,U,f)=  0.119E-01 0.120E-01 0.394E-03 ort(H,U,f) =-0.557E-02 0.551E-02-0.155E-04
CGA:  57    -0.222895899635E+03   -0.49651E-02   -0.49861E-02  5760   0.243E-01-0.759E-04
 gam= 1.038 trial= 0.379  step= 0.358 mean= 0.379
 gam= 0.756 g(H,U,f)=  0.104E-01 0.781E-02 0.105E-03 ort(H,U,f) =-0.408E-02 0.396E-02 0.225E-03
CGA:  58    -0.222900232130E+03   -0.43325E-02   -0.43316E-02  5760   0.183E-01 0.104E-03
 gam= 0.756 trial= 0.378  step= 0.384 mean= 0.378
 gam= 0.770 g(H,U,f)=  0.706E-02 0.707E-02 0.599E-05 ort(H,U,f) =-0.171E-02 0.208E-02-0.782E-04
CGA:  59    -0.222903767581E+03   -0.35355E-02   -0.35339E-02  5760   0.141E-01 0.286E-03
 gam= 0.770 trial= 0.378  step= 0.368 mean= 0.378
 gam= 0.799 g(H,U,f)=  0.548E-02 0.581E-02 0.126E-04 ort(H,U,f) =-0.154E-02 0.157E-02-0.563E-04
CGA:  60    -0.222906407549E+03   -0.26400E-02   -0.26398E-02  5760   0.113E-01-0.305E-04
 gam= 0.799 trial= 0.378  step= 0.388 mean= 0.378
 gam= 0.812 g(H,U,f)=  0.485E-02 0.430E-02 0.172E-04 ort(H,U,f) =-0.148E-02 0.151E-02-0.315E-04
CGA:  61    -0.222908596527E+03   -0.21890E-02   -0.21895E-02  5760   0.918E-02 0.180E-05
 gam= 0.812 trial= 0.378  step= 0.415 mean= 0.378
 gam= 0.793 g(H,U,f)=  0.335E-02 0.387E-02 0.533E-04 ort(H,U,f) =-0.137E-02 0.129E-02-0.450E-05
CGA:  62    -0.222910498178E+03   -0.19017E-02   -0.19034E-02  5760   0.727E-02-0.826E-04
 gam= 0.793 trial= 0.380  step= 0.337 mean= 0.380
 gam= 0.000 g(H,U,f)=  0.281E-02 0.234E-02 0.482E-05 ort(H,U,f) =-0.140E-02 0.152E-02-0.187E-04
SDA:  63    -0.222911714015E+03   -0.12158E-02   -0.12149E-02  5760   0.515E-02 0.101E-03
 gam= 0.000 trial= 0.378  step= 0.400 mean= 0.378
 gam= 0.658 g(H,U,f)=  0.129E-02 0.208E-02 0.117E-04 ort(H,U,f) = 0.289E-03-0.275E-03-0.596E-05
CGA:  64    -0.222912740245E+03   -0.10262E-02   -0.10310E-02  5760   0.339E-02 0.846E-05
 gam= 0.658 trial= 0.379  step= 0.590 mean= 0.379
 gam= 0.990 g(H,U,f)=  0.131E-02 0.203E-02 0.471E-05 ort(H,U,f) =-0.737E-03 0.562E-03 0.152E-05
CGA:  65    -0.222913705719E+03   -0.96547E-03   -0.10009E-02  5760   0.335E-02-0.174E-03
 gam= 0.990 trial= 0.390  step= 0.401 mean= 0.390
 gam= 0.608 g(H,U,f)=  0.105E-02 0.970E-03 0.159E-04 ort(H,U,f) =-0.851E-03 0.799E-03 0.119E-04
CGA:  66    -0.222914342902E+03   -0.63718E-03   -0.63790E-03  5760   0.204E-02-0.397E-04
 gam= 0.608 trial= 0.390  step= 0.755 mean= 0.390
 gam= 0.954 g(H,U,f)=  0.103E-02 0.885E-03 0.344E-04 ort(H,U,f) =-0.552E-03 0.527E-03-0.291E-04
CGA:  67    -0.222915097381E+03   -0.75448E-03   -0.76137E-03  5760   0.195E-02-0.542E-04
 gam= 0.954 trial= 0.408  step= 0.586 mean= 0.408
 gam= 0.837 g(H,U,f)=  0.738E-03 0.888E-03 0.339E-05 ort(H,U,f) =-0.329E-03 0.381E-03 0.254E-05
CGA:  68    -0.222915657441E+03   -0.56006E-03   -0.55583E-03  5760   0.163E-02 0.551E-04
 gam= 0.837 trial= 0.417  step= 0.708 mean= 0.417
 gam= 1.361 g(H,U,f)=  0.800E-03 0.141E-02 0.638E-05 ort(H,U,f) =-0.242E-03 0.258E-03-0.493E-05
CGA:  69    -0.222916240648E+03   -0.58321E-03   -0.59283E-03  5760   0.222E-02 0.111E-04
 gam= 1.361 trial= 0.432  step= 0.435 mean= 0.432
 gam= 0.759 g(H,U,f)=  0.757E-03 0.917E-03 0.901E-05 ort(H,U,f) =-0.416E-03 0.365E-03 0.229E-05
CGA:  70    -0.222916725659E+03   -0.48501E-03   -0.48545E-03  5760   0.168E-02-0.491E-04
 gam= 0.759 trial= 0.432  step= 0.661 mean= 0.432
 gam= 0.926 g(H,U,f)=  0.792E-03 0.752E-03 0.141E-04 ort(H,U,f) =-0.434E-03 0.445E-03-0.158E-04
CGA:  71    -0.222917267624E+03   -0.54197E-03   -0.54381E-03  5760   0.156E-02-0.535E-05
 gam= 0.926 trial= 0.443  step= 0.723 mean= 0.443
 gam= 0.841 g(H,U,f)=  0.646E-03 0.658E-03 0.651E-05 ort(H,U,f) =-0.354E-03 0.345E-03 0.815E-06
CGA:  72    -0.222917826374E+03   -0.55875E-03   -0.56144E-03  5760   0.131E-02-0.865E-05
 gam= 0.841 trial= 0.457  step= 0.649 mean= 0.457
 gam= 0.949 g(H,U,f)=  0.566E-03 0.674E-03 0.328E-05 ort(H,U,f) =-0.232E-03 0.249E-03-0.305E-05
CGA:  73    -0.222918250630E+03   -0.42426E-03   -0.42255E-03  5760   0.124E-02 0.137E-04
 gam= 0.949 trial= 0.467  step= 0.534 mean= 0.467
 gam= 1.091 g(H,U,f)=  0.547E-03 0.775E-03 0.341E-04 ort(H,U,f) =-0.116E-03 0.140E-03-0.851E-05
CGA:  74    -0.222918583241E+03   -0.33261E-03   -0.33511E-03  5760   0.136E-02 0.150E-04
 gam= 1.091 trial= 0.470  step= 0.484 mean= 0.470
 gam= 0.732 g(H,U,f)=  0.472E-03 0.520E-03 0.144E-05 ort(H,U,f) =-0.256E-03 0.239E-03 0.378E-07
CGA:  75    -0.222918914653E+03   -0.33141E-03   -0.33228E-03  5760   0.993E-03-0.173E-04
 gam= 0.732 trial= 0.471  step= 0.713 mean= 0.471
 gam= 0.727 g(H,U,f)=  0.401E-03 0.319E-03 0.191E-05 ort(H,U,f) =-0.296E-03 0.239E-03 0.375E-05
CGA:  76    -0.222919252190E+03   -0.33754E-03   -0.34972E-03  5760   0.722E-03-0.533E-04
 gam= 0.727 trial= 0.483  step= 1.210 mean= 0.483
 gam= 1.550 g(H,U,f)=  0.545E-03 0.508E-03 0.662E-04 ort(H,U,f) =-0.192E-03 0.164E-03-0.459E-04
CGA:  77    -0.222919641660E+03   -0.38947E-03   -0.41321E-03  5760   0.112E-02-0.741E-04
 gam= 1.550 trial= 0.519  step= 0.594 mean= 0.519
 gam= 0.728 g(H,U,f)=  0.476E-03 0.335E-03 0.338E-05 ort(H,U,f) =-0.280E-03 0.243E-03 0.471E-05
CGA:  78    -0.222919936308E+03   -0.29465E-03   -0.29815E-03  5760   0.814E-03-0.315E-04
 gam= 0.728 trial= 0.523  step= 0.709 mean= 0.523
 gam= 1.225 g(H,U,f)=  0.418E-03 0.571E-03 0.888E-05 ort(H,U,f) =-0.945E-04 0.102E-03-0.269E-05
CGA:  79    -0.222920216061E+03   -0.27975E-03   -0.28066E-03  5760   0.998E-03 0.473E-05
 gam= 1.225 trial= 0.532  step= 0.431 mean= 0.532
 gam= 0.637 g(H,U,f)=  0.269E-03 0.364E-03 0.271E-05 ort(H,U,f) =-0.108E-03 0.135E-03-0.810E-05
CGA:  80    -0.222920433813E+03   -0.21775E-03   -0.21629E-03  5760   0.635E-03 0.194E-04
 gam= 0.637 trial= 0.527  step= 0.524 mean= 0.527
 gam= 0.753 g(H,U,f)=  0.216E-03 0.249E-03 0.139E-04 ort(H,U,f) =-0.114E-03 0.106E-03 0.513E-05
CGA:  81    -0.222920603793E+03   -0.16998E-03   -0.16988E-03  5760   0.478E-03-0.300E-05
 gam= 0.753 trial= 0.527  step= 0.826 mean= 0.527
 gam= 0.857 g(H,U,f)=  0.188E-03 0.217E-03 0.453E-05 ort(H,U,f) =-0.889E-04 0.119E-03-0.880E-05
CGA:  82    -0.222920806321E+03   -0.20253E-03   -0.19651E-03  5760   0.410E-03 0.217E-04
 gam= 0.857 trial= 0.542  step= 0.550 mean= 0.542
 gam= 1.006 g(H,U,f)=  0.148E-03 0.259E-03 0.486E-05 ort(H,U,f) =-0.769E-04 0.785E-04 0.135E-05
CGA:  83    -0.222920924098E+03   -0.11778E-03   -0.11781E-03  5760   0.412E-03 0.304E-05
 gam= 1.006 trial= 0.543  step= 0.636 mean= 0.543
 gam= 1.279 g(H,U,f)=  0.213E-03 0.292E-03 0.220E-04 ort(H,U,f) =-0.780E-04 0.939E-04-0.171E-04
CGA:  84    -0.222921053051E+03   -0.12895E-03   -0.13217E-03  5760   0.527E-03-0.125E-05
 gam= 1.279 trial= 0.547  step= 0.600 mean= 0.547
 gam= 0.908 g(H,U,f)=  0.225E-03 0.236E-03 0.189E-04 ort(H,U,f) =-0.141E-03 0.117E-03-0.128E-05
CGA:  85    -0.222921209510E+03   -0.15646E-03   -0.15782E-03  5760   0.479E-03-0.257E-04
 gam= 0.908 trial= 0.550  step= 0.694 mean= 0.550
 gam= 0.744 g(H,U,f)=  0.190E-03 0.164E-03 0.176E-05 ort(H,U,f) =-0.108E-03 0.128E-03 0.531E-05
CGA:  86    -0.222921370300E+03   -0.16079E-03   -0.15815E-03  5760   0.356E-03 0.251E-04
 gam= 0.744 trial= 0.557  step= 0.727 mean= 0.557
 gam= 1.573 g(H,U,f)=  0.195E-03 0.338E-03 0.271E-04 ort(H,U,f) =-0.356E-04 0.436E-04-0.228E-04
CGA:  87    -0.222921506472E+03   -0.13617E-03   -0.13640E-03  5760   0.560E-03-0.149E-04
 gam= 1.573 trial= 0.566  step= 0.603 mean= 0.566
 gam= 0.752 g(H,U,f)=  0.192E-03 0.227E-03 0.305E-05 ort(H,U,f) =-0.165E-03 0.153E-03-0.276E-05
CGA:  88    -0.222921667595E+03   -0.16112E-03   -0.16184E-03  5760   0.422E-03-0.152E-04
 gam= 0.752 trial= 0.567  step= 0.499 mean= 0.567
 gam= 0.927 g(H,U,f)=  0.165E-03 0.213E-03 0.134E-04 ort(H,U,f) =-0.679E-04 0.743E-04 0.896E-06
CGA:  89    -0.222921772040E+03   -0.10445E-03   -0.10227E-03  5760   0.391E-03 0.725E-05
 gam= 0.927 trial= 0.564  step= 0.736 mean= 0.564
 gam= 1.083 g(H,U,f)=  0.223E-03 0.199E-03 0.729E-06 ort(H,U,f) =-0.994E-04 0.110E-03-0.396E-07
CGA:  90    -0.222921919097E+03   -0.14706E-03   -0.14629E-03  5760   0.423E-03 0.105E-04
 gam= 1.083 trial= 0.573  step= 0.667 mean= 0.573
 gam= 0.969 g(H,U,f)=  0.183E-03 0.225E-03 0.247E-05 ort(H,U,f) =-0.884E-04 0.908E-04 0.575E-05
CGA:  91    -0.222922063864E+03   -0.14477E-03   -0.14509E-03  5760   0.410E-03 0.813E-05
 gam= 0.969 trial= 0.577  step= 0.590 mean= 0.577
 gam= 1.183 g(H,U,f)=  0.184E-03 0.295E-03 0.607E-05 ort(H,U,f) =-0.689E-04 0.794E-04-0.129E-04
CGA:  92    -0.222922187130E+03   -0.12327E-03   -0.12336E-03  5760   0.486E-03-0.240E-05
 gam= 1.183 trial= 0.578  step= 0.660 mean= 0.578
 gam= 1.107 g(H,U,f)=  0.261E-03 0.275E-03 0.621E-06 ort(H,U,f) =-0.148E-03 0.134E-03 0.136E-05
CGA:  93    -0.222922345114E+03   -0.15798E-03   -0.15936E-03  5760   0.537E-03-0.123E-04
 gam= 1.107 trial= 0.582  step= 0.716 mean= 0.582
 gam= 0.000 g(H,U,f)=  0.258E-03 0.350E-03 0.131E-04 ort(H,U,f) =-0.156E-03 0.164E-03-0.150E-04
SDA:  94    -0.222922530288E+03   -0.18517E-03   -0.18741E-03  5760   0.621E-03-0.721E-05
 gam= 0.000 trial= 0.589  step= 0.357 mean= 0.589
 gam= 0.689 g(H,U,f)=  0.160E-03 0.266E-03 0.213E-05 ort(H,U,f) = 0.667E-04-0.277E-04 0.206E-05
CGA:  95    -0.222922647860E+03   -0.11757E-03   -0.11088E-03  5760   0.428E-03 0.411E-04
 gam= 0.689 trial= 0.577  step= 0.573 mean= 0.577
 gam= 1.058 g(H,U,f)=  0.137E-03 0.304E-03 0.111E-04 ort(H,U,f) =-0.684E-04 0.665E-04 0.112E-04
CGA:  96    -0.222922778693E+03   -0.13083E-03   -0.13081E-03  5760   0.453E-03 0.925E-05
 gam= 1.058 trial= 0.577  step= 0.539 mean= 0.577
 gam= 0.685 g(H,U,f)=  0.181E-03 0.127E-03 0.174E-05 ort(H,U,f) =-0.162E-03 0.172E-03-0.885E-05
CGA:  97    -0.222922902859E+03   -0.12417E-03   -0.12459E-03  5760   0.310E-03 0.127E-05
 gam= 0.685 trial= 0.575  step= 0.881 mean= 0.575
 gam= 1.344 g(H,U,f)=  0.173E-03 0.235E-03 0.926E-05 ort(H,U,f) =-0.739E-04 0.693E-04-0.112E-04
CGA:  98    -0.222923037541E+03   -0.13468E-03   -0.13709E-03  5760   0.417E-03-0.159E-04
 gam= 1.344 trial= 0.590  step= 0.762 mean= 0.590
 gam= 1.295 g(H,U,f)=  0.238E-03 0.300E-03 0.200E-05 ort(H,U,f) =-0.119E-03 0.108E-03-0.276E-05
CGA:  99    -0.222923182972E+03   -0.14543E-03   -0.15068E-03  5760   0.540E-03-0.137E-04
 gam= 1.295 trial= 0.599  step= 0.382 mean= 0.599
 gam= 0.879 g(H,U,f)=  0.211E-03 0.241E-03 0.230E-04 ort(H,U,f) =-0.933E-04 0.974E-04-0.606E-05
CGA: 100    -0.222923287256E+03   -0.10428E-03   -0.99776E-04  5760   0.475E-03-0.194E-05
 gam= 0.879 trial= 0.588  step= 0.834 mean= 0.588
 gam= 1.131 g(H,U,f)=  0.265E-03 0.268E-03 0.397E-05 ort(H,U,f) =-0.120E-03 0.142E-03 0.730E-05
CGA: 101    -0.222923489612E+03   -0.20236E-03   -0.19730E-03  5760   0.537E-03 0.298E-04
 gam= 1.131 trial= 0.600  step= 0.506 mean= 0.600
 gam= 1.105 g(H,U,f)=  0.218E-03 0.357E-03 0.184E-04 ort(H,U,f) =-0.986E-04 0.137E-03-0.247E-04
CGA: 102    -0.222923635539E+03   -0.14593E-03   -0.14451E-03  5760   0.593E-03 0.134E-04
 gam= 1.105 trial= 0.596  step= 0.473 mean= 0.596
 gam= 1.118 g(H,U,f)=  0.281E-03 0.380E-03 0.170E-05 ort(H,U,f) =-0.127E-03 0.119E-03-0.275E-05
CGA: 103    -0.222923781222E+03   -0.14568E-03   -0.14371E-03  5760   0.663E-03-0.113E-04
 gam= 1.118 trial= 0.590  step= 0.632 mean= 0.590
 gam= 0.871 g(H,U,f)=  0.343E-03 0.233E-03 0.174E-05 ort(H,U,f) =-0.199E-03 0.198E-03-0.168E-05
CGA: 104    -0.222923986745E+03   -0.20552E-03   -0.20561E-03  5760   0.578E-03-0.214E-05
 gam= 0.871 trial= 0.592  step= 0.474 mean= 0.592
 gam= 1.165 g(H,U,f)=  0.231E-03 0.423E-03 0.193E-04 ort(H,U,f) =-0.478E-04 0.697E-04-0.785E-05
CGA: 105    -0.222924124364E+03   -0.13762E-03   -0.13663E-03  5760   0.673E-03 0.140E-04
 gam= 1.165 trial= 0.586  step= 0.423 mean= 0.586
 gam= 0.590 g(H,U,f)=  0.182E-03 0.209E-03 0.693E-05 ort(H,U,f) =-0.129E-03 0.123E-03 0.600E-05
CGA: 106    -0.222924273132E+03   -0.14877E-03   -0.14572E-03  5760   0.397E-03-0.295E-07
 gam= 0.590 trial= 0.578  step= 0.707 mean= 0.578
 gam= 1.092 g(H,U,f)=  0.180E-03 0.247E-03 0.674E-05 ort(H,U,f) =-0.630E-04 0.895E-04-0.525E-05
CGA: 107    -0.222924415353E+03   -0.14222E-03   -0.14041E-03  5760   0.434E-03 0.212E-04
 gam= 1.092 trial= 0.584  step= 0.469 mean= 0.584
 gam= 1.173 g(H,U,f)=  0.167E-03 0.340E-03 0.215E-05 ort(H,U,f) =-0.505E-04 0.633E-04 0.489E-05
CGA: 108    -0.222924525201E+03   -0.10985E-03   -0.10722E-03  5760   0.509E-03 0.177E-04
 gam= 1.173 trial= 0.578  step= 0.502 mean= 0.578
 gam= 0.653 g(H,U,f)=  0.165E-03 0.163E-03 0.491E-05 ort(H,U,f) =-0.134E-03 0.125E-03-0.120E-04
CGA: 109    -0.222924658650E+03   -0.13345E-03   -0.13293E-03  5760   0.332E-03-0.213E-04
 gam= 0.653 trial= 0.575  step= 0.769 mean= 0.575
 gam= 1.460 g(H,U,f)=  0.189E-03 0.282E-03 0.141E-04 ort(H,U,f) =-0.701E-04 0.716E-04-0.176E-05
CGA: 110    -0.222924779448E+03   -0.12080E-03   -0.12249E-03  5760   0.485E-03-0.200E-06
 gam= 1.460 trial= 0.584  step= 0.409 mean= 0.584
 gam= 0.816 g(H,U,f)=  0.163E-03 0.232E-03 0.473E-06 ort(H,U,f) =-0.778E-04 0.812E-04 0.251E-05
CGA: 111    -0.222924882415E+03   -0.10297E-03   -0.99133E-04  5760   0.396E-03 0.595E-05
 gam= 0.816 trial= 0.575  step= 0.471 mean= 0.575
 gam= 0.750 g(H,U,f)=  0.150E-03 0.144E-03 0.278E-05 ort(H,U,f) =-0.594E-04 0.603E-04 0.206E-05
CGA: 112    -0.222924976550E+03   -0.94134E-04   -0.94335E-04  5760   0.297E-03 0.293E-05
 gam= 0.750 trial= 0.570  step= 0.658 mean= 0.570
 gam= 1.051 g(H,U,f)=  0.114E-03 0.197E-03 0.888E-06 ort(H,U,f) =-0.296E-04 0.377E-04 0.230E-05
CGA: 113    -0.222925075327E+03   -0.98777E-04   -0.98494E-04  5760   0.312E-03 0.103E-04
 gam= 1.051 trial= 0.575  step= 0.297 mean= 0.575
 gam= 0.507 g(H,U,f)=  0.716E-04 0.833E-04 0.340E-05 ort(H,U,f) =-0.206E-04 0.308E-04-0.859E-05
CGA: 114    -0.222925126098E+03   -0.50771E-04   -0.47956E-04  5760   0.158E-03 0.164E-05
 gam= 0.507 trial= 0.561  step= 0.691 mean= 0.561
 gam= 1.001 g(H,U,f)=  0.688E-04 0.892E-04 0.468E-06 ort(H,U,f) =-0.241E-04 0.266E-04-0.278E-06
CGA: 115    -0.222925181165E+03   -0.55067E-04   -0.54969E-04  5760   0.159E-03 0.227E-05
 gam= 1.001 trial= 0.567  step= 0.428 mean= 0.567
 gam= 0.803 g(H,U,f)=  0.497E-04 0.768E-04 0.710E-06 ort(H,U,f) =-0.185E-04 0.250E-04 0.406E-06
CGA: 116    -0.222925216209E+03   -0.35044E-04   -0.34433E-04  5760   0.127E-03 0.687E-05
 gam= 0.803 trial= 0.560  step= 0.394 mean= 0.560
 gam= 0.732 g(H,U,f)=  0.402E-04 0.508E-04 0.217E-05 ort(H,U,f) =-0.164E-04 0.156E-04-0.164E-05
CGA: 117    -0.222925243004E+03   -0.26794E-04   -0.26174E-04  5760   0.932E-04-0.249E-05
 gam= 0.732 trial= 0.552  step= 0.588 mean= 0.552
 gam= 0.774 g(H,U,f)=  0.336E-04 0.372E-04 0.129E-05 ort(H,U,f) =-0.166E-04 0.212E-04 0.737E-06
CGA: 118    -0.222925269929E+03   -0.26925E-04   -0.26852E-04  5760   0.722E-04 0.526E-05
 gam= 0.774 trial= 0.554  step= 0.422 mean= 0.554
 gam= 0.998 g(H,U,f)=  0.254E-04 0.466E-04 0.425E-07 ort(H,U,f) =-0.578E-05 0.816E-05-0.155E-06
CGA: 119    -0.222925286254E+03   -0.16325E-04   -0.16070E-04  5760   0.720E-04 0.223E-05
 gam= 0.998 trial= 0.547  step= 0.448 mean= 0.547
 gam= 0.655 g(H,U,f)=  0.233E-04 0.237E-04 0.161E-06 ort(H,U,f) =-0.120E-04 0.107E-04 0.600E-06
CGA: 120    -0.222925302988E+03   -0.16734E-04   -0.16649E-04  5760   0.472E-04-0.670E-06
 gam= 0.655 trial= 0.542  step= 0.619 mean= 0.542
 gam= 1.048 g(H,U,f)=  0.182E-04 0.308E-04 0.439E-06 ort(H,U,f) =-0.727E-05 0.635E-05-0.907E-06
CGA: 121    -0.222925317397E+03   -0.14409E-04   -0.14460E-04  5760   0.494E-04-0.183E-05
 gam= 1.048 trial= 0.546  step= 0.350 mean= 0.546
 gam= 0.737 g(H,U,f)=  0.136E-04 0.207E-04 0.215E-05 ort(H,U,f) =-0.431E-05 0.394E-05-0.115E-05
CGA: 122    -0.222925326144E+03   -0.87478E-05   -0.83257E-05  5760   0.364E-04-0.152E-05
 gam= 0.737 trial= 0.536  step= 0.532 mean= 0.536
 gam= 0.647 g(H,U,f)=  0.970E-05 0.139E-04 0.147E-07 ort(H,U,f) =-0.563E-05 0.551E-05-0.702E-07
CGA: 123    -0.222925335540E+03   -0.93961E-05   -0.93980E-05  5760   0.236E-04-0.190E-06
 gam= 0.647 trial= 0.536  step= 0.425 mean= 0.536
 gam= 0.999 g(H,U,f)=  0.850E-05 0.148E-04 0.258E-06 ort(H,U,f) =-0.113E-05 0.132E-05-0.243E-06
CGA: 124    -0.222925340605E+03   -0.50646E-05   -0.49911E-05  5760   0.236E-04-0.607E-07
 gam= 0.999 trial= 0.531  step= 0.498 mean= 0.531
 gam= 0.000 g(H,U,f)=  0.772E-05 0.126E-04 0.885E-07 ort(H,U,f) =-0.261E-05 0.199E-05-0.170E-07
SDA: 125    -0.222925346487E+03   -0.58822E-05   -0.58564E-05  5760   0.204E-04-0.638E-06
 gam= 0.000 trial= 0.529  step= 0.339 mean= 0.529
 gam= 0.455 g(H,U,f)=  0.268E-05 0.628E-05 0.308E-06 ort(H,U,f) = 0.167E-05-0.678E-06-0.162E-06
CGA: 126    -0.222925349904E+03   -0.34169E-05   -0.34549E-05  5760   0.927E-05 0.834E-06
 gam= 0.455 trial= 0.519  step= 0.786 mean= 0.519
 gam= 1.508 g(H,U,f)=  0.347E-05 0.100E-04 0.490E-06 ort(H,U,f) =-0.113E-05 0.224E-05-0.295E-06
CGA: 127    -0.222925353799E+03   -0.38948E-05   -0.37916E-05  5760   0.140E-04 0.813E-06
 gam= 1.508 trial= 0.533  step= 0.609 mean= 0.533
 gam= 1.175 g(H,U,f)=  0.604E-05 0.100E-04 0.393E-06 ort(H,U,f) =-0.456E-05 0.513E-05 0.365E-07
CGA: 128    -0.222925358427E+03   -0.46284E-05   -0.46357E-05  5760   0.164E-04 0.609E-06
 gam= 1.175 trial= 0.537  step= 0.648 mean= 0.537
 gam= 0.875 g(H,U,f)=  0.782E-05 0.645E-05 0.116E-06 ort(H,U,f) =-0.531E-05 0.679E-05-0.237E-06
CGA: 129    -0.222925364065E+03   -0.56373E-05   -0.55521E-05  5760   0.144E-04 0.124E-05
 gam= 0.875 trial= 0.542  step= 1.018 mean= 0.542
 gam= 1.247 g(H,U,f)=  0.897E-05 0.865E-05 0.315E-06 ort(H,U,f) =-0.407E-05 0.516E-05-0.148E-06
CGA: 130    -0.222925372172E+03   -0.81075E-05   -0.78720E-05  5760   0.179E-04 0.944E-06
 gam= 1.247 trial= 0.566  step= 0.795 mean= 0.566
 gam= 1.121 g(H,U,f)=  0.962E-05 0.105E-04 0.122E-07 ort(H,U,f) =-0.462E-05 0.398E-05-0.247E-07
CGA: 131    -0.222925379709E+03   -0.75364E-05   -0.75952E-05  5760   0.201E-04-0.661E-06
 gam= 1.121 trial= 0.577  step= 0.847 mean= 0.577
 gam= 1.152 g(H,U,f)=  0.101E-04 0.125E-04 0.511E-06 ort(H,U,f) =-0.358E-05 0.306E-05 0.992E-07
CGA: 132    -0.222925387820E+03   -0.81110E-05   -0.82037E-05  5760   0.232E-04-0.418E-06
 gam= 1.152 trial= 0.591  step= 0.522 mean= 0.591
 gam= 0.753 g(H,U,f)=  0.840E-05 0.835E-05 0.688E-06 ort(H,U,f) =-0.290E-05 0.337E-05-0.711E-06
CGA: 133    -0.222925393775E+03   -0.59550E-05   -0.59235E-05  5760   0.174E-04-0.239E-06
 gam= 0.753 trial= 0.587  step= 0.593 mean= 0.587
 gam= 0.937 g(H,U,f)=  0.600E-05 0.103E-04 0.495E-07 ort(H,U,f) =-0.165E-05 0.133E-05 0.352E-07
CGA: 134    -0.222925398884E+03   -0.51097E-05   -0.51118E-05  5760   0.163E-04-0.285E-06
 gam= 0.937 trial= 0.588  step= 0.437 mean= 0.588
 gam= 0.613 g(H,U,f)=  0.479E-05 0.485E-05 0.372E-06 ort(H,U,f) =-0.196E-05 0.162E-05-0.491E-07
CGA: 135    -0.222925402452E+03   -0.35675E-05   -0.35100E-05  5760   0.100E-04-0.389E-06
 gam= 0.613 trial= 0.580  step= 0.691 mean= 0.580
 gam= 0.620 g(H,U,f)=  0.337E-05 0.282E-05 0.131E-07 ort(H,U,f) =-0.110E-05 0.162E-05 0.441E-07
CGA: 136    -0.222925405872E+03   -0.34198E-05   -0.33764E-05  5760   0.621E-05 0.562E-06
 gam= 0.620 trial= 0.586  step= 0.617 mean= 0.586
 gam= 0.799 g(H,U,f)=  0.205E-05 0.269E-05 0.213E-06 ort(H,U,f) =-0.253E-06 0.741E-06-0.167E-06
CGA: 137    -0.222925407901E+03   -0.20296E-05   -0.20214E-05  5760   0.496E-05 0.321E-06
 gam= 0.799 trial= 0.587  step= 0.581 mean= 0.587
 gam= 0.705 g(H,U,f)=  0.154E-05 0.195E-05 0.104E-07 ort(H,U,f) =-0.518E-06 0.796E-06 0.251E-07
CGA: 138    -0.222925409414E+03   -0.15131E-05   -0.15137E-05  5760   0.350E-05 0.303E-06
 gam= 0.705 trial= 0.587  step= 0.533 mean= 0.587
 gam= 0.763 g(H,U,f)=  0.107E-05 0.158E-05 0.145E-07 ort(H,U,f) =-0.345E-06 0.371E-06-0.130E-07
CGA: 139    -0.222925410405E+03   -0.99051E-06   -0.98784E-06  5760   0.267E-05 0.136E-07
 gam= 0.763 trial= 0.584  step= 0.445 mean= 0.584
 final diagonalization
   1 F= -.23249220E+03 E0= -.23249143E+03  d E =-.152857E-02  mag=     6.0000
