       N       E                     dE             d eps       ncg     rms          ort
DAV:   1     0.348450491406E+04    0.34845E+04   -0.13970E+05  5760   0.219E+03
DAV:   2     0.404975257804E+03   -0.30795E+04   -0.28412E+04  5760   0.536E+02
DAV:   3    -0.220502540506E+03   -0.62548E+03   -0.56971E+03  5760   0.253E+02
DAV:   4    -0.270911205177E+03   -0.50409E+02   -0.49308E+02  5760   0.741E+01
DAV:   5    -0.272680055395E+03   -0.17689E+01   -0.17656E+01  5760   0.137E+01
SDA:   6     0.159288745364E+03    0.43197E+03   -0.17656E+01  5760   0.625E+04 0.000E+00
CGA:   7     0.119703126883E+03   -0.39586E+02   -0.28057E+03  5760   0.183E+05-0.327E+04
CGA:   8     0.160529978315E+04    0.14856E+04   -0.10280E+04  5760   0.191E+06-0.575E+05
CGA:   9     0.547361372713E+04    0.38683E+04   -0.15529E+05  5760   0.402E+05-0.190E+05
CGA:  10     0.286214667865E+04   -0.26115E+04   -0.21657E+04  5760   0.692E+05 0.446E+05
CGA:  11     0.468287669434E+04    0.18207E+04   -0.42404E+04  5760   0.783E+05-0.519E+05
CGA:  12     0.338703269232E+04   -0.12958E+04   -0.51381E+04  5760   0.870E+05-0.776E+05
CGA:  13     0.285223707887E+04   -0.53480E+03   -0.53532E+04  5760   0.399E+05 0.319E+05
CGA:  14     0.461673962906E+04    0.17645E+04   -0.37578E+04  5760   0.630E+05 0.306E+04
CGA:  15     0.878186260445E+04    0.41651E+04   -0.39660E+04  5760   0.758E+05-0.223E+05
CGA:  16     0.237348249267E+04   -0.64084E+04   -0.36484E+04  5760   0.390E+05-0.285E+05
CGA:  17     0.166823553019E+04   -0.70525E+03   -0.82338E+03  5760   0.474E+05 0.191E+05
CGA:  18     0.452111405514E+04    0.28529E+04   -0.30715E+04  5760   0.893E+05-0.569E+05
CGA:  19     0.356562938207E+04   -0.95548E+03   -0.53250E+04  5760   0.557E+05-0.558E+05
CGA:  20     0.100143914926E+04   -0.25642E+04   -0.24007E+04  5760   0.262E+05-0.578E+05
CGA:  21     0.572224309826E+03   -0.42921E+03   -0.90369E+03  5760   0.116E+05-0.177E+05
CGA:  22     0.350645965358E+03   -0.22158E+03   -0.33284E+03  5760   0.233E+04-0.405E+04
CGA:  23     0.256737594158E+03   -0.93908E+02   -0.92338E+02  5760   0.953E+03 0.152E+02
CGA:  24     0.178953967363E+03   -0.77784E+02   -0.78961E+02  5760   0.163E+04 0.892E+01
CGA:  25    -0.199752029544E+02   -0.19893E+03   -0.19871E+03  5760   0.151E+04 0.133E+02
CGA:  26    -0.797583930574E+02   -0.59783E+02   -0.76542E+02  5760   0.611E+03-0.158E+03
CGA:  27    -0.109115771649E+03   -0.29357E+02   -0.30064E+02  5760   0.348E+03-0.662E+01
CGA:  28    -0.132108415068E+03   -0.22993E+02   -0.24667E+02  5760   0.255E+03-0.232E+01
CGA:  29    -0.151556220476E+03   -0.19448E+02   -0.20236E+02  5760   0.162E+03 0.317E+01
CGA:  30    -0.162656485649E+03   -0.11100E+02   -0.11649E+02  5760   0.148E+03-0.945E+00
CGA:  31    -0.180662772706E+03   -0.18006E+02   -0.17942E+02  5760   0.109E+03-0.211E+01
CGA:  32    -0.187176670585E+03   -0.65139E+01   -0.68112E+01  5760   0.508E+02-0.530E+01
CGA:  33    -0.193248716095E+03   -0.60720E+01   -0.62726E+01  5760   0.769E+02-0.511E+01
CGA:  34    -0.198581736156E+03   -0.53330E+01   -0.48564E+01  5760   0.526E+02-0.638E+01
CGA:  35    -0.203309517942E+03   -0.47278E+01   -0.47371E+01  5760   0.258E+02-0.754E+00
CGA:  36    -0.206609031282E+03   -0.32995E+01   -0.34872E+01  5760   0.421E+02-0.470E+01
CGA:  37    -0.209759992817E+03   -0.31510E+01   -0.23897E+01  5760   0.140E+02 0.368E+01
CGA:  38    -0.211004145712E+03   -0.12442E+01   -0.12214E+01  5760   0.389E+02-0.378E+00
CGA:  39    -0.212958903533E+03   -0.19548E+01   -0.20217E+01  5760   0.289E+02 0.116E+01
CGA:  40    -0.213664429295E+03   -0.70553E+00   -0.80423E+00  5760   0.162E+02-0.167E+01
CGA:  41    -0.214413017821E+03   -0.74859E+00   -0.70622E+00  5760   0.186E+02 0.852E+00
CGA:  42    -0.214980953372E+03   -0.56794E+00   -0.56944E+00  5760   0.130E+02 0.743E+00
CGA:  43    -0.215483762750E+03   -0.50281E+00   -0.46917E+00  5760   0.119E+02 0.732E+00
CGA:  44    -0.215879180382E+03   -0.39542E+00   -0.43696E+00  5760   0.143E+02 0.565E+00
CGA:  45    -0.216504699246E+03   -0.62552E+00   -0.68606E+00  5760   0.187E+02 0.730E+00
CGA:  46    -0.216990505903E+03   -0.48581E+00   -0.50501E+00  5760   0.721E+01 0.156E+01
CGA:  47    -0.217217531994E+03   -0.22703E+00   -0.25396E+00  5760   0.834E+01 0.226E+00
CGA:  48    -0.217599534460E+03   -0.38200E+00   -0.40762E+00  5760   0.850E+01 0.704E+00
CGA:  49    -0.217820559379E+03   -0.22102E+00   -0.27166E+00  5760   0.401E+01-0.359E+00
CGA:  50    -0.218137485958E+03   -0.31693E+00   -0.31184E+00  5760   0.849E+01 0.546E+00
CGA:  51    -0.218548117083E+03   -0.41063E+00   -0.40756E+00  5760   0.392E+01 0.106E+00
SDA:  52    -0.218772804940E+03   -0.22469E+00   -0.23266E+00  5760   0.396E+01 0.449E+00
CGA:  53    -0.219018275653E+03   -0.24547E+00   -0.24556E+00  5760   0.388E+01 0.347E-01
CGA:  54    -0.219709985359E+03   -0.69171E+00   -0.68482E+00  5760   0.356E+01 0.789E-01
CGA:  55    -0.220432985687E+03   -0.72300E+00   -0.72466E+00  5760   0.411E+01 0.536E-01
CGA:  56    -0.220645610790E+03   -0.21263E+00   -0.22524E+00  5760   0.185E+01-0.150E-01
CGA:  57    -0.220991771405E+03   -0.34616E+00   -0.35322E+00  5760   0.133E+01-0.110E-01
CGA:  58    -0.221257796026E+03   -0.26602E+00   -0.25347E+00  5760   0.101E+01 0.111E+00
CGA:  59    -0.221362752631E+03   -0.10496E+00   -0.10528E+00  5760   0.130E+01-0.467E-01
CGA:  60    -0.221504239836E+03   -0.14149E+00   -0.14048E+00  5760   0.613E+00 0.326E-01
CGA:  61    -0.221655494048E+03   -0.15125E+00   -0.14604E+00  5760   0.131E+01 0.489E-01
CGA:  62    -0.221752757580E+03   -0.97264E-01   -0.93603E-01  5760   0.701E+00 0.496E-01
CGA:  63    -0.221876783597E+03   -0.12403E+00   -0.11791E+00  5760   0.483E+00 0.700E-01
CGA:  64    -0.221930695892E+03   -0.53912E-01   -0.53896E-01  5760   0.596E+00 0.615E-01
CGA:  65    -0.222022811512E+03   -0.92116E-01   -0.92747E-01  5760   0.373E+00-0.281E-01
CGA:  66    -0.222079027402E+03   -0.56216E-01   -0.54376E-01  5760   0.248E+00 0.331E-01
CGA:  67    -0.222111133902E+03   -0.32106E-01   -0.32187E-01  5760   0.259E+00-0.619E-02
CGA:  68    -0.222146966154E+03   -0.35832E-01   -0.34528E-01  5760   0.172E+00 0.305E-01
CGA:  69    -0.222157129117E+03   -0.10163E-01   -0.51050E-01  5760   0.101E+01-0.592E+00
CGA:  70    -0.222209753748E+03   -0.52625E-01   -0.68645E-01  5760   0.123E+00-0.710E-01
CGA:  71    -0.222234585497E+03   -0.24832E-01   -0.25338E-01  5760   0.122E+00-0.446E-02
CGA:  72    -0.222262717497E+03   -0.28132E-01   -0.26531E-01  5760   0.661E-01 0.991E-02
CGA:  73    -0.222274863735E+03   -0.12146E-01   -0.16361E-01  5760   0.159E+00-0.249E-01
CGA:  74    -0.222282700906E+03   -0.78372E-02   -0.89463E-02  5760   0.178E+00 0.314E-01
CGA:  75    -0.222294302903E+03   -0.11602E-01   -0.12263E-01  5760   0.617E-01-0.993E-02
CGA:  76    -0.222303823393E+03   -0.95205E-02   -0.95477E-02  5760   0.682E-01-0.117E-02
CGA:  77    -0.222309415940E+03   -0.55925E-02   -0.49207E-02  5760   0.389E-01 0.202E-02
CGA:  78    -0.222316133485E+03   -0.67175E-02   -0.66716E-02  5760   0.671E-01 0.427E-02
CGA:  79    -0.222321583424E+03   -0.54499E-02   -0.53746E-02  5760   0.398E-01-0.194E-03
CGA:  80    -0.222328706571E+03   -0.71231E-02   -0.71803E-02  5760   0.655E-01-0.190E-02
CGA:  81    -0.222333707625E+03   -0.50011E-02   -0.36404E-02  5760   0.218E-01 0.609E-02
CGA:  82    -0.222337512799E+03   -0.38052E-02   -0.37700E-02  5760   0.465E-01 0.472E-02
CGA:  83    -0.222342293414E+03   -0.47806E-02   -0.45051E-02  5760   0.237E-01-0.342E-03
CGA:  84    -0.222346853499E+03   -0.45601E-02   -0.46288E-02  5760   0.265E-01-0.940E-03
CGA:  85    -0.222348780830E+03   -0.19273E-02   -0.15357E-02  5760   0.134E-01 0.248E-02
CGA:  86    -0.222350896457E+03   -0.21156E-02   -0.20964E-02  5760   0.998E-02 0.104E-02
CGA:  87    -0.222351654977E+03   -0.75852E-03   -0.68992E-03  5760   0.738E-02 0.697E-03
CGA:  88    -0.222353083195E+03   -0.14282E-02   -0.14460E-02  5760   0.918E-02-0.422E-03
CGA:  89    -0.222353840603E+03   -0.75741E-03   -0.68917E-03  5760   0.984E-02 0.110E-02
CGA:  90    -0.222355522759E+03   -0.16822E-02   -0.16787E-02  5760   0.777E-02 0.390E-05
CGA:  91    -0.222356324773E+03   -0.80201E-03   -0.78638E-03  5760   0.113E-01 0.761E-03
CGA:  92    -0.222358359004E+03   -0.20342E-02   -0.21821E-02  5760   0.988E-02-0.169E-02
CGA:  93    -0.222360495866E+03   -0.21369E-02   -0.21198E-02  5760   0.102E-01 0.423E-03
CGA:  94    -0.222361774059E+03   -0.12782E-02   -0.12679E-02  5760   0.125E-01 0.470E-03
CGA:  95    -0.222363593252E+03   -0.18192E-02   -0.18582E-02  5760   0.118E-01-0.738E-03
CGA:  96    -0.222366015242E+03   -0.24220E-02   -0.25048E-02  5760   0.154E-01-0.410E-03
CGA:  97    -0.222368213598E+03   -0.21984E-02   -0.21985E-02  5760   0.156E-01-0.311E-04
CGA:  98    -0.222370294356E+03   -0.20808E-02   -0.20790E-02  5760   0.127E-01 0.129E-03
CGA:  99    -0.222372520477E+03   -0.22261E-02   -0.22415E-02  5760   0.122E-01 0.836E-04
SDA: 100    -0.222374248816E+03   -0.17283E-02   -0.17299E-02  5760   0.963E-02 0.988E-04
CGA: 101    -0.222375120161E+03   -0.87134E-03   -0.81815E-03  5760   0.636E-02 0.852E-03
CGA: 102    -0.222376097246E+03   -0.97709E-03   -0.98538E-03  5760   0.405E-02-0.379E-03
CGA: 103    -0.222376879664E+03   -0.78242E-03   -0.80425E-03  5760   0.385E-02-0.884E-04
CGA: 104    -0.222377318375E+03   -0.43871E-03   -0.42094E-03  5760   0.332E-02 0.194E-03
CGA: 105    -0.222377942947E+03   -0.62457E-03   -0.64588E-03  5760   0.272E-02-0.166E-03
CGA: 106    -0.222378327841E+03   -0.38489E-03   -0.38953E-03  5760   0.297E-02 0.242E-04
CGA: 107    -0.222378747209E+03   -0.41937E-03   -0.41864E-03  5760   0.265E-02 0.136E-04
CGA: 108    -0.222379288241E+03   -0.54103E-03   -0.61037E-03  5760   0.368E-02-0.132E-03
CGA: 109    -0.222379633510E+03   -0.34527E-03   -0.31054E-03  5760   0.192E-02 0.857E-04
CGA: 110    -0.222380052687E+03   -0.41918E-03   -0.43474E-03  5760   0.121E-02-0.106E-03
CGA: 111    -0.222380352669E+03   -0.29998E-03   -0.30902E-03  5760   0.127E-02-0.236E-06
CGA: 112    -0.222380518293E+03   -0.16562E-03   -0.15607E-03  5760   0.166E-02 0.160E-03
CGA: 113    -0.222380823690E+03   -0.30540E-03   -0.30948E-03  5760   0.121E-02-0.921E-04
CGA: 114    -0.222381104116E+03   -0.28043E-03   -0.30358E-03  5760   0.236E-02-0.105E-03
CGA: 115    -0.222381353031E+03   -0.24892E-03   -0.24661E-03  5760   0.212E-02 0.201E-04
CGA: 116    -0.222381778643E+03   -0.42561E-03   -0.42991E-03  5760   0.154E-02-0.366E-04
CGA: 117    -0.222382175775E+03   -0.39713E-03   -0.39569E-03  5760   0.159E-02 0.741E-04
CGA: 118    -0.222382367637E+03   -0.19186E-03   -0.17667E-03  5760   0.171E-02 0.138E-03
CGA: 119    -0.222382726599E+03   -0.35896E-03   -0.36022E-03  5760   0.126E-02-0.382E-04
CGA: 120    -0.222383080744E+03   -0.35415E-03   -0.36207E-03  5760   0.121E-02-0.219E-04
CGA: 121    -0.222383360621E+03   -0.27988E-03   -0.27744E-03  5760   0.859E-03 0.236E-04
CGA: 122    -0.222383569349E+03   -0.20873E-03   -0.20857E-03  5760   0.154E-02 0.213E-05
CGA: 123    -0.222383724986E+03   -0.15564E-03   -0.15615E-03  5760   0.108E-02-0.687E-05
CGA: 124    -0.222383948965E+03   -0.22398E-03   -0.22443E-03  5760   0.700E-03-0.880E-05
CGA: 125    -0.222384135840E+03   -0.18688E-03   -0.18708E-03  5760   0.636E-03-0.185E-05
CGA: 126    -0.222384295886E+03   -0.16005E-03   -0.16012E-03  5760   0.571E-03-0.218E-05
CGA: 127    -0.222384389935E+03   -0.94049E-04   -0.94038E-04  5760   0.841E-03 0.156E-06
CGA: 128    -0.222384486194E+03   -0.96259E-04   -0.96360E-04  5760   0.525E-03-0.196E-05
CGA: 129    -0.222384646066E+03   -0.15987E-03   -0.16016E-03  5760   0.474E-03-0.236E-05
CGA: 130    -0.222384746114E+03   -0.10005E-03   -0.10005E-03  5760   0.290E-03 0.553E-06
SDA: 131    -0.222384810927E+03   -0.64812E-04   -0.64806E-04  5760   0.491E-03 0.173E-05
CGA: 132    -0.222384844237E+03   -0.33310E-04   -0.33314E-04  5760   0.238E-03 0.567E-06
CGA: 133    -0.222384889084E+03   -0.44847E-04   -0.44886E-04  5760   0.144E-03-0.359E-05
CGA: 134    -0.222384945239E+03   -0.56155E-04   -0.55954E-04  5760   0.118E-03 0.749E-06
CGA: 135    -0.222384978349E+03   -0.33110E-04   -0.32955E-04  5760   0.161E-03 0.280E-05
CGA: 136    -0.222384993976E+03   -0.15627E-04   -0.15780E-04  5760   0.137E-03-0.119E-06
CGA: 137    -0.222385033793E+03   -0.39816E-04   -0.40255E-04  5760   0.106E-03-0.276E-05
CGA: 138    -0.222385067882E+03   -0.34090E-04   -0.33784E-04  5760   0.127E-03 0.125E-05
CGA: 139    -0.222385085643E+03   -0.17761E-04   -0.17649E-04  5760   0.185E-03 0.276E-05
CGA: 140    -0.222385114531E+03   -0.28887E-04   -0.28978E-04  5760   0.773E-04 0.362E-06
CGA: 141    -0.222385141840E+03   -0.27309E-04   -0.27649E-04  5760   0.105E-03-0.148E-05
CGA: 142    -0.222385154705E+03   -0.12865E-04   -0.12911E-04  5760   0.118E-03 0.981E-06
CGA: 143    -0.222385171901E+03   -0.17196E-04   -0.17029E-04  5760   0.585E-04 0.781E-06
CGA: 144    -0.222385185132E+03   -0.13232E-04   -0.13230E-04  5760   0.590E-04 0.336E-06
CGA: 145    -0.222385192928E+03   -0.77960E-05   -0.76346E-05  5760   0.704E-04 0.863E-06
CGA: 146    -0.222385205966E+03   -0.13037E-04   -0.12985E-04  5760   0.458E-04-0.233E-05
CGA: 147    -0.222385216758E+03   -0.10792E-04   -0.10862E-04  5760   0.780E-04 0.104E-06
CGA: 148    -0.222385224644E+03   -0.78862E-05   -0.76868E-05  5760   0.408E-04 0.168E-05
CGA: 149    -0.222385235391E+03   -0.10747E-04   -0.10813E-04  5760   0.362E-04 0.136E-06
CGA: 150    -0.222385240033E+03   -0.46424E-05   -0.45194E-05  5760   0.411E-04 0.608E-06
CGA: 151    -0.222385247318E+03   -0.72847E-05   -0.72509E-05  5760   0.279E-04-0.109E-05
CGA: 152    -0.222385253963E+03   -0.66451E-05   -0.66491E-05  5760   0.402E-04 0.127E-05
CGA: 153    -0.222385258263E+03   -0.43001E-05   -0.41872E-05  5760   0.240E-04 0.178E-05
CGA: 154    -0.222385263631E+03   -0.53676E-05   -0.53648E-05  5760   0.234E-04 0.670E-07
CGA: 155    -0.222385267861E+03   -0.42309E-05   -0.42111E-05  5760   0.292E-04-0.158E-06
CGA: 156    -0.222385271062E+03   -0.32004E-05   -0.30429E-05  5760   0.145E-04 0.423E-06
CGA: 157    -0.222385275103E+03   -0.40413E-05   -0.39968E-05  5760   0.145E-04 0.835E-06
CGA: 158    -0.222385276846E+03   -0.17429E-05   -0.17090E-05  5760   0.141E-04 0.859E-06
CGA: 159    -0.222385280641E+03   -0.37945E-05   -0.39457E-05  5760   0.191E-04-0.848E-06
CGA: 160    -0.222385283229E+03   -0.25889E-05   -0.25236E-05  5760   0.175E-04 0.435E-07
CGA: 161    -0.222385285650E+03   -0.24207E-05   -0.23489E-05  5760   0.105E-04-0.122E-07
SDA: 162    -0.222385287901E+03   -0.22506E-05   -0.22767E-05  5760   0.176E-04 0.915E-07
CGA: 163    -0.222385289072E+03   -0.11710E-05   -0.98646E-06  5760   0.604E-05 0.171E-05
CGA: 164    -0.222385290390E+03   -0.13184E-05   -0.13171E-05  5760   0.480E-05 0.552E-07
CGA: 165    -0.222385291331E+03   -0.94066E-06   -0.94068E-06  5760   0.992E-05 0.431E-06
CGA: 166    -0.222385292470E+03   -0.11388E-05   -0.10915E-05  5760   0.344E-05 0.167E-06
CGA: 167    -0.222385293475E+03   -0.10055E-05   -0.10388E-05  5760   0.392E-05-0.277E-06
CGA: 168    -0.222385294522E+03   -0.10464E-05   -0.10809E-05  5760   0.363E-05-0.227E-06
CGA: 169    -0.222385295019E+03   -0.49760E-06   -0.49199E-06  5760   0.495E-05 0.249E-06
   1 F= -.23230835E+03 E0= -.23230348E+03  d E =-.974228E-02  mag=     6.0000
