 vasp.5.4.4.18Apr17-6-g9f103f2a35 (build Nov 22 2021 14:44:17) complex          
  
 executed on             LinuxIFC date 2022.08.08  10:57:14
 running on   64 total cores
 distrk:  each k-point on   64 cores,    1 groups
 distr:  one band on NCORES_PER_BAND=   4 cores,   16 groups


--------------------------------------------------------------------------------------------------------


 INCAR:
 POTCAR:    PAW_PBE Li 17Jan2003                  
 POTCAR:    PAW_PBE Co 02Aug2007                  
 POTCAR:    PAW_PBE O 08Apr2002                   
 POTCAR:    PAW_PBE Li 17Jan2003                  
   VRHFIN =Li: s1p0                                                             
   LEXCH  = PE                                                                  
   EATOM  =     5.3001 eV,    0.3895 Ry                                         
                                                                                
   TITEL  = PAW_PBE Li 17Jan2003                                                
   LULTRA =        F    use ultrasoft PP ?                                      
   IUNSCR =        1    unscreen: 0-lin 1-nonlin 2-no                           
   RPACOR =    1.500    partial core radius                                     
   POMASS =    7.010; ZVAL   =    1.000    mass and valenz                      
   RCORE  =    2.050    outmost cutoff radius                                   
   RWIGS  =    2.600; RWIGS  =    1.376    wigner-seitz radius (au A)           
   ENMAX  =  140.000; ENMIN  =  100.000 eV                                      
   ICORE  =        2    local potential                                         
   LCOR   =        T    correct aug charges                                     
   LPAW   =        T    paw PP                                                  
   EAUG   =  331.638                                                            
   DEXC   =    0.000                                                            
   RMAX   =    2.098    core radius for proj-oper                               
   RAUG   =    1.300    factor for augmentation sphere                          
   RDEP   =    2.094    radius for radial grids                                 
   RDEPT  =    1.810    core radius for aug-charge                              
                                                                                
   Atomic configuration                                                         
    4 entries                                                                   
     n  l   j            E        occ.                                          
     1  0  0.50       -51.8549   2.0000                                         
     2  0  0.50        -2.8742   1.0000                                         
     2  1  0.50        -1.3606   0.0000                                         
     3  2  1.50        -1.3606   0.0000                                         
   Description                                                                  
     l       E           TYP  RCUT    TYP  RCUT                                 
     0     -2.8742052     23  2.050                                             
     0     27.2116520     23  2.050                                             
     1     -1.3605826     23  2.050                                             
     2     -1.3605826     23  2.050                                             
  local pseudopotential read in
  partial core-charges read in
  partial kinetic energy density read in
  atomic valenz-charges read in
  non local Contribution for L=           0  read in
    real space projection operators read in
  non local Contribution for L=           0  read in
    real space projection operators read in
  non local Contribution for L=           1  read in
    real space projection operators read in
    PAW grid and wavefunctions read in
 
   number of l-projection  operators is LMAX  =           3
   number of lm-projection operators is LMMAX =           5
 
 POTCAR:    PAW_PBE Co 02Aug2007                  
   VRHFIN =Co: d8 s1                                                            
   LEXCH  = PE                                                                  
   EATOM  =   813.3670 eV,   59.7808 Ry                                         
                                                                                
   TITEL  = PAW_PBE Co 02Aug2007                                                
   LULTRA =        F    use ultrasoft PP ?                                      
   IUNSCR =        1    unscreen: 0-lin 1-nonlin 2-no                           
   RPACOR =    2.000    partial core radius                                     
   POMASS =   58.933; ZVAL   =    9.000    mass and valenz                      
   RCORE  =    2.300    outmost cutoff radius                                   
   RWIGS  =    2.460; RWIGS  =    1.302    wigner-seitz radius (au A)           
   ENMAX  =  267.968; ENMIN  =  200.976 eV                                      
   RCLOC  =    1.203    cutoff for local pot                                    
   LCOR   =        T    correct aug charges                                     
   LPAW   =        T    paw PP                                                  
   EAUG   =  477.818                                                            
   DEXC   =    0.000                                                            
   RMAX   =    2.360    core radius for proj-oper                               
   RAUG   =    1.300    factor for augmentation sphere                          
   RDEP   =    2.393    radius for radial grids                                 
   RDEPT  =    1.864    core radius for aug-charge                              
                                                                                
   Atomic configuration                                                         
    9 entries                                                                   
     n  l   j            E        occ.                                          
     1  0  0.50     -7587.6674   2.0000                                         
     2  0  0.50      -893.6084   2.0000                                         
     2  1  1.50      -764.5805   6.0000                                         
     3  0  0.50       -97.5973   2.0000                                         
     3  1  1.50       -60.9648   6.0000                                         
     3  2  2.50        -4.2382   8.0000                                         
     4  0  0.50        -4.3746   1.0000                                         
     4  1  1.50        -4.0817   0.0000                                         
     4  3  2.50        -1.3606   0.0000                                         
   Description                                                                  
     l       E           TYP  RCUT    TYP  RCUT                                 
     2     -4.2382362     23  2.300                                             
     2     -5.5988188     23  2.300                                             
     0     -4.3745797     23  2.300                                             
     0      5.7660125     23  2.300                                             
     1     -2.7211652     23  2.300                                             
     1     16.9860234     23  2.300                                             
  local pseudopotential read in
  partial core-charges read in
  partial kinetic energy density read in
  atomic valenz-charges read in
  non local Contribution for L=           2  read in
    real space projection operators read in
  non local Contribution for L=           2  read in
    real space projection operators read in
  non local Contribution for L=           0  read in
    real space projection operators read in
  non local Contribution for L=           0  read in
    real space projection operators read in
  non local Contribution for L=           1  read in
    real space projection operators read in
  non local Contribution for L=           1  read in
    real space projection operators read in
    PAW grid and wavefunctions read in
 
   number of l-projection  operators is LMAX  =           6
   number of lm-projection operators is LMMAX =          18
 
 POTCAR:    PAW_PBE O 08Apr2002                   
   VRHFIN =O: s2p4                                                              
   LEXCH  = PE                                                                  
   EATOM  =   432.3788 eV,   31.7789 Ry                                         
                                                                                
   TITEL  = PAW_PBE O 08Apr2002                                                 
   LULTRA =        F    use ultrasoft PP ?                                      
   IUNSCR =        1    unscreen: 0-lin 1-nonlin 2-no                           
   RPACOR =    1.200    partial core radius                                     
   POMASS =   16.000; ZVAL   =    6.000    mass and valenz                      
   RCORE  =    1.520    outmost cutoff radius                                   
   RWIGS  =    1.550; RWIGS  =    0.820    wigner-seitz radius (au A)           
   ENMAX  =  400.000; ENMIN  =  300.000 eV                                      
   ICORE  =        2    local potential                                         
   LCOR   =        T    correct aug charges                                     
   LPAW   =        T    paw PP                                                  
   EAUG   =  605.392                                                            
   DEXC   =    0.000                                                            
   RMAX   =    1.553    core radius for proj-oper                               
   RAUG   =    1.300    factor for augmentation sphere                          
   RDEP   =    1.550    radius for radial grids                                 
   RDEPT  =    1.329    core radius for aug-charge                              
                                                                                
   Atomic configuration                                                         
    4 entries                                                                   
     n  l   j            E        occ.                                          
     1  0  0.50      -514.6923   2.0000                                         
     2  0  0.50       -23.9615   2.0000                                         
     2  1  0.50        -9.0305   4.0000                                         
     3  2  1.50        -9.5241   0.0000                                         
   Description                                                                  
     l       E           TYP  RCUT    TYP  RCUT                                 
     0    -23.9615318     23  1.200                                             
     0     -9.5240782     23  1.200                                             
     1     -9.0304911     23  1.520                                             
     1      8.1634956     23  1.520                                             
     2     -9.5240782      7  1.500                                             
  local pseudopotential read in
  partial core-charges read in
  partial kinetic energy density read in
  kinetic energy density of atom read in
  atomic valenz-charges read in
  non local Contribution for L=           0  read in
    real space projection operators read in
  non local Contribution for L=           0  read in
    real space projection operators read in
  non local Contribution for L=           1  read in
    real space projection operators read in
  non local Contribution for L=           1  read in
    real space projection operators read in
    PAW grid and wavefunctions read in
 
   number of l-projection  operators is LMAX  =           4
   number of lm-projection operators is LMMAX =           8
 
 Optimization of the real space projectors (new method)

 maximal supplied QI-value         = 18.33
 optimisation between [QCUT,QGAM] = [ 12.46, 24.93] = [ 43.51,174.03] Ry 
 Optimized for a Real-space Cutoff    1.13 Angstroem

   l    n(q)    QCUT    max X(q) W(low)/X(q) W(high)/X(q)  e(spline) 
   0      8    12.465    33.825    0.12E-03    0.29E-03    0.99E-07
   0      8    12.465     8.944    0.86E-04    0.22E-03    0.72E-07
   1      8    12.465     4.214    0.27E-03    0.11E-03    0.82E-07
 Optimization of the real space projectors (new method)

 maximal supplied QI-value         = 16.25
 optimisation between [QCUT,QGAM] = [ 12.51, 25.03] = [ 43.85,175.40] Ry 
 Optimized for a Real-space Cutoff    1.31 Angstroem

   l    n(q)    QCUT    max X(q) W(low)/X(q) W(high)/X(q)  e(spline) 
   2      9    12.514    65.824    0.30E-03    0.46E-03    0.43E-06
   2      9    12.514    61.429    0.31E-03    0.46E-03    0.44E-06
   0     10    12.514    56.174    0.90E-04    0.33E-03    0.30E-06
   0     10    12.514    31.263    0.81E-04    0.30E-03    0.28E-06
   1      9    12.514    19.828    0.38E-03    0.65E-04    0.24E-06
   1      9    12.514    15.139    0.32E-03    0.60E-04    0.20E-06
 Optimization of the real space projectors (new method)

 maximal supplied QI-value         = 24.76
 optimisation between [QCUT,QGAM] = [ 12.38, 25.00] = [ 42.90,175.06] Ry 
 Optimized for a Real-space Cutoff    1.13 Angstroem

   l    n(q)    QCUT    max X(q) W(low)/X(q) W(high)/X(q)  e(spline) 
   0      8    12.378    20.381    0.16E-03    0.54E-05    0.27E-06
   0      8    12.378    15.268    0.17E-03    0.61E-05    0.29E-06
   1      8    12.378     5.964    0.38E-03    0.23E-03    0.28E-06
   1      8    12.378     5.382    0.33E-03    0.20E-03    0.25E-06
  PAW_PBE Li 17Jan2003                  :
 energy of atom  1       EATOM=   -5.3001
 kinetic energy error for atom=    0.0000 (will be added to EATOM!!)
  PAW_PBE Co 02Aug2007                  :
 energy of atom  2       EATOM= -813.3670
 kinetic energy error for atom=    0.0018 (will be added to EATOM!!)
  PAW_PBE O 08Apr2002                   :
 energy of atom  3       EATOM= -432.3788
 kinetic energy error for atom=    0.0168 (will be added to EATOM!!)
 
 
 POSCAR: Li6 Co12 O24                            
  positions in cartesian coordinates
  No initial velocities read in
 exchange correlation table for  LEXCH =        8
   RHO(1)=    0.500       N(1)  =     2000
   RHO(2)=  100.500       N(2)  =     4000
 


--------------------------------------------------------------------------------------------------------


 ion  position               nearest neighbor table
   1  0.517  0.998  0.004-  38 1.81  25 1.83  24 1.89  23 1.90  37 1.90  36 2.08  17 2.47   9 2.51
                            16 2.59  10 2.59   8 2.60  15 2.74
   2  0.844  0.634  0.328-  33 1.81  20 1.86  32 1.94  22 2.06  19 2.09  34 2.11  12 2.60   9 2.63
                             8 2.63  14 2.66  10 2.71  11 2.79
   3  0.182  0.369  0.667-  28 1.90  42 1.94  29 1.97  27 1.98  40 2.10  39 2.23  12 2.61   6 2.63
                            16 2.68  14 2.68   4 2.70   5 2.72  15 2.75  11 2.79   5 2.84  17 2.86
   4  0.165  0.844  0.673-  41 1.89  39 1.94  40 1.98  30 2.01  27 2.10  28 2.14  15 2.64  16 2.69
                             3 2.70   6 2.74  12 2.74  11 2.76   5 2.77   5 2.79   6 2.83   3 2.88
   5  0.663  0.351  0.677-  41 1.95  40 1.96  42 1.99  27 2.00  30 2.05  29 2.21   6 2.65  15 2.65
                             3 2.72  17 2.72  18 2.73   4 2.77  14 2.78   4 2.79  12 2.81   3 2.84
   6  0.665  0.826  0.688-  42 1.89  39 1.90  41 1.99  30 2.09  28 2.12  29 2.18  18 2.59  17 2.59
                            16 2.61   3 2.63   5 2.65   4 2.74   4 2.83  14 2.87   5 2.93   3 2.96
   7  0.167  0.331  0.156-  25 1.85  24 1.86  20 1.88  22 1.89  23 1.91  19 1.94   8 2.68   9 2.72
                            10 2.76  10 2.81   9 2.83   8 2.90
   8  0.165  0.810  0.160-  24 1.83  21 1.87  20 1.88  19 1.89  23 1.90  26 1.90   1 2.60   2 2.63
                             7 2.68   9 2.74  10 2.75  10 2.80   9 2.83   7 2.90
   9  0.672  0.320  0.160-  20 1.79  25 1.80  22 1.80  23 1.81  21 1.84  26 1.88   1 2.51   2 2.63
                             7 2.72   8 2.74  10 2.77  10 2.81   8 2.83   7 2.83
  10  0.673  0.817  0.163-  19 1.76  22 1.80  26 1.83  24 1.85  25 1.90  21 1.92   1 2.59   2 2.71
                             8 2.75   7 2.76   9 2.77   8 2.80   9 2.81   7 2.81
  11  0.019  0.016  0.493-  29 1.84  34 1.85  32 1.87  27 1.89  31 1.92  30 1.93  13 2.71  14 2.76
                             4 2.76  12 2.77   2 2.79   3 2.79  14 2.81  12 2.81  13 2.84   6 3.00
  12  0.013  0.509  0.499-  31 1.84  33 1.86  28 1.87  32 1.87  29 1.92  30 1.93   2 2.60   3 2.61
                            13 2.71  14 2.74   4 2.74  11 2.77   5 2.81  11 2.81  14 2.81  13 2.86
  13  0.532  0.017  0.488-  34 1.80  33 1.82  29 1.92  28 1.97  32 1.98  27 2.08  11 2.71  12 2.71
                            14 2.73  11 2.84  14 2.85  12 2.86   5 2.89   4 2.93   6 2.99
  14  0.510  0.517  0.495-  31 1.78  28 1.80  27 1.86  30 1.88  34 1.88  33 1.91   2 2.66   3 2.68
                            13 2.73  12 2.74  11 2.76   5 2.78  11 2.81  12 2.81  13 2.85   6 2.87
  15  0.318  0.168  0.841-  39 1.81  42 1.84  41 1.85  37 1.86  36 1.88  35 1.95   4 2.64   5 2.65
                             1 2.74  18 2.74   3 2.75  17 2.75  16 2.78  16 2.79  17 2.80  18 2.84
  16  0.312  0.666  0.845-  38 1.78  36 1.83  40 1.84  35 1.86  42 1.86  41 1.98   1 2.59   6 2.61
                             3 2.68   4 2.69  18 2.75  17 2.77  15 2.78  15 2.79  17 2.80  18 2.81
  17  0.820  0.164  0.846-  35 1.79  38 1.82  37 1.88  39 1.94  41 1.96  40 1.98   1 2.47   6 2.59
                             5 2.72  18 2.75  15 2.75  16 2.77  16 2.80  15 2.80  18 2.83   3 2.86
  18  0.805  0.664  0.856-  38 1.76  37 1.85  36 1.85  42 1.92  40 1.93  39 1.94   6 2.59   5 2.73
                            15 2.74  16 2.75  17 2.75  16 2.81  17 2.83  15 2.84   4 2.89
  19  0.992  0.981  0.231-  10 1.76   8 1.89   7 1.94   2 2.09
  20  0.983  0.474  0.236-   9 1.79   2 1.86   7 1.88   8 1.88
  21  0.498  0.994  0.235-   9 1.84   8 1.87  10 1.92
  22  0.508  0.485  0.228-  10 1.80   9 1.80   7 1.89   2 2.06
  23  0.346  0.154  0.088-   9 1.81   8 1.90   1 1.90   7 1.91
  24  0.348  0.669  0.085-   8 1.83  10 1.85   7 1.86   1 1.89
  25  0.828  0.155  0.087-   9 1.80   1 1.83   7 1.85  10 1.90
  26  0.827  0.654  0.083-  10 1.83   9 1.88   8 1.90
  27  0.345  0.195  0.576-  14 1.86  11 1.89   3 1.98   5 2.00  13 2.08   4 2.10
  28  0.350  0.672  0.571-  14 1.80  12 1.87   3 1.90  13 1.97   6 2.12   4 2.14
  29  0.855  0.167  0.576-  11 1.84  13 1.92  12 1.92   3 1.97   6 2.18   5 2.21
  30  0.837  0.681  0.576-  14 1.88  11 1.93  12 1.93   4 2.01   5 2.05   6 2.09
  31  0.195  0.368  0.422-  14 1.78  12 1.84  11 1.92
  32  0.167  0.831  0.417-  12 1.87  11 1.87   2 1.94  13 1.98
  33  0.688  0.349  0.421-   2 1.81  13 1.82  12 1.86  14 1.91
  34  0.690  0.850  0.418-  13 1.80  11 1.85  14 1.88   2 2.11
  35  0.136  0.334  0.920-  17 1.79  16 1.86  15 1.95
  36  0.152  0.836  0.918-  16 1.83  18 1.85  15 1.88   1 2.08
  37  0.641  0.322  0.921-  18 1.85  15 1.86  17 1.88   1 1.90
  38  0.635  0.829  0.912-  18 1.76  16 1.78   1 1.81  17 1.82
  39  0.997  0.992  0.768-  15 1.81   6 1.90   4 1.94  18 1.94  17 1.94   3 2.23
  40  0.988  0.519  0.768-  16 1.84  18 1.93   5 1.96   4 1.98  17 1.98   3 2.10
  41  0.483  0.011  0.760-  15 1.85   4 1.89   5 1.95  17 1.96  16 1.98   6 1.99
  42  0.479  0.500  0.770-  15 1.84  16 1.86   6 1.89  18 1.92   3 1.94   5 1.99
 

IMPORTANT INFORMATION: All symmetrisations will be switched off!
NOSYMM: (Re-)initialisation of all symmetry stuff for point group C_1.

 
 

Automatic generation of k-mesh.
 generate k-points for:    6    6    2
Space group operators:
 irot       det(A)        alpha          n_x          n_y          n_z        tau_x        tau_y        tau_z
    1     1.000000     0.000000     1.000000     0.000000     0.000000     0.000000     0.000000     0.000000
 
 Subroutine IBZKPT returns following result:
 ===========================================
 
 Found     36 irreducible k-points:
 
 Following reciprocal coordinates:
            Coordinates               Weight
  0.083333  0.083333  0.250000      2.000000
  0.250000  0.083333  0.250000      2.000000
  0.416667  0.083333  0.250000      2.000000
 -0.416667  0.083333  0.250000      2.000000
 -0.250000  0.083333  0.250000      2.000000
 -0.083333  0.083333  0.250000      2.000000
  0.083333  0.250000  0.250000      2.000000
  0.250000  0.250000  0.250000      2.000000
  0.416667  0.250000  0.250000      2.000000
 -0.416667  0.250000  0.250000      2.000000
 -0.250000  0.250000  0.250000      2.000000
 -0.083333  0.250000  0.250000      2.000000
  0.083333  0.416667  0.250000      2.000000
  0.250000  0.416667  0.250000      2.000000
  0.416667  0.416667  0.250000      2.000000
 -0.416667  0.416667  0.250000      2.000000
 -0.250000  0.416667  0.250000      2.000000
 -0.083333  0.416667  0.250000      2.000000
  0.083333 -0.416667  0.250000      2.000000
  0.250000 -0.416667  0.250000      2.000000
  0.416667 -0.416667  0.250000      2.000000
 -0.416667 -0.416667  0.250000      2.000000
 -0.250000 -0.416667  0.250000      2.000000
 -0.083333 -0.416667  0.250000      2.000000
  0.083333 -0.250000  0.250000      2.000000
  0.250000 -0.250000  0.250000      2.000000
  0.416667 -0.250000  0.250000      2.000000
 -0.416667 -0.250000  0.250000      2.000000
 -0.250000 -0.250000  0.250000      2.000000
 -0.083333 -0.250000  0.250000      2.000000
  0.083333 -0.083333  0.250000      2.000000
  0.250000 -0.083333  0.250000      2.000000
  0.416667 -0.083333  0.250000      2.000000
 -0.416667 -0.083333  0.250000      2.000000
 -0.250000 -0.083333  0.250000      2.000000
 -0.083333 -0.083333  0.250000      2.000000
 
 Following cartesian coordinates:
            Coordinates               Weight
  0.015015  0.025916  0.019572      2.000000
  0.045045  0.043230  0.019373      2.000000
  0.075075  0.060544  0.019174      2.000000
 -0.075075 -0.026026  0.020171      2.000000
 -0.045045 -0.008712  0.019971      2.000000
 -0.015015  0.008602  0.019772      2.000000
  0.015015  0.060434  0.019535      2.000000
  0.045045  0.077748  0.019336      2.000000
  0.075075  0.095062  0.019137      2.000000
 -0.075075  0.008492  0.020134      2.000000
 -0.045045  0.025806  0.019934      2.000000
 -0.015015  0.043120  0.019735      2.000000
  0.015015  0.094951  0.019498      2.000000
  0.045045  0.112265  0.019299      2.000000
  0.075075  0.129579  0.019099      2.000000
 -0.075075  0.043009  0.020097      2.000000
 -0.045045  0.060323  0.019897      2.000000
 -0.015015  0.077637  0.019698      2.000000
  0.015015 -0.077637  0.019683      2.000000
  0.045045 -0.060323  0.019484      2.000000
  0.075075 -0.043009  0.019285      2.000000
 -0.075075 -0.129579  0.020282      2.000000
 -0.045045 -0.112265  0.020082      2.000000
 -0.015015 -0.094951  0.019883      2.000000
  0.015015 -0.043120  0.019646      2.000000
  0.045045 -0.025806  0.019447      2.000000
  0.075075 -0.008492  0.019248      2.000000
 -0.075075 -0.095062  0.020245      2.000000
 -0.045045 -0.077748  0.020045      2.000000
 -0.015015 -0.060434  0.019846      2.000000
  0.015015 -0.008602  0.019609      2.000000
  0.045045  0.008712  0.019410      2.000000
  0.075075  0.026026  0.019211      2.000000
 -0.075075 -0.060544  0.020208      2.000000
 -0.045045 -0.043230  0.020008      2.000000
 -0.015015 -0.025916  0.019809      2.000000
 


--------------------------------------------------------------------------------------------------------




 Dimension of arrays:
   k-points           NKPTS =     36   k-points in BZ     NKDIM =     36   number of bands    NBANDS=    160
   number of dos      NEDOS =    301   number of ions     NIONS =     42
   non local maximal  LDIM  =      6   non local SUM 2l+1 LMDIM =     18
   total plane-waves  NPLWV = 103680
   max r-space proj   IRMAX =   2898   max aug-charges    IRDMAX=  12216
   dimension x,y,z NGX =    36 NGY =   36 NGZ =   80
   dimension x,y,z NGXF=    72 NGYF=   72 NGZF=  160
   support grid    NGXF=    72 NGYF=   72 NGZF=  160
   ions per type =               6  12  24
   NGX,Y,Z   is equivalent  to a cutoff of  10.78, 10.74, 10.47 a.u.
   NGXF,Y,Z  is equivalent  to a cutoff of  21.57, 21.48, 20.95 a.u.

 SYSTEM =  LiCoO2                                  
 POSCAR =  Li6 Co12 O24                            

 Startparameter for this run:
   NWRITE =      2    write-flag & timer
   PREC   = normal    normal or accurate (medium, high low for compatibility)
   ISTART =      0    job   : 0-new  1-cont  2-samecut
   ICHARG =      2    charge: 1-file 2-atom 10-const
   ISPIN  =      2    spin polarized calculation?
   LNONCOLLINEAR =      F non collinear calculations
   LSORBIT =      F    spin-orbit coupling
   INIWAV =      1    electr: 0-lowe 1-rand  2-diag
   LASPH  =      F    aspherical Exc in radial PAW
   METAGGA=      F    non-selfconsistent MetaGGA calc.

 Electronic Relaxation 1
   ENCUT  =  600.0 eV  44.10 Ry    6.64 a.u.  11.08 11.13 25.36*2*pi/ulx,y,z
   ENINI  =  600.0     initial cutoff
   ENAUG  =  605.4 eV  augmentation charge cutoff
   NELM   =    600;   NELMIN=  2; NELMDL= -5     # of ELM steps 
   EDIFF  = 0.1E-05   stopping-criterion for ELM
   LREAL  =      T    real-space projection
   NLSPLINE    = F    spline interpolate recip. space projectors
   LCOMPAT=      F    compatible to vasp.4.4
   GGA_COMPAT  = T    GGA compatible to vasp.4.4-vasp.4.6
   LMAXPAW     = -100 max onsite density
   LMAXMIX     =    2 max onsite mixed and CHGCAR
   VOSKOWN=      0    Vosko Wilk Nusair interpolation
   ROPT   =   -0.00050  -0.00050  -0.00050
 Ionic relaxation
   EDIFFG = 0.1E-04   stopping-criterion for IOM
   NSW    =      0    number of steps for IOM
   NBLOCK =      1;   KBLOCK =      1    inner block; outer block 
   IBRION =     -1    ionic relax: 0-MD 1-quasi-New 2-CG
   NFREE  =      0    steps in history (QN), initial steepest desc. (CG)
   ISIF   =      2    stress and relaxation
   IWAVPR =     10    prediction:  0-non 1-charg 2-wave 3-comb
   ISYM   =      0    0-nonsym 1-usesym 2-fastsym
   LCORR  =      T    Harris-Foulkes like correction to forces

   POTIM  = 0.5000    time-step for ionic-motion
   TEIN   =    0.0    initial temperature
   TEBEG  =    0.0;   TEEND  =   0.0 temperature during run
   SMASS  =  -3.00    Nose mass-parameter (am)
   estimated Nose-frequenzy (Omega)   =  0.10E-29 period in steps =****** mass=  -0.704E-27a.u.
   SCALEE = 1.0000    scale energy and forces
   NPACO  =    256;   APACO  = 16.0  distance and # of slots for P.C.
   PSTRESS=    0.0 pullay stress

  Mass of Ions in am
   POMASS =   7.01 58.93 16.00
  Ionic Valenz
   ZVAL   =   1.00  9.00  6.00
  Atomic Wigner-Seitz radii
   RWIGS  =  -1.00 -1.00 -1.00
  virtual crystal weights 
   VCA    =   1.00  1.00  1.00
   NELECT =     258.0000    total number of electrons
   NUPDOWN=       6.0000    fix difference up-down

 DOS related values:
   EMIN   =  10.00;   EMAX   =-10.00  energy-range for DOS
   EFERMI =   0.00
   ISMEAR =     0;   SIGMA  =   0.05  broadening in eV -4-tet -1-fermi 0-gaus

 Electronic relaxation 2 (details)
   IALGO  =     58    algorithm
   LDIAG  =      T    sub-space diagonalisation (order eigenvalues)
   LSUBROT=      F    optimize rotation matrix (better conditioning)
   TURBO    =      0    0=normal 1=particle mesh
   IRESTART =      0    0=no restart 2=restart with 2 vectors
   NREBOOT  =      0    no. of reboots
   NMIN     =      0    reboot dimension
   EREF     =   0.00    reference energy to select bands
   IMIX   =      4    mixing-type and parameters
     AMIX     =   0.40;   BMIX     =  1.00
     AMIX_MAG =   1.60;   BMIX_MAG =  1.00
     AMIN     =   0.10
     WC   =   100.;   INIMIX=   1;  MIXPRE=   1;  MAXMIX= -45

 Intra band minimization:
   WEIMIN = 0.0000     energy-eigenvalue tresh-hold
   EBREAK =  0.16E-08  absolut break condition
   DEPER  =   0.30     relativ break condition  

   TIME   =   0.40     timestep for ELM

  volume/ion in A,a.u.               =       8.10        54.67
  Fermi-wavevector in a.u.,A,eV,Ry     =   1.492863  2.821103 30.322502  2.228641
  Thomas-Fermi vector in A             =   2.605337
 
 Write flags
   LWAVE        =      F    write WAVECAR
   LDOWNSAMPLE  =      F    k-point downsampling of WAVECAR
   LCHARG       =      F    write CHGCAR
   LVTOT        =      F    write LOCPOT, total local potential
   LVHAR        =      F    write LOCPOT, Hartree potential only
   LELF         =      F    write electronic localiz. function (ELF)
   LORBIT       =     11    0 simple, 1 ext, 2 COOP (PROOUT), +10 PAW based schemes


 Dipole corrections
   LMONO  =      F    monopole corrections only (constant potential shift)
   LDIPOL =      F    correct potential (dipole corrections)
   IDIPOL =      0    1-x, 2-y, 3-z, 4-all directions 
   EPSILON=  1.0000000 bulk dielectric constant

 LDA+U is selected, type is set to LDAUTYPE =  2
   angular momentum for each species LDAUL =    -1    2   -1
   U (eV)           for each species LDAUU =   0.0  5.1  0.0
   J (eV)           for each species LDAUJ =   0.0  0.0  0.0
 Exchange correlation treatment:
   GGA     =    --    GGA type
   LEXCH   =     8    internal setting for exchange type
   VOSKOWN=      0    Vosko Wilk Nusair interpolation
   LHFCALC =     F    Hartree Fock is set to
   LHFONE  =     F    Hartree Fock one center treatment
   AEXX    =    0.0000 exact exchange contribution

 Linear response parameters
   LEPSILON=     F    determine dielectric tensor
   LRPA    =     F    only Hartree local field effects (RPA)
   LNABLA  =     F    use nabla operator in PAW spheres
   LVEL    =     F    velocity operator in full k-point grid
   LINTERFAST=   F  fast interpolation
   KINTER  =     0    interpolate to denser k-point grid
   CSHIFT  =0.1000    complex shift for real part using Kramers Kronig
   OMEGAMAX=  -1.0    maximum frequency
   DEG_THRESHOLD= 0.2000000E-02 threshold for treating states as degnerate
   RTIME   =   -0.100 relaxation time in fs
  (WPLASMAI=    0.000 imaginary part of plasma frequency in eV, 0.658/RTIME)
   DFIELD  = 0.0000000 0.0000000 0.0000000 field for delta impulse in time
 
 Orbital magnetization related:
   ORBITALMAG=     F  switch on orbital magnetization
   LCHIMAG   =     F  perturbation theory with respect to B field
   DQ        =  0.001000  dq finite difference perturbation B field
   LLRAUG    =     F  two centre corrections for induced B field



--------------------------------------------------------------------------------------------------------


 Static calculation
 charge density and potential will be updated during run
 spin polarized calculation
 Conjugate gradient for all bands (Freysoldt, et al. PRB 79, 241103 (2009))
 preconditioned conjugated gradient                                        
 perform sub-space diagonalisation
    before iterative eigenvector-optimisation
 modified Broyden-mixing scheme, WC =      100.0
 initial mixing is a Kerker type mixing with AMIX =  0.4000 and BMIX =      1.0000
 Hartree-type preconditioning will be used
 using additional bands           31
 real space projection scheme for non local part
 use partial core corrections
 no Harris-corrections to forces 
 use gradient corrections 
 use of overlap-Matrix (Vanderbilt PP)
 Gauss-broadening in eV      SIGMA  =   0.05


--------------------------------------------------------------------------------------------------------


  energy-cutoff  :      600.00
  volume of cell :      340.24
      direct lattice vectors                 reciprocal lattice vectors
     5.550024033  0.000000000  0.000000000     0.180179400  0.103883863 -0.001196409
    -2.783871651  4.828433514  0.000000000     0.000000000  0.207106507 -0.000222046
     0.076457493  0.013612328 12.696467400     0.000000000  0.000000000  0.078762066

  length of vectors
     5.550024033  5.573482893 12.696704906     0.207985347  0.207106626  0.078762066


 
 k-points in units of 2pi/SCALE and weight: read from INCAR                         
   0.01501495  0.02591586  0.01957231       0.028
   0.04504485  0.04322984  0.01937291       0.028
   0.07507475  0.06054382  0.01917351       0.028
  -0.07507475 -0.02602607  0.02017052       0.028
  -0.04504485 -0.00871209  0.01997111       0.028
  -0.01501495  0.00860189  0.01977171       0.028
   0.01501495  0.06043362  0.01953530       0.028
   0.04504485  0.07774759  0.01933590       0.028
   0.07507475  0.09506157  0.01913650       0.028
  -0.07507475  0.00849168  0.02013351       0.028
  -0.04504485  0.02580566  0.01993411       0.028
  -0.01501495  0.04311964  0.01973471       0.028
   0.01501495  0.09495137  0.01949830       0.028
   0.04504485  0.11226534  0.01929889       0.028
   0.07507475  0.12957932  0.01909949       0.028
  -0.07507475  0.04300944  0.02009650       0.028
  -0.04504485  0.06032341  0.01989710       0.028
  -0.01501495  0.07763739  0.01969770       0.028
   0.01501495 -0.07763739  0.01968333       0.028
   0.04504485 -0.06032341  0.01948393       0.028
   0.07507475 -0.04300944  0.01928453       0.028
  -0.07507475 -0.12957932  0.02028154       0.028
  -0.04504485 -0.11226534  0.02008214       0.028
  -0.01501495 -0.09495137  0.01988274       0.028
   0.01501495 -0.04311964  0.01964633       0.028
   0.04504485 -0.02580566  0.01944693       0.028
   0.07507475 -0.00849168  0.01924752       0.028
  -0.07507475 -0.09506157  0.02024453       0.028
  -0.04504485 -0.07774759  0.02004513       0.028
  -0.01501495 -0.06043362  0.01984573       0.028
   0.01501495 -0.00860189  0.01960932       0.028
   0.04504485  0.00871209  0.01940992       0.028
   0.07507475  0.02602607  0.01921052       0.028
  -0.07507475 -0.06054382  0.02020752       0.028
  -0.04504485 -0.04322984  0.02000812       0.028
  -0.01501495 -0.02591586  0.01980872       0.028
 
 k-points in reciprocal lattice and weights: read from INCAR                         
   0.08333333  0.08333333  0.25000000       0.028
   0.25000000  0.08333333  0.25000000       0.028
   0.41666667  0.08333333  0.25000000       0.028
  -0.41666667  0.08333333  0.25000000       0.028
  -0.25000000  0.08333333  0.25000000       0.028
  -0.08333333  0.08333333  0.25000000       0.028
   0.08333333  0.25000000  0.25000000       0.028
   0.25000000  0.25000000  0.25000000       0.028
   0.41666667  0.25000000  0.25000000       0.028
  -0.41666667  0.25000000  0.25000000       0.028
  -0.25000000  0.25000000  0.25000000       0.028
  -0.08333333  0.25000000  0.25000000       0.028
   0.08333333  0.41666667  0.25000000       0.028
   0.25000000  0.41666667  0.25000000       0.028
   0.41666667  0.41666667  0.25000000       0.028
  -0.41666667  0.41666667  0.25000000       0.028
  -0.25000000  0.41666667  0.25000000       0.028
  -0.08333333  0.41666667  0.25000000       0.028
   0.08333333 -0.41666667  0.25000000       0.028
   0.25000000 -0.41666667  0.25000000       0.028
   0.41666667 -0.41666667  0.25000000       0.028
  -0.41666667 -0.41666667  0.25000000       0.028
  -0.25000000 -0.41666667  0.25000000       0.028
  -0.08333333 -0.41666667  0.25000000       0.028
   0.08333333 -0.25000000  0.25000000       0.028
   0.25000000 -0.25000000  0.25000000       0.028
   0.41666667 -0.25000000  0.25000000       0.028
  -0.41666667 -0.25000000  0.25000000       0.028
  -0.25000000 -0.25000000  0.25000000       0.028
  -0.08333333 -0.25000000  0.25000000       0.028
   0.08333333 -0.08333333  0.25000000       0.028
   0.25000000 -0.08333333  0.25000000       0.028
   0.41666667 -0.08333333  0.25000000       0.028
  -0.41666667 -0.08333333  0.25000000       0.028
  -0.25000000 -0.08333333  0.25000000       0.028
  -0.08333333 -0.08333333  0.25000000       0.028
 
 position of ions in fractional coordinates (direct lattice) 
   0.51688631  0.99760964  0.00426103
   0.84361091  0.63384511  0.32845277
   0.18243248  0.36887355  0.66693279
   0.16535678  0.84407615  0.67325734
   0.66267285  0.35065358  0.67677407
   0.66463716  0.82606458  0.68777397
   0.16703430  0.33057148  0.15556610
   0.16499569  0.80960896  0.15992479
   0.67155611  0.31999334  0.15966882
   0.67280261  0.81725936  0.16289492
   0.01947618  0.01641318  0.49293949
   0.01268592  0.50907293  0.49918690
   0.53160416  0.01716983  0.48828070
   0.51003592  0.51683832  0.49517633
   0.31816574  0.16817385  0.84068817
   0.31189974  0.66625116  0.84487041
   0.81963286  0.16367042  0.84616213
   0.80489690  0.66406024  0.85578686
   0.99156245  0.98063162  0.23107136
   0.98282267  0.47432408  0.23565690
   0.49825036  0.99353899  0.23455579
   0.50777552  0.48527386  0.22828161
   0.34570326  0.15429355  0.08844192
   0.34840179  0.66874464  0.08528829
   0.82833684  0.15480616  0.08659574
   0.82687799  0.65392204  0.08308295
   0.34479429  0.19527018  0.57601299
   0.35000726  0.67241511  0.57141091
   0.85463009  0.16714572  0.57580504
   0.83732639  0.68136920  0.57551837
   0.19506378  0.36848125  0.42187955
   0.16695905  0.83074123  0.41735863
   0.68778062  0.34867225  0.42088558
   0.69019455  0.84955292  0.41800919
   0.13643909  0.33394519  0.91959986
   0.15184999  0.83559703  0.91794587
   0.64114301  0.32210976  0.92081279
   0.63465490  0.82894842  0.91221990
   0.99661938  0.99216939  0.76814835
   0.98848604  0.51920227  0.76815616
   0.48255939  0.01089578  0.76037449
   0.47919443  0.50009443  0.76968419
 
 position of ions in cartesian coordinates  (Angst):
   0.09184000  4.81694984  0.05410000
   2.94263005  3.06494999  4.17018986
   0.03660000  1.79015994  8.46769047
  -1.38058996  4.08473015  8.54798985
   2.75342011  1.70231998  8.59263992
   1.44167995  3.99796009  8.73229980
   0.01867000  1.59826005  1.97513998
  -1.32588994  3.91131997  2.03047991
   2.84854007  1.54724002  2.02723002
   1.47138000  3.94829988  2.06819010
   0.10009000  0.08596000  6.25859022
  -1.30861998  2.46481991  6.33791018
   2.93994999  0.08955000  6.19944000
   1.42975998  2.50225997  6.28699017
   1.36193001  0.82345998 10.67376995
  -0.05911000  3.22845006 10.72686958
   4.15804005  0.80179000 10.74326992
   2.68396997  3.21801996 10.86546993
   2.79091001  4.73806000  2.93378997
   4.15224981  2.29345012  2.99201012
   0.01735000  4.80042982  2.97802997
   1.48468006  2.34622002  2.89837003
   1.49589002  0.74620003  1.12290001
   0.07846000  3.23014998  1.08285999
   4.17294979  0.74865001  1.09946001
   2.77511001  3.15855002  1.05486000
   1.41404998  0.95068997  7.31333017
   0.11432000  3.25448990  7.25489998
   4.32192993  0.81489003  7.31068993
   2.79433990  3.29778004  7.30705023
   0.08906000  1.78492999  5.35637999
  -1.35414004  4.01686001  5.29898024
   2.87872005  1.68927002  5.34376001
   1.49750996  4.10769987  5.30724001
  -0.10211000  1.62495005 11.67566967
  -1.41323996  4.04712009 11.65466976
   2.73204994  1.56781995 11.69106960
   1.28441000  4.01493978 11.58197021
   2.82791996  4.80108023  9.75277042
   4.09946013  2.51739001  9.75286961
   2.70602012  0.06296000  9.65406990
   1.32618999  2.42514992  9.77227020
 


--------------------------------------------------------------------------------------------------------


 k-point  1 :   0.0833 0.0833 0.2500  plane waves:   11338
 k-point  2 :   0.2500 0.0833 0.2500  plane waves:   11358
 k-point  3 :   0.4167 0.0833 0.2500  plane waves:   11357
 k-point  4 :  -0.4167 0.0833 0.2500  plane waves:   11361
 k-point  5 :  -0.2500 0.0833 0.2500  plane waves:   11338
 k-point  6 :  -0.0833 0.0833 0.2500  plane waves:   11305
 k-point  7 :   0.0833 0.2500 0.2500  plane waves:   11342
 k-point  8 :   0.2500 0.2500 0.2500  plane waves:   11364
 k-point  9 :   0.4167 0.2500 0.2500  plane waves:   11364
 k-point 10 :  -0.4167 0.2500 0.2500  plane waves:   11364
 k-point 11 :  -0.2500 0.2500 0.2500  plane waves:   11331
 k-point 12 :  -0.0833 0.2500 0.2500  plane waves:   11342
 k-point 13 :   0.0833 0.4167 0.2500  plane waves:   11359
 k-point 14 :   0.2500 0.4167 0.2500  plane waves:   11369
 k-point 15 :   0.4167 0.4167 0.2500  plane waves:   11363
 k-point 16 :  -0.4167 0.4167 0.2500  plane waves:   11366
 k-point 17 :  -0.2500 0.4167 0.2500  plane waves:   11370
 k-point 18 :  -0.0833 0.4167 0.2500  plane waves:   11354
 k-point 19 :   0.0833-0.4167 0.2500  plane waves:   11362
 k-point 20 :   0.2500-0.4167 0.2500  plane waves:   11354
 k-point 21 :   0.4167-0.4167 0.2500  plane waves:   11375
 k-point 22 :  -0.4167-0.4167 0.2500  plane waves:   11360
 k-point 23 :  -0.2500-0.4167 0.2500  plane waves:   11368
 k-point 24 :  -0.0833-0.4167 0.2500  plane waves:   11352
 k-point 25 :   0.0833-0.2500 0.2500  plane waves:   11337
 k-point 26 :   0.2500-0.2500 0.2500  plane waves:   11343
 k-point 27 :   0.4167-0.2500 0.2500  plane waves:   11362
 k-point 28 :  -0.4167-0.2500 0.2500  plane waves:   11369
 k-point 29 :  -0.2500-0.2500 0.2500  plane waves:   11377
 k-point 30 :  -0.0833-0.2500 0.2500  plane waves:   11350
 k-point 31 :   0.0833-0.0833 0.2500  plane waves:   11335
 k-point 32 :   0.2500-0.0833 0.2500  plane waves:   11365
 k-point 33 :   0.4167-0.0833 0.2500  plane waves:   11357
 k-point 34 :  -0.4167-0.0833 0.2500  plane waves:   11352
 k-point 35 :  -0.2500-0.0833 0.2500  plane waves:   11363
 k-point 36 :  -0.0833-0.0833 0.2500  plane waves:   11323

 maximum and minimum number of plane-waves per node :      2863     2815

 maximum number of plane-waves:     11377
 maximum index in each direction: 
   IXMAX=   11   IYMAX=   11   IZMAX=   25
   IXMIN=  -11   IYMIN=  -11   IZMIN=  -25


 real space projection operators:
  total allocation   :       7741.44 KBytes
  max/ min on nodes  :       1940.40       1932.49


 parallel 3D FFT for wavefunctions:
    minimum data exchange during FFTs selected (reduces bandwidth)
 parallel 3D FFT for charge:
    minimum data exchange during FFTs selected (reduces bandwidth)


 total amount of memory used by VASP MPI-rank0   143257. kBytes
=======================================================================

   base      :      30000. kBytes
   nonlr-proj:       4432. kBytes
   fftplans  :       1502. kBytes
   grid      :       4132. kBytes
   one-center:        342. kBytes
   wavefun   :     102849. kBytes
 
     INWAV:  cpu time    0.0000: real time    0.0003
 Broyden mixing: mesh for mixing (old mesh)
   NGX = 23   NGY = 23   NGZ = 51
  (NGX  = 72   NGY  = 72   NGZ  =160)
  gives a total of  26979 points

 initial charge density was supplied:
 charge density of overlapping atoms calculated
 number of electron     258.0000000 magnetization       6.0000000
 keeping initial charge density in first step


--------------------------------------------------------------------------------------------------------


 Maximum index for non-local projection operator          707
 Maximum index for augmentation-charges          933 (set IRDMAX)


--------------------------------------------------------------------------------------------------------


 First call to EWALD:  gamma=   0.254
 Maximum number of real-space cells 4x 4x 2
 Maximum number of reciprocal cells 2x 2x 5

    FEWALD:  cpu time    0.0051: real time    0.0051


--------------------------------------- Iteration      1(   1)  ---------------------------------------


    POTLOK:  cpu time    0.0618: real time    0.0668
    SETDIJ:  cpu time    0.0195: real time    0.0201
    TRIAL :  cpu time   22.9581: real time   23.2587
    CORREC:  cpu time    0.0042: real time    0.0043
    --------------------------------------------
      LOOP:  cpu time   23.2334: real time   23.5417

 eigenvalue-minimisations  : 23040
 total energy-change (2. order) : 0.3567483E+04  (-0.1407955E+05)
 number of electron     258.0000000 magnetization       6.0000000
 augmentation part      258.0000000 magnetization       6.0000000

 Free energy of the ion-electron system (eV)
  ---------------------------------------------------
  alpha Z        PSCENC =       861.64959188
  Ewald energy   TEWEN  =    -15741.49428917
  -Hartree energ DENC   =     -5751.66217609
  -exchange      EXHF   =         0.00000000
  -V(xc)+E(xc)   XCENC  =       850.79996289
  PAW double counting   =     17015.18481625   -17491.61297812
  entropy T*S    EENTRO =        -0.00736369
  eigenvalues    EBANDS =      3655.75418698
  atomic energy  EATOM  =     20168.87094289
  ---------------------------------------------------
  free energy    TOTEN  =      3567.48269382 eV

  energy without entropy =     3567.49005751  energy(sigma->0) =     3567.48637566


--------------------------------------------------------------------------------------------------------




--------------------------------------- Iteration      1(   2)  ---------------------------------------


    TRIAL :  cpu time   21.5703: real time   21.6584
    CORREC:  cpu time    0.0043: real time    0.0043
    --------------------------------------------
      LOOP:  cpu time   21.5790: real time   21.6671

 eigenvalue-minimisations  : 24432
 total energy-change (2. order) :-0.3152964E+04  (-0.2910506E+04)
 number of electron     258.0000000 magnetization       6.0000000
 augmentation part      258.0000000 magnetization       6.0000000

 Free energy of the ion-electron system (eV)
  ---------------------------------------------------
  alpha Z        PSCENC =       861.64959188
  Ewald energy   TEWEN  =    -15741.49428917
  -Hartree energ DENC   =     -5751.66217609
  -exchange      EXHF   =         0.00000000
  -V(xc)+E(xc)   XCENC  =       850.79996289
  PAW double counting   =     17015.18481625   -17491.61297812
  entropy T*S    EENTRO =        -0.02335143
  eigenvalues    EBANDS =       502.80615835
  atomic energy  EATOM  =     20168.87094289
  ---------------------------------------------------
  free energy    TOTEN  =       414.51867744 eV

  energy without entropy =      414.54202888  energy(sigma->0) =      414.53035316


--------------------------------------------------------------------------------------------------------




--------------------------------------- Iteration      1(   3)  ---------------------------------------


    TRIAL :  cpu time   22.0386: real time   22.0670
    CORREC:  cpu time    0.0043: real time    0.0043
    --------------------------------------------
      LOOP:  cpu time   22.0471: real time   22.0755

 eigenvalue-minimisations  : 25056
 total energy-change (2. order) :-0.6342068E+03  (-0.5688658E+03)
 number of electron     258.0000000 magnetization       6.0000000
 augmentation part      258.0000000 magnetization       6.0000000

 Free energy of the ion-electron system (eV)
  ---------------------------------------------------
  alpha Z        PSCENC =       861.64959188
  Ewald energy   TEWEN  =    -15741.49428917
  -Hartree energ DENC   =     -5751.66217609
  -exchange      EXHF   =         0.00000000
  -V(xc)+E(xc)   XCENC  =       850.79996289
  PAW double counting   =     17015.18481625   -17491.61297812
  entropy T*S    EENTRO =        -0.02421600
  eigenvalues    EBANDS =      -131.39978813
  atomic energy  EATOM  =     20168.87094289
  ---------------------------------------------------
  free energy    TOTEN  =      -219.68813360 eV

  energy without entropy =     -219.66391761  energy(sigma->0) =     -219.67602561


--------------------------------------------------------------------------------------------------------




--------------------------------------- Iteration      1(   4)  ---------------------------------------


    TRIAL :  cpu time   22.3263: real time   22.3554
    CORREC:  cpu time    0.0038: real time    0.0038
    --------------------------------------------
      LOOP:  cpu time   22.3343: real time   22.3634

 eigenvalue-minimisations  : 25296
 total energy-change (2. order) :-0.5147873E+02  (-0.5050144E+02)
 number of electron     258.0000000 magnetization       6.0000000
 augmentation part      258.0000000 magnetization       6.0000000

 Free energy of the ion-electron system (eV)
  ---------------------------------------------------
  alpha Z        PSCENC =       861.64959188
  Ewald energy   TEWEN  =    -15741.49428917
  -Hartree energ DENC   =     -5751.66217609
  -exchange      EXHF   =         0.00000000
  -V(xc)+E(xc)   XCENC  =       850.79996289
  PAW double counting   =     17015.18481625   -17491.61297812
  entropy T*S    EENTRO =        -0.02643711
  eigenvalues    EBANDS =      -182.87629559
  atomic energy  EATOM  =     20168.87094289
  ---------------------------------------------------
  free energy    TOTEN  =      -271.16686218 eV

  energy without entropy =     -271.14042507  energy(sigma->0) =     -271.15364362


--------------------------------------------------------------------------------------------------------




--------------------------------------- Iteration      1(   5)  ---------------------------------------


    TRIAL :  cpu time   24.2399: real time   24.3167
    CORREC:  cpu time    0.0039: real time    0.0039
    CHARGE:  cpu time    0.3455: real time    0.3457
    --------------------------------------------
      LOOP:  cpu time   24.5938: real time   24.6708

 eigenvalue-minimisations  : 27824
 total energy-change (2. order) :-0.1588727E+01  (-0.1586235E+01)
 number of electron     258.0000022 magnetization       6.0000004
 augmentation part       68.2743582 magnetization       4.2816204

 Free energy of the ion-electron system (eV)
  ---------------------------------------------------
  alpha Z        PSCENC =       861.64959188
  Ewald energy   TEWEN  =    -15741.49428917
  -Hartree energ DENC   =     -5751.66217609
  -exchange      EXHF   =         0.00000000
  -V(xc)+E(xc)   XCENC  =       850.79996289
  PAW double counting   =     17015.18481625   -17491.61297812
  entropy T*S    EENTRO =        -0.02631595
  eigenvalues    EBANDS =      -184.46514394
  atomic energy  EATOM  =     20168.87094289
  ---------------------------------------------------
  free energy    TOTEN  =      -272.75558936 eV

  energy without entropy =     -272.72927341  energy(sigma->0) =     -272.74243139


--------------------------------------------------------------------------------------------------------




--------------------------------------- Iteration      1(   6)  ---------------------------------------


    POTLOK:  cpu time    0.0434: real time    0.0435
    SETDIJ:  cpu time    0.0126: real time    0.0126
    TRIAL :  cpu time   11.5518: real time   11.5597
    CORREC:  cpu time    4.1058: real time    4.1092
    CHARGE:  cpu time    0.3730: real time    0.3731
    --------------------------------------------
      LOOP:  cpu time   16.0914: real time   16.1030

 eigenvalue-minimisations  :     0
 total energy-change (2. order) : 0.3887675E+03  (-0.2483296E+03)
 number of electron     258.0000019 magnetization       6.0000006
 augmentation part       71.0243556 magnetization       4.3988071

 Free energy of the ion-electron system (eV)
  ---------------------------------------------------
  alpha Z        PSCENC =       861.64959188
  Ewald energy   TEWEN  =    -15741.49428917
  -Hartree energ DENC   =     -5490.62916169
  -exchange      EXHF   =         0.00000000
  -V(xc)+E(xc)   XCENC  =       884.83981003
  PAW double counting   =     24852.34791684   -25066.85709975
  entropy T*S    EENTRO =        -0.04316790
  eigenvalues    EBANDS =      -352.68945442
  atomic energy  EATOM  =     20168.87094289
  ---------------------------------------------------
  free energy    TOTEN  =       116.01194066 eV

  energy without entropy =      116.05510856  energy(sigma->0) =      116.03352461


--------------------------------------------------------------------------------------------------------




--------------------------------------- Iteration      1(   7)  ---------------------------------------


    POTLOK:  cpu time    0.0427: real time    0.0428
    SETDIJ:  cpu time    0.0125: real time    0.0125
    TRIAL :  cpu time   11.6798: real time   11.6846
    CORREC:  cpu time    4.0037: real time    4.0055
    CHARGE:  cpu time    0.3664: real time    0.3665
    --------------------------------------------
      LOOP:  cpu time   16.1095: real time   16.1163

 eigenvalue-minimisations  :     0
 total energy-change (2. order) :-0.1318556E+03  (-0.3091211E+02)
 number of electron     258.0000023 magnetization       6.0000003
 augmentation part       71.8036245 magnetization       4.3332372

 Free energy of the ion-electron system (eV)
  ---------------------------------------------------
  alpha Z        PSCENC =       861.64959188
  Ewald energy   TEWEN  =    -15741.49428917
  -Hartree energ DENC   =     -5595.74948207
  -exchange      EXHF   =         0.00000000
  -V(xc)+E(xc)   XCENC  =       874.51588037
  PAW double counting   =     24832.01127428   -25154.80584280
  entropy T*S    EENTRO =        -0.05098505
  eigenvalues    EBANDS =      -260.79856161
  atomic energy  EATOM  =     20168.87094289
  ---------------------------------------------------
  free energy    TOTEN  =       -15.84365414 eV

  energy without entropy =      -15.79266909  energy(sigma->0) =      -15.81816161


--------------------------------------------------------------------------------------------------------




--------------------------------------- Iteration      1(   8)  ---------------------------------------


    POTLOK:  cpu time    0.0434: real time    0.0434
    SETDIJ:  cpu time    0.0126: real time    0.0126
    TRIAL :  cpu time   11.6350: real time   11.6415
    CORREC:  cpu time    3.9883: real time    3.9898
    CHARGE:  cpu time    0.3654: real time    0.3655
    --------------------------------------------
      LOOP:  cpu time   16.0491: real time   16.0574

 eigenvalue-minimisations  :     0
 total energy-change (2. order) :-0.7988876E+02  (-0.4551808E+02)
 number of electron     258.0000021 magnetization       6.0000005
 augmentation part       72.4843941 magnetization       4.3291946

 Free energy of the ion-electron system (eV)
  ---------------------------------------------------
  alpha Z        PSCENC =       861.64959188
  Ewald energy   TEWEN  =    -15741.49428917
  -Hartree energ DENC   =     -5506.53008331
  -exchange      EXHF   =         0.00000000
  -V(xc)+E(xc)   XCENC  =       870.68110864
  PAW double counting   =     24776.59904168   -25127.99597935
  entropy T*S    EENTRO =        -0.04754338
  eigenvalues    EBANDS =      -397.46175867
  atomic energy  EATOM  =     20168.87094289
  ---------------------------------------------------
  free energy    TOTEN  =       -95.73241047 eV

  energy without entropy =      -95.68486709  energy(sigma->0) =      -95.70863878


--------------------------------------------------------------------------------------------------------




--------------------------------------- Iteration      1(   9)  ---------------------------------------


    POTLOK:  cpu time    0.0433: real time    0.0433
    SETDIJ:  cpu time    0.0125: real time    0.0125
    TRIAL :  cpu time   11.6310: real time   11.6574
    CORREC:  cpu time    3.9792: real time    3.9810
    CHARGE:  cpu time    0.3609: real time    0.3611
    --------------------------------------------
      LOOP:  cpu time   16.0313: real time   16.0597

 eigenvalue-minimisations  :     0
 total energy-change (2. order) :-0.3698908E+02  (-0.4670906E+02)
 number of electron     258.0000024 magnetization       6.0000003
 augmentation part       75.0162399 magnetization       4.2793512

 Free energy of the ion-electron system (eV)
  ---------------------------------------------------
  alpha Z        PSCENC =       861.64959188
  Ewald energy   TEWEN  =    -15741.49428917
  -Hartree energ DENC   =     -5492.14385720
  -exchange      EXHF   =         0.00000000
  -V(xc)+E(xc)   XCENC  =       868.84332383
  PAW double counting   =     24838.58965331   -25216.28675921
  entropy T*S    EENTRO =        -0.03166613
  eigenvalues    EBANDS =      -420.70255380
  atomic energy  EATOM  =     20168.87094289
  ---------------------------------------------------
  free energy    TOTEN  =      -132.72149084 eV

  energy without entropy =     -132.68982471  energy(sigma->0) =     -132.70565778


--------------------------------------------------------------------------------------------------------




--------------------------------------- Iteration      1(  10)  ---------------------------------------


    POTLOK:  cpu time    0.0431: real time    0.0431
    SETDIJ:  cpu time    0.0124: real time    0.0124
    TRIAL :  cpu time   11.6086: real time   11.6117
    CORREC:  cpu time    3.9990: real time    4.0004
    CHARGE:  cpu time    0.3714: real time    0.3715
    --------------------------------------------
      LOOP:  cpu time   16.0388: real time   16.0434

 eigenvalue-minimisations  :     0
 total energy-change (2. order) :-0.3629304E+02  (-0.5133259E+02)
 number of electron     258.0000023 magnetization       6.0000004
 augmentation part       77.4379484 magnetization       4.0598213

 Free energy of the ion-electron system (eV)
  ---------------------------------------------------
  alpha Z        PSCENC =       861.64959188
  Ewald energy   TEWEN  =    -15741.49428917
  -Hartree energ DENC   =     -5559.20690060
  -exchange      EXHF   =         0.00000000
  -V(xc)+E(xc)   XCENC  =       862.69837478
  PAW double counting   =     25352.84172831   -25840.63310571
  entropy T*S    EENTRO =        -0.02646050
  eigenvalues    EBANDS =      -273.70920613
  atomic energy  EATOM  =     20168.87094289
  ---------------------------------------------------
  free energy    TOTEN  =      -169.01452989 eV

  energy without entropy =     -168.98806938  energy(sigma->0) =     -169.00129964


--------------------------------------------------------------------------------------------------------




--------------------------------------- Iteration      1(  11)  ---------------------------------------


    POTLOK:  cpu time    0.0466: real time    0.0466
    SETDIJ:  cpu time    0.0128: real time    0.0128
    TRIAL :  cpu time   11.6887: real time   11.6917
    CORREC:  cpu time    3.9812: real time    3.9826
    CHARGE:  cpu time    0.3512: real time    0.3512
    --------------------------------------------
      LOOP:  cpu time   16.0850: real time   16.0895

 eigenvalue-minimisations  :     0
 total energy-change (2. order) :-0.2082721E+02  (-0.1761785E+02)
 number of electron     258.0000022 magnetization       6.0000005
 augmentation part       77.2921537 magnetization       4.0198527

 Free energy of the ion-electron system (eV)
  ---------------------------------------------------
  alpha Z        PSCENC =       861.64959188
  Ewald energy   TEWEN  =    -15741.49428917
  -Hartree energ DENC   =     -5700.56781333
  -exchange      EXHF   =         0.00000000
  -V(xc)+E(xc)   XCENC  =       857.73212017
  PAW double counting   =     25759.70513306   -26350.73898902
  entropy T*S    EENTRO =        -0.02430058
  eigenvalues    EBANDS =       -44.97197731
  atomic energy  EATOM  =     20168.87094289
  ---------------------------------------------------
  free energy    TOTEN  =      -189.84174133 eV

  energy without entropy =     -189.81744075  energy(sigma->0) =     -189.82959104


--------------------------------------------------------------------------------------------------------




--------------------------------------- Iteration      1(  12)  ---------------------------------------


    POTLOK:  cpu time    0.0419: real time    0.0419
    SETDIJ:  cpu time    0.0125: real time    0.0125
    TRIAL :  cpu time   11.5908: real time   11.5979
    CORREC:  cpu time    4.0006: real time    4.0209
    CHARGE:  cpu time    0.3495: real time    0.3495
    --------------------------------------------
      LOOP:  cpu time   15.9994: real time   16.0269

 eigenvalue-minimisations  :     0
 total energy-change (2. order) :-0.8483730E+01  (-0.1208491E+02)
 number of electron     258.0000023 magnetization       6.0000003
 augmentation part       76.1735469 magnetization       3.9935888

 Free energy of the ion-electron system (eV)
  ---------------------------------------------------
  alpha Z        PSCENC =       861.64959188
  Ewald energy   TEWEN  =    -15741.49428917
  -Hartree energ DENC   =     -5727.62631290
  -exchange      EXHF   =         0.00000000
  -V(xc)+E(xc)   XCENC  =       856.50806488
  PAW double counting   =     25591.93083400   -26169.64483712
  entropy T*S    EENTRO =        -0.01802310
  eigenvalues    EBANDS =       -38.49516502
  atomic energy  EATOM  =     20168.87094289
  ---------------------------------------------------
  free energy    TOTEN  =      -198.32547115 eV

  energy without entropy =     -198.30744805  energy(sigma->0) =     -198.31645960


--------------------------------------------------------------------------------------------------------




--------------------------------------- Iteration      1(  13)  ---------------------------------------


    POTLOK:  cpu time    0.0461: real time    0.0461
    SETDIJ:  cpu time    0.0125: real time    0.0125
    TRIAL :  cpu time   11.7420: real time   11.7453
    CORREC:  cpu time    3.9684: real time    3.9700
    CHARGE:  cpu time    0.3485: real time    0.3485
    --------------------------------------------
      LOOP:  cpu time   16.1216: real time   16.1266

 eigenvalue-minimisations  :     0
 total energy-change (2. order) :-0.8971603E+01  (-0.9408552E+01)
 number of electron     258.0000021 magnetization       6.0000004
 augmentation part       75.0305670 magnetization       3.9873838

 Free energy of the ion-electron system (eV)
  ---------------------------------------------------
  alpha Z        PSCENC =       861.64959188
  Ewald energy   TEWEN  =    -15741.49428917
  -Hartree energ DENC   =     -5656.36792897
  -exchange      EXHF   =         0.00000000
  -V(xc)+E(xc)   XCENC  =       856.62035419
  PAW double counting   =     25240.13396929   -25759.19883830
  entropy T*S    EENTRO =        -0.01794362
  eigenvalues    EBANDS =      -177.49285282
  atomic energy  EATOM  =     20168.87094289
  ---------------------------------------------------
  free energy    TOTEN  =      -207.29707411 eV

  energy without entropy =     -207.27913050  energy(sigma->0) =     -207.28810231


--------------------------------------------------------------------------------------------------------




--------------------------------------- Iteration      1(  14)  ---------------------------------------


    POTLOK:  cpu time    0.0417: real time    0.0417
    SETDIJ:  cpu time    0.0123: real time    0.0123
    TRIAL :  cpu time   11.5633: real time   11.5753
    CORREC:  cpu time    3.9615: real time    3.9629
    CHARGE:  cpu time    0.3492: real time    0.3492
    --------------------------------------------
      LOOP:  cpu time   15.9321: real time   15.9457

 eigenvalue-minimisations  :     0
 total energy-change (2. order) :-0.8146662E+01  (-0.1340433E+01)
 number of electron     258.0000021 magnetization       6.0000005
 augmentation part       75.1871864 magnetization       3.9511168

 Free energy of the ion-electron system (eV)
  ---------------------------------------------------
  alpha Z        PSCENC =       861.64959188
  Ewald energy   TEWEN  =    -15741.49428917
  -Hartree energ DENC   =     -5633.85368996
  -exchange      EXHF   =         0.00000000
  -V(xc)+E(xc)   XCENC  =       856.96993551
  PAW double counting   =     24997.21352750   -25457.18349344
  entropy T*S    EENTRO =        -0.01778103
  eigenvalues    EBANDS =      -267.59831788
  atomic energy  EATOM  =     20168.87094289
  ---------------------------------------------------
  free energy    TOTEN  =      -215.44373628 eV

  energy without entropy =     -215.42595525  energy(sigma->0) =     -215.43484576


--------------------------------------------------------------------------------------------------------




--------------------------------------- Iteration      1(  15)  ---------------------------------------


    POTLOK:  cpu time    0.0421: real time    0.0421
    SETDIJ:  cpu time    0.0125: real time    0.0125
    TRIAL :  cpu time   11.7033: real time   11.7060
    CORREC:  cpu time    3.9678: real time    3.9725
    CHARGE:  cpu time    0.3414: real time    0.3414
    --------------------------------------------
      LOOP:  cpu time   16.0712: real time   16.0786

 eigenvalue-minimisations  :     0
 total energy-change (2. order) :-0.1140183E+01  (-0.1287000E+01)
 number of electron     258.0000021 magnetization       6.0000005
 augmentation part       75.8637521 magnetization       3.8681084

 Free energy of the ion-electron system (eV)
  ---------------------------------------------------
  alpha Z        PSCENC =       861.64959188
  Ewald energy   TEWEN  =    -15741.49428917
  -Hartree energ DENC   =     -5649.07683766
  -exchange      EXHF   =         0.00000000
  -V(xc)+E(xc)   XCENC  =       857.54374540
  PAW double counting   =     24981.95562129   -25442.15338903
  entropy T*S    EENTRO =        -0.01625923
  eigenvalues    EBANDS =      -253.86152397
  atomic energy  EATOM  =     20168.87094289
  ---------------------------------------------------
  free energy    TOTEN  =      -216.58391940 eV

  energy without entropy =     -216.56766017  energy(sigma->0) =     -216.57578978


--------------------------------------------------------------------------------------------------------




--------------------------------------- Iteration      1(  16)  ---------------------------------------


    POTLOK:  cpu time    0.0422: real time    0.0422
    SETDIJ:  cpu time    0.0123: real time    0.0123
    TRIAL :  cpu time   11.5680: real time   11.5923
    CORREC:  cpu time    4.1818: real time    4.1845
    CHARGE:  cpu time    0.3468: real time    0.3468
    --------------------------------------------
      LOOP:  cpu time   16.1554: real time   16.1824

 eigenvalue-minimisations  :     0
 total energy-change (2. order) :-0.1290793E+01  (-0.4476393E+00)
 number of electron     258.0000021 magnetization       6.0000005
 augmentation part       76.0525943 magnetization       3.8280186

 Free energy of the ion-electron system (eV)
  ---------------------------------------------------
  alpha Z        PSCENC =       861.64959188
  Ewald energy   TEWEN  =    -15741.49428917
  -Hartree energ DENC   =     -5684.86405668
  -exchange      EXHF   =         0.00000000
  -V(xc)+E(xc)   XCENC  =       858.79916986
  PAW double counting   =     24982.29365557   -25457.39598441
  entropy T*S    EENTRO =        -0.01699339
  eigenvalues    EBANDS =      -205.71748281
  atomic energy  EATOM  =     20168.87094289
  ---------------------------------------------------
  free energy    TOTEN  =      -217.87471210 eV

  energy without entropy =     -217.85771872  energy(sigma->0) =     -217.86621541


--------------------------------------------------------------------------------------------------------




--------------------------------------- Iteration      1(  17)  ---------------------------------------


    POTLOK:  cpu time    0.0421: real time    0.0421
    SETDIJ:  cpu time    0.0124: real time    0.0124
    TRIAL :  cpu time   11.4850: real time   11.4885
    CORREC:  cpu time    4.0989: real time    4.1001
    CHARGE:  cpu time    0.3366: real time    0.3367
    --------------------------------------------
      LOOP:  cpu time   15.9797: real time   15.9845

 eigenvalue-minimisations  :     0
 total energy-change (2. order) :-0.4383297E+00  (-0.3772093E+00)
 number of electron     258.0000021 magnetization       6.0000005
 augmentation part       76.1307047 magnetization       3.7792428

 Free energy of the ion-electron system (eV)
  ---------------------------------------------------
  alpha Z        PSCENC =       861.64959188
  Ewald energy   TEWEN  =    -15741.49428917
  -Hartree energ DENC   =     -5697.74813775
  -exchange      EXHF   =         0.00000000
  -V(xc)+E(xc)   XCENC  =       859.31198200
  PAW double counting   =     24944.39812166   -25420.21824512
  entropy T*S    EENTRO =        -0.01492356
  eigenvalues    EBANDS =      -193.06601477
  atomic energy  EATOM  =     20168.87094289
  ---------------------------------------------------
  free energy    TOTEN  =      -218.31304177 eV

  energy without entropy =     -218.29811821  energy(sigma->0) =     -218.30557999


--------------------------------------------------------------------------------------------------------




--------------------------------------- Iteration      1(  18)  ---------------------------------------


    POTLOK:  cpu time    0.0420: real time    0.0420
    SETDIJ:  cpu time    0.0125: real time    0.0125
    TRIAL :  cpu time   11.4292: real time   11.4326
    CORREC:  cpu time    4.2054: real time    4.2070
    CHARGE:  cpu time    0.3357: real time    0.3357
    --------------------------------------------
      LOOP:  cpu time   16.0291: real time   16.0340

 eigenvalue-minimisations  :     0
 total energy-change (2. order) :-0.3616884E+00  (-0.2077879E+00)
 number of electron     258.0000021 magnetization       6.0000005
 augmentation part       76.1365247 magnetization       3.7472498

 Free energy of the ion-electron system (eV)
  ---------------------------------------------------
  alpha Z        PSCENC =       861.64959188
  Ewald energy   TEWEN  =    -15741.49428917
  -Hartree energ DENC   =     -5700.51514210
  -exchange      EXHF   =         0.00000000
  -V(xc)+E(xc)   XCENC  =       859.66752868
  PAW double counting   =     24886.52818711   -25358.20900958
  entropy T*S    EENTRO =        -0.01513374
  eigenvalues    EBANDS =      -195.15761627
  atomic energy  EATOM  =     20168.87094289
  ---------------------------------------------------
  free energy    TOTEN  =      -218.67473013 eV

  energy without entropy =     -218.65959639  energy(sigma->0) =     -218.66716326


--------------------------------------------------------------------------------------------------------




--------------------------------------- Iteration      1(  19)  ---------------------------------------


    POTLOK:  cpu time    0.0444: real time    0.0444
    SETDIJ:  cpu time    0.0124: real time    0.0124
    TRIAL :  cpu time   11.4549: real time   11.4799
    CORREC:  cpu time    4.1031: real time    4.1052
    CHARGE:  cpu time    0.3405: real time    0.3405
    --------------------------------------------
      LOOP:  cpu time   15.9597: real time   15.9868

 eigenvalue-minimisations  :     0
 total energy-change (2. order) :-0.2032627E+00  (-0.1150500E+00)
 number of electron     258.0000021 magnetization       6.0000005
 augmentation part       76.1734764 magnetization       3.7130116

 Free energy of the ion-electron system (eV)
  ---------------------------------------------------
  alpha Z        PSCENC =       861.64959188
  Ewald energy   TEWEN  =    -15741.49428917
  -Hartree energ DENC   =     -5702.10314407
  -exchange      EXHF   =         0.00000000
  -V(xc)+E(xc)   XCENC  =       859.73121372
  PAW double counting   =     24849.09884712   -25316.67199782
  entropy T*S    EENTRO =        -0.01412988
  eigenvalues    EBANDS =      -197.94402360
  atomic energy  EATOM  =     20168.87094289
  ---------------------------------------------------
  free energy    TOTEN  =      -218.87799279 eV

  energy without entropy =     -218.86386291  energy(sigma->0) =     -218.87092785


--------------------------------------------------------------------------------------------------------




--------------------------------------- Iteration      1(  20)  ---------------------------------------


    POTLOK:  cpu time    0.0427: real time    0.0427
    SETDIJ:  cpu time    0.0132: real time    0.0132
    TRIAL :  cpu time   11.5426: real time   11.5718
    CORREC:  cpu time    4.1286: real time    4.1299
    CHARGE:  cpu time    0.3401: real time    0.3401
    --------------------------------------------
      LOOP:  cpu time   16.0720: real time   16.1024

 eigenvalue-minimisations  :     0
 total energy-change (2. order) :-0.1157151E+00  (-0.6881632E-01)
 number of electron     258.0000021 magnetization       6.0000005
 augmentation part       76.1883787 magnetization       3.6980529

 Free energy of the ion-electron system (eV)
  ---------------------------------------------------
  alpha Z        PSCENC =       861.64959188
  Ewald energy   TEWEN  =    -15741.49428917
  -Hartree energ DENC   =     -5700.98151668
  -exchange      EXHF   =         0.00000000
  -V(xc)+E(xc)   XCENC  =       859.60270478
  PAW double counting   =     24842.98650771   -25309.73624522
  entropy T*S    EENTRO =        -0.01402321
  eigenvalues    EBANDS =      -199.87727420
  atomic energy  EATOM  =     20168.87094289
  ---------------------------------------------------
  free energy    TOTEN  =      -218.99370789 eV

  energy without entropy =     -218.97968468  energy(sigma->0) =     -218.98669628


--------------------------------------------------------------------------------------------------------




--------------------------------------- Iteration      1(  21)  ---------------------------------------


    POTLOK:  cpu time    0.0424: real time    0.0424
    SETDIJ:  cpu time    0.0125: real time    0.0125
    TRIAL :  cpu time   11.6528: real time   11.6564
    CORREC:  cpu time    3.9945: real time    3.9971
    CHARGE:  cpu time    0.3390: real time    0.3391
    --------------------------------------------
      LOOP:  cpu time   16.0460: real time   16.0522

 eigenvalue-minimisations  :     0
 total energy-change (2. order) :-0.6925835E-01  (-0.1004870E+00)
 number of electron     258.0000021 magnetization       6.0000005
 augmentation part       76.1679458 magnetization       3.6972775

 Free energy of the ion-electron system (eV)
  ---------------------------------------------------
  alpha Z        PSCENC =       861.64959188
  Ewald energy   TEWEN  =    -15741.49428917
  -Hartree energ DENC   =     -5703.53574052
  -exchange      EXHF   =         0.00000000
  -V(xc)+E(xc)   XCENC  =       859.52144952
  PAW double counting   =     24843.12802470   -25309.55285467
  entropy T*S    EENTRO =        -0.01345225
  eigenvalues    EBANDS =      -197.63606765
  atomic energy  EATOM  =     20168.87094289
  ---------------------------------------------------
  free energy    TOTEN  =      -219.06296624 eV

  energy without entropy =     -219.04951399  energy(sigma->0) =     -219.05624011


--------------------------------------------------------------------------------------------------------




--------------------------------------- Iteration      1(  22)  ---------------------------------------


    POTLOK:  cpu time    0.0431: real time    0.0431
    SETDIJ:  cpu time    0.0125: real time    0.0125
    TRIAL :  cpu time   11.7553: real time   11.7592
    CORREC:  cpu time    4.0218: real time    4.0239
    CHARGE:  cpu time    0.3417: real time    0.3418
    --------------------------------------------
      LOOP:  cpu time   16.1792: real time   16.1854

 eigenvalue-minimisations  :     0
 total energy-change (2. order) :-0.1000582E+00  (-0.1377725E+00)
 number of electron     258.0000020 magnetization       6.0000006
 augmentation part       76.1230127 magnetization       3.7251786

 Free energy of the ion-electron system (eV)
  ---------------------------------------------------
  alpha Z        PSCENC =       861.64959188
  Ewald energy   TEWEN  =    -15741.49428917
  -Hartree energ DENC   =     -5701.47533760
  -exchange      EXHF   =         0.00000000
  -V(xc)+E(xc)   XCENC  =       859.50016934
  PAW double counting   =     24838.65018251   -25303.99225789
  entropy T*S    EENTRO =        -0.01295673
  eigenvalues    EBANDS =      -200.85857411
  atomic energy  EATOM  =     20168.87094289
  ---------------------------------------------------
  free energy    TOTEN  =      -219.16302440 eV

  energy without entropy =     -219.15006766  energy(sigma->0) =     -219.15654603


--------------------------------------------------------------------------------------------------------




--------------------------------------- Iteration      1(  23)  ---------------------------------------


    POTLOK:  cpu time    0.0421: real time    0.0421
    SETDIJ:  cpu time    0.0126: real time    0.0126
    TRIAL :  cpu time   11.5120: real time   11.5211
    CORREC:  cpu time    4.0023: real time    4.0035
    CHARGE:  cpu time    0.3347: real time    0.3348
    --------------------------------------------
      LOOP:  cpu time   15.9084: real time   15.9187

 eigenvalue-minimisations  :     0
 total energy-change (2. order) :-0.1417730E+00  (-0.1426227E+00)
 number of electron     258.0000021 magnetization       6.0000006
 augmentation part       76.1391449 magnetization       3.7579509

 Free energy of the ion-electron system (eV)
  ---------------------------------------------------
  alpha Z        PSCENC =       861.64959188
  Ewald energy   TEWEN  =    -15741.49428917
  -Hartree energ DENC   =     -5700.85384909
  -exchange      EXHF   =         0.00000000
  -V(xc)+E(xc)   XCENC  =       859.58566897
  PAW double counting   =     24822.84274658   -25286.97364775
  entropy T*S    EENTRO =        -0.01059982
  eigenvalues    EBANDS =      -202.91900502
  atomic energy  EATOM  =     20168.87094289
  ---------------------------------------------------
  free energy    TOTEN  =      -219.30479744 eV

  energy without entropy =     -219.29419762  energy(sigma->0) =     -219.29949753


--------------------------------------------------------------------------------------------------------




--------------------------------------- Iteration      1(  24)  ---------------------------------------


    POTLOK:  cpu time    0.0433: real time    0.0433
    SETDIJ:  cpu time    0.0126: real time    0.0126
    TRIAL :  cpu time   11.6662: real time   11.7001
    CORREC:  cpu time    3.9718: real time    3.9737
    CHARGE:  cpu time    0.3483: real time    0.3484
    --------------------------------------------
      LOOP:  cpu time   16.0466: real time   16.0825

 eigenvalue-minimisations  :     0
 total energy-change (2. order) :-0.1421893E+00  (-0.1159483E+00)
 number of electron     258.0000022 magnetization       6.0000005
 augmentation part       76.1528216 magnetization       3.7998047

 Free energy of the ion-electron system (eV)
  ---------------------------------------------------
  alpha Z        PSCENC =       861.64959188
  Ewald energy   TEWEN  =    -15741.49428917
  -Hartree energ DENC   =     -5702.31347987
  -exchange      EXHF   =         0.00000000
  -V(xc)+E(xc)   XCENC  =       859.70060273
  PAW double counting   =     24805.34520494   -25271.17520353
  entropy T*S    EENTRO =        -0.01108860
  eigenvalues    EBANDS =      -200.01975682
  atomic energy  EATOM  =     20168.87094289
  ---------------------------------------------------
  free energy    TOTEN  =      -219.44698677 eV

  energy without entropy =     -219.43589817  energy(sigma->0) =     -219.44144247


--------------------------------------------------------------------------------------------------------




--------------------------------------- Iteration      1(  25)  ---------------------------------------


    POTLOK:  cpu time    0.0419: real time    0.0419
    SETDIJ:  cpu time    0.0125: real time    0.0125
    TRIAL :  cpu time   11.6108: real time   11.6135
    CORREC:  cpu time    3.9869: real time    3.9888
    CHARGE:  cpu time    0.3489: real time    0.3490
    --------------------------------------------
      LOOP:  cpu time   16.0055: real time   16.0102

 eigenvalue-minimisations  :     0
[...]
   20        1.576   3.461   0.000   5.036
   21        1.586   3.372   0.000   4.958
   22        1.575   3.456   0.000   5.031
   23        1.581   3.422   0.000   5.003
   24        1.580   3.449   0.000   5.029
   25        1.578   3.457   0.000   5.035
   26        1.592   3.366   0.000   4.958
   27        1.562   3.477   0.000   5.039
   28        1.560   3.514   0.000   5.075
   29        1.562   3.486   0.000   5.048
   30        1.562   3.487   0.000   5.049
   31        1.588   3.382   0.000   4.970
   32        1.574   3.410   0.000   4.983
   33        1.572   3.455   0.000   5.027
   34        1.580   3.416   0.000   4.996
   35        1.586   3.374   0.000   4.960
   36        1.577   3.427   0.000   5.003
   37        1.572   3.449   0.000   5.022
   38        1.573   3.514   0.000   5.088
   39        1.556   3.525   0.000   5.081
   40        1.557   3.507   0.000   5.064
   41        1.556   3.514   0.000   5.070
   42        1.555   3.551   0.000   5.106
--------------------------------------------------
tot         44.185  93.884  88.483 226.552
 


 magnetization (x)
 
# of ion       s       p       d       tot
------------------------------------------
    1        0.001   0.000   0.000   0.001
    2        0.001   0.000   0.000   0.001
    3        0.000  -0.000   0.000   0.000
    4        0.000  -0.001   0.000  -0.001
    5        0.001  -0.001   0.000  -0.000
    6        0.000   0.000   0.000   0.001
    7        0.004   0.007   0.010   0.022
    8        0.013   0.017   1.340   1.371
    9        0.010   0.015   1.145   1.170
   10        0.012   0.017   1.203   1.231
   11        0.012   0.014   1.549   1.575
   12        0.004   0.006  -0.009   0.001
   13        0.002   0.003  -0.008  -0.002
   14        0.009   0.013   1.204   1.226
   15        0.001   0.002  -0.026  -0.023
   16        0.010   0.006   1.254   1.270
   17        0.001   0.001  -0.037  -0.035
   18        0.002   0.002  -0.038  -0.034
   19        0.001  -0.063   0.000  -0.062
   20        0.001  -0.064   0.000  -0.063
   21        0.001  -0.130   0.000  -0.129
   22        0.001  -0.062   0.000  -0.061
   23        0.000  -0.120   0.000  -0.120
   24        0.001  -0.083   0.000  -0.082
   25        0.001  -0.077   0.000  -0.077
   26        0.002  -0.142   0.000  -0.140
   27        0.001  -0.052   0.000  -0.051
   28        0.000  -0.019   0.000  -0.018
   29        0.001  -0.029   0.000  -0.028
   30        0.003  -0.036   0.000  -0.033
   31        0.002  -0.119   0.000  -0.117
   32        0.000  -0.069   0.000  -0.069
   33        0.000  -0.052   0.000  -0.052
   34        0.001  -0.110   0.000  -0.109
   35       -0.000  -0.128   0.000  -0.128
   36       -0.000  -0.074   0.000  -0.074
   37       -0.002  -0.049   0.000  -0.051
   38        0.000  -0.042   0.000  -0.042
   39       -0.001  -0.012   0.000  -0.013
   40        0.000  -0.020   0.000  -0.020
   41        0.001  -0.020   0.000  -0.019
   42        0.001  -0.015   0.000  -0.015
--------------------------------------------------
tot          0.100  -1.489   7.587   6.197
 
    FORLOC:  cpu time    0.0069: real time    0.0069
    FORNL :  cpu time    3.7090: real time    3.7143
    STRESS:  cpu time   11.1269: real time   11.1609
    FORCOR:  cpu time    0.0459: real time    0.0459
    OFIELD:  cpu time    0.0003: real time    0.0003

  DFT-D2 method for vdW energy calculation
  -------------------------------------------------------------------

  Parameters of vdW forcefield:
         C6(Jnm^6/mol)     R0(A)
   -----------------------------
   Li       1.610          0.825
   Co      10.800          1.562
   O        0.700          1.342

  IVDW =   1
  VDW_RADIUS =    50.000 A
  VDW_S6 =     0.750
  VDW_SR =     1.000
  VDW_D =    20.000
  LVDW_EWALD = F

  Number of pair interactions contributing to vdW energy: 1387939
  Edisp (eV):  -11.44758
    FORVDW:  cpu time    0.1945: real time    0.1957

  FORCE on cell =-STRESS in cart. coord.  units (eV):
  Direction    XX          YY          ZZ          XY          YZ          ZX
  --------------------------------------------------------------------------------------
  Alpha Z   861.64959   861.64959   861.64959
  Ewald   -3070.74421 -3224.73453 -9446.09458    57.06364    86.98070    53.09936
  Hartree  3374.24643  3316.23514  -996.56408    23.83107    29.63689    23.10603
  E(xc)   -1293.60330 -1293.74556 -1294.07633     0.05077     0.03942    -0.04386
  Local   -5357.34876 -5160.01797  5321.75817   -77.46133  -109.38489   -76.42873
  n-local  -576.09059  -582.65395  -591.61492     1.81062     3.19845     1.55754
  augment  2012.15257  2020.55927  2002.23940    -1.63771    -3.55774     0.21841
  Kinetic  4090.09665  4097.93490  4192.68519    -1.59201    -1.34523     1.55794
  Fock        0.00000     0.00000     0.00000     0.00000     0.00000     0.00000
  vdW        -7.82684    -7.89145   -15.24919     0.14089     0.01225    -0.09518
  -------------------------------------------------------------------------------------
  Total      32.53153    27.33544    34.73326     2.20595     5.57983     2.97151
  in kB     153.19025   128.72195   163.55811    10.38775    26.27529    13.99277
  external pressure =      148.49 kB  Pullay stress =        0.00 kB


 VOLUME and BASIS-vectors are now :
 -----------------------------------------------------------------------------
  energy-cutoff  :      600.00
  volume of cell :      340.24
      direct lattice vectors                 reciprocal lattice vectors
     5.550024033  0.000000000  0.000000000     0.180179400  0.103883863 -0.001196409
    -2.783871651  4.828433514  0.000000000     0.000000000  0.207106507 -0.000222046
     0.076457493  0.013612328 12.696467400     0.000000000  0.000000000  0.078762066

  length of vectors
     5.550024033  5.573482893 12.696704906     0.207985347  0.207106626  0.078762066


 FORCES acting on ions:
    Electron-Ion                     Ewald-Force                    Non-Local-Force
 -----------------------------------------------------------------------------------------------
   0.380E+01 0.111E+01 0.278E+01   -.368E+01 -.924E+00 -.292E+01   -.894E+00 -.109E+00 -.204E+00
   0.386E+01 -.485E+01 -.703E+01   -.338E+01 0.448E+01 0.707E+01   -.864E+00 0.105E+01 -.347E+00
   0.393E+01 0.223E+01 0.321E+00   -.380E+01 -.232E+01 -.316E+00   -.411E+00 -.593E+00 0.602E+00
   -.129E+01 0.178E+01 0.172E+02   0.110E+01 -.159E+01 -.164E+02   0.594E-01 -.160E+00 -.107E+01
   -.378E+01 0.155E+00 0.152E+02   0.376E+01 -.322E+00 -.148E+02   0.279E+00 -.609E-02 -.551E+00
   0.145E+01 -.225E+01 0.226E+02   -.119E+01 0.246E+01 -.224E+02   -.300E+00 0.348E+00 -.108E+01
   -.188E+02 0.180E+02 -.991E+02   0.199E+02 -.195E+02 0.990E+02   0.189E+00 -.163E+00 0.847E+00
   0.119E+02 -.874E+01 -.118E+03   -.126E+02 0.104E+02 0.118E+03   -.274E+00 0.207E+00 0.610E-01
   0.696E+01 0.119E+01 -.105E+03   -.803E+01 -.159E+01 0.105E+03   -.233E+00 0.822E-01 -.182E+00
   0.213E+02 -.175E+02 -.131E+03   -.224E+02 0.183E+02 0.131E+03   -.573E+00 0.237E+00 -.429E+00
   -.444E+02 -.294E+00 0.167E+02   0.451E+02 0.240E+00 -.179E+02   -.156E+00 -.869E-01 0.501E+00
   0.252E+02 -.112E+02 -.597E+02   -.253E+02 0.119E+02 0.574E+02   -.186E+00 -.734E-01 0.173E+01
   0.702E+02 -.165E+00 -.107E+02   -.717E+02 -.183E+00 0.889E+01   -.113E+01 -.528E+00 0.322E+01
   -.443E+02 0.150E+02 0.922E+01   0.457E+02 -.154E+02 -.106E+02   0.514E+00 0.195E+00 0.256E+00
   0.112E+02 -.133E+02 0.107E+03   -.117E+02 0.129E+02 -.103E+03   0.109E+00 0.175E+00 -.478E+00
   0.933E+01 0.581E+01 0.136E+03   -.110E+02 -.668E+01 -.135E+03   0.380E+00 0.744E+00 -.139E+01
   0.821E+00 -.125E+02 0.160E+03   -.923E+00 0.141E+02 -.159E+03   -.870E+00 -.378E+00 -.258E+01
   -.172E+02 0.104E+02 0.745E+02   0.197E+02 -.108E+02 -.727E+02   -.132E+00 0.106E+00 -.374E+01
   -.276E+02 -.417E+02 -.336E+03   0.306E+02 0.493E+02 0.359E+03   -.190E+01 -.726E+01 -.216E+02
   -.363E+02 -.487E+01 -.348E+03   0.421E+02 0.234E+01 0.371E+03   -.472E+01 0.349E+01 -.233E+02
   0.668E+01 0.140E+02 -.350E+03   -.664E+01 -.143E+02 0.375E+03   0.422E+00 -.413E+00 -.253E+02
   0.369E+02 0.206E+02 -.351E+03   -.421E+02 -.247E+02 0.374E+03   0.467E+01 0.434E+01 -.214E+02
   0.406E+02 0.758E+01 0.185E+03   -.457E+02 -.668E+01 -.207E+03   0.428E+01 -.144E+01 0.214E+02
   -.232E+00 0.131E+02 0.195E+03   0.179E+01 -.166E+02 -.218E+03   -.188E+01 0.284E+01 0.240E+02
   -.288E+02 0.108E+02 0.198E+03   0.336E+02 -.109E+02 -.220E+03   -.408E+01 -.290E+00 0.223E+02
   -.109E+02 -.120E+02 0.208E+03   0.114E+02 0.117E+02 -.235E+03   0.413E+00 0.172E+00 0.270E+02
   -.356E+02 0.364E+02 -.238E+03   0.384E+02 -.395E+02 0.253E+03   -.184E+01 0.239E+01 -.153E+02
   0.251E+02 -.443E+02 -.268E+03   -.269E+02 0.498E+02 0.284E+03   0.125E+01 -.402E+01 -.146E+02
   0.257E+02 -.111E+01 -.271E+03   -.276E+02 -.479E+00 0.289E+03   0.873E+00 0.206E+01 -.179E+02
   -.174E+02 -.177E+01 -.257E+03   0.175E+02 0.338E+01 0.272E+03   0.255E+00 -.207E+01 -.140E+02
   0.110E+01 0.241E+02 0.271E+03   -.339E+01 -.256E+02 -.299E+03   0.218E+01 0.483E+00 0.271E+02
   -.188E+02 -.251E+02 0.222E+03   0.232E+02 0.265E+02 -.243E+03   -.399E+01 -.316E+00 0.225E+02
   0.190E+02 0.709E+01 0.230E+03   -.195E+02 -.868E+01 -.252E+03   -.934E-01 0.184E+01 0.225E+02
   -.204E+01 0.373E+01 0.252E+03   0.154E+01 -.386E+01 -.277E+03   0.870E+00 -.569E+00 0.251E+02
   -.211E+02 0.553E+01 -.192E+03   0.242E+02 -.570E+01 0.218E+03   -.180E+01 0.443E+00 -.266E+02
   0.879E+01 -.932E+01 -.189E+03   -.111E+02 0.108E+02 0.212E+03   0.285E+01 -.122E+01 -.225E+02
   -.874E+00 -.326E+00 -.174E+03   0.992E-01 0.165E+01 0.196E+03   0.849E+00 -.127E+01 -.220E+02
   -.381E+01 -.107E+02 -.185E+03   0.580E+01 0.106E+02 0.208E+03   -.209E+01 0.649E+00 -.213E+02
   0.280E+02 0.839E+01 0.343E+03   -.288E+02 -.103E+02 -.357E+03   -.104E+01 0.194E+01 0.132E+02
   0.148E+02 0.210E+02 0.343E+03   -.186E+02 -.217E+02 -.356E+03   0.389E+01 -.551E+00 0.122E+02
   -.275E+02 0.379E+01 0.344E+03   0.292E+02 -.379E+01 -.358E+03   -.537E+00 -.691E+00 0.131E+02
   -.931E+01 -.114E+02 0.347E+03   0.114E+02 0.114E+02 -.360E+03   -.183E+01 0.456E+00 0.119E+02
 -----------------------------------------------------------------------------------------------
   0.743E+01 -.195E+01 0.837E+01   0.140E-12 -.139E-12 -.568E-13   -.751E+01 0.204E+01 -.840E+01
 
 
 POSITION                                       TOTAL-FORCE (eV/Angst)
 -----------------------------------------------------------------------------------
      0.09184      4.81695      0.05410        -0.635963      0.027821     -0.270408
      2.94263      3.06495      4.17019        -0.218997      0.479009     -0.226911
      0.03660      1.79016      8.46769        -0.164542     -0.558920      0.567203
     -1.38059      4.08473      8.54799        -0.113979      0.025210     -0.046008
      2.75342      1.70232      8.59264         0.245046     -0.156372     -0.054959
      1.44168      3.99796      8.73230         0.017230      0.425026     -0.672778
      0.01867      1.59826      1.97514         1.217096     -1.536412      0.741077
     -1.32589      3.91132      2.03048        -0.834701      1.827631     -0.011504
      2.84854      1.54724      2.02723        -1.235974     -0.300217     -0.396290
      1.47138      3.94830      2.06819        -1.396968      0.958225     -0.905134
      0.10009      0.08596      6.25859         0.442943     -0.219734     -0.538487
     -1.30862      2.46482      6.33791        -0.271201      0.571667     -0.420238
      2.93995      0.08955      6.19944        -2.276682     -0.776926      1.454555
      1.42976      2.50226      6.28699         1.577659     -0.191843     -0.844795
      1.36193      0.82346     10.67377        -0.279911     -0.309433      2.513193
     -0.05911      3.22845     10.72687        -1.233389     -0.100054      0.288182
      4.15804      0.80179     10.74327        -0.846667      1.146929     -1.653704
      2.68397      3.21802     10.86547         2.178537     -0.281499     -2.075213
      2.79091      4.73806      2.93379         1.046564      0.436112      0.748527
      4.15225      2.29345      2.99201         1.196745      0.952529      0.160649
      0.01735      4.80043      2.97803         0.459343     -0.769867      0.459102
      1.48468      2.34622      2.89837        -0.650842      0.151092      1.596074
      1.49589      0.74620      1.12290        -0.889713     -0.501701     -0.357350
      0.07846      3.23015      1.08286        -0.338840     -0.707276      0.161885
      4.17295      0.74865      1.09946         0.718787     -0.352720     -0.153895
      2.77511      3.15855      1.05486         0.917901     -0.109083      0.316894
      1.41405      0.95069      7.31333         1.024604     -0.799975     -0.446213
      0.11432      3.25449      7.25490        -0.498562      1.451198      0.872055
      4.32193      0.81489      7.31069        -1.016748      0.464495      0.042523
      2.79434      3.29778      7.30705         0.394028     -0.464146      0.260781
      0.08906      1.78493      5.35638        -0.094372     -1.040823     -0.642086
     -1.35414      4.01686      5.29898         0.510319      1.071368      0.717662
      2.87872      1.68927      5.34376        -0.601018      0.200488      0.228003
      1.49751      4.10770      5.30724         0.290847     -0.645725     -0.427242
     -0.10211      1.62495     11.67567         1.287306      0.254634     -0.211054
     -1.41324      4.04712     11.65467         0.461678      0.182444      0.380593
      2.73205      1.56782     11.69107         0.056814      0.128259     -0.311762
      1.28441      4.01494     11.58197        -0.050506      0.491141      1.740842
      2.82792      4.80108      9.75277        -1.850233      0.046381     -0.896721
      4.09946      2.51739      9.75287         0.095506     -1.248548     -0.387176
      2.70602      0.06296      9.65407         1.169790     -0.697601     -0.160332
      1.32619      2.42515      9.77227         0.191065      0.477215     -1.139541
 -----------------------------------------------------------------------------------
    total drift:                               -0.073519      0.087188     -0.032376


--------------------------------------------------------------------------------------------------------



  FREE ENERGIE OF THE ION-ELECTRON SYSTEM (eV)
  ---------------------------------------------------
  free  energy   TOTEN  =      -232.82407887 eV

  energy  without entropy=     -232.81611976  energy(sigma->0) =     -232.82009932
 


--------------------------------------------------------------------------------------------------------


    POTLOK:  cpu time    0.0581: real time    0.0581


--------------------------------------------------------------------------------------------------------


     LOOP+:  cpu time 2142.6585: real time 2147.8953
    4ORBIT:  cpu time    0.0000: real time    0.0000
 


 total charge     
 
# of ion       s       p       d       tot
------------------------------------------
    1        0.150   0.357   0.000   0.507
    2        0.126   0.288   0.000   0.414
    3        0.117   0.260   0.000   0.377
    4        0.116   0.257   0.000   0.374
    5        0.111   0.242   0.000   0.354
    6        0.116   0.260   0.000   0.376
    7        0.440   0.699   7.372   8.511
    8        0.478   0.776   7.268   8.521
    9        0.528   0.915   7.369   8.813
   10        0.510   0.859   7.334   8.704
   11        0.467   0.755   7.269   8.491
   12        0.462   0.747   7.466   8.675
   13        0.432   0.657   7.367   8.455
   14        0.500   0.840   7.320   8.660
   15        0.473   0.784   7.486   8.742
   16        0.497   0.820   7.335   8.652
   17        0.458   0.719   7.455   8.631
   18        0.465   0.748   7.442   8.655
   19        1.577   3.432   0.000   5.008
   20        1.576   3.461   0.000   5.036
   21        1.586   3.372   0.000   4.958
   22        1.575   3.456   0.000   5.031
   23        1.581   3.422   0.000   5.003
   24        1.580   3.449   0.000   5.029
   25        1.578   3.457   0.000   5.035
   26        1.592   3.366   0.000   4.958
   27        1.562   3.477   0.000   5.039
   28        1.560   3.514   0.000   5.075
   29        1.562   3.486   0.000   5.048
   30        1.562   3.487   0.000   5.049
   31        1.588   3.382   0.000   4.970
   32        1.574   3.410   0.000   4.983
   33        1.572   3.455   0.000   5.027
   34        1.580   3.416   0.000   4.996
   35        1.586   3.374   0.000   4.960
   36        1.577   3.427   0.000   5.003
   37        1.572   3.449   0.000   5.022
   38        1.573   3.514   0.000   5.088
   39        1.556   3.525   0.000   5.081
   40        1.557   3.507   0.000   5.064
   41        1.556   3.514   0.000   5.070
   42        1.555   3.551   0.000   5.106
--------------------------------------------------
tot         44.185  93.884  88.483 226.552
 


 magnetization (x)
 
# of ion       s       p       d       tot
------------------------------------------
    1        0.001   0.000   0.000   0.001
    2        0.001   0.000   0.000   0.001
    3        0.000  -0.000   0.000   0.000
    4        0.000  -0.001   0.000  -0.001
    5        0.001  -0.001   0.000  -0.000
    6        0.000   0.000   0.000   0.001
    7        0.004   0.007   0.010   0.022
    8        0.013   0.017   1.340   1.371
    9        0.010   0.015   1.145   1.170
   10        0.012   0.017   1.203   1.231
   11        0.012   0.014   1.549   1.575
   12        0.004   0.006  -0.009   0.001
   13        0.002   0.003  -0.008  -0.002
   14        0.009   0.013   1.204   1.226
   15        0.001   0.002  -0.026  -0.023
   16        0.010   0.006   1.254   1.270
   17        0.001   0.001  -0.037  -0.035
   18        0.002   0.002  -0.038  -0.034
   19        0.001  -0.063   0.000  -0.062
   20        0.001  -0.064   0.000  -0.063
   21        0.001  -0.130   0.000  -0.129
   22        0.001  -0.062   0.000  -0.061
   23        0.000  -0.120   0.000  -0.120
   24        0.001  -0.083   0.000  -0.082
   25        0.001  -0.077   0.000  -0.077
   26        0.002  -0.142   0.000  -0.140
   27        0.001  -0.052   0.000  -0.051
   28        0.000  -0.019   0.000  -0.018
   29        0.001  -0.029   0.000  -0.028
   30        0.003  -0.036   0.000  -0.033
   31        0.002  -0.119   0.000  -0.117
   32        0.000  -0.069   0.000  -0.069
   33        0.000  -0.052   0.000  -0.052
   34        0.001  -0.110   0.000  -0.109
   35       -0.000  -0.128   0.000  -0.128
   36       -0.000  -0.074   0.000  -0.074
   37       -0.002  -0.049   0.000  -0.051
   38        0.000  -0.042   0.000  -0.042
   39       -0.001  -0.012   0.000  -0.013
   40        0.000  -0.020   0.000  -0.020
   41        0.001  -0.020   0.000  -0.019
   42        0.001  -0.015   0.000  -0.015
--------------------------------------------------
tot          0.100  -1.489   7.587   6.197
 

 total amount of memory used by VASP MPI-rank0   143257. kBytes
=======================================================================

   base      :      30000. kBytes
   nonlr-proj:       4432. kBytes
   fftplans  :       1502. kBytes
   grid      :       4132. kBytes
   one-center:        342. kBytes
   wavefun   :     102849. kBytes
 
  
  
 General timing and accounting informations for this job:
 ========================================================
  
                  Total CPU time used (sec):     2166.505
                            User time (sec):     2005.280
                          System time (sec):      161.225
                         Elapsed time (sec):     2172.205
  
                   Maximum memory used (kb):      688368.
                   Average memory used (kb):           0.
  
                          Minor page faults:        66546
                          Major page faults:           67
                 Voluntary context switches:          568
