 running on   64 total cores
 distrk:  each k-point on   64 cores,    1 groups
 distr:  one band on    4 cores,   16 groups
 using from now: INCAR     
 vasp.5.4.4.18Apr17-6-g9f103f2a35 (build Nov 22 2021 14:44:17) complex          
  
 POSCAR found type information on POSCAR  Li Co O 
 POSCAR found :  3 types and      42 ions
 scaLAPACK will be used
 LDA part: xc-table for Pade appr. of Perdew
 generate k-points for:    6    6    2
 POSCAR, INCAR and KPOINTS ok, starting setup
 FFT: planning ...
 WAVECAR not read
 entering main loop
       N       E                     dE             d eps       ncg     rms          ort
DAV:   1     0.350867520289E+04    0.35087E+04   -0.13948E+05  5760   0.218E+03
DAV:   2     0.417923701476E+03   -0.30908E+04   -0.28468E+04  5760   0.532E+02
DAV:   3    -0.219207656902E+03   -0.63713E+03   -0.58445E+03  5760   0.256E+02
DAV:   4    -0.270272808605E+03   -0.51065E+02   -0.50016E+02  5760   0.747E+01
DAV:   5    -0.272061060388E+03   -0.17883E+01   -0.17847E+01  5760   0.140E+01
 gam= 0.000 g(H,U,f)=  0.185E+04 0.827E+03 0.303E+03 ort(H,U,f) = 0.000E+00 0.000E+00 0.000E+00
SDA:   6     0.155179014971E+03    0.42724E+03   -0.17847E+01  5760   0.298E+04 0.000E+00
 gam= 0.000 trial= 0.400  step= 0.053 mean= 0.400
 gam= 0.000 g(H,U,f)=  0.122E+04 0.812E+03 0.780E+03 ort(H,U,f) = 0.107E+04 0.436E+03 0.378E+02
CGA:   7     0.611658585515E+02   -0.94013E+02   -0.78753E+02  5760   0.281E+04 0.154E+04
 gam= 0.000 trial= 0.383  step= 0.025 mean= 0.383
 gam= 0.000 g(H,U,f)=  0.860E+03 0.107E+04 0.925E+03 ort(H,U,f) = 0.100E+04 0.186E+04 0.186E+04
CGA:   8    -0.339975056430E+02   -0.95163E+02   -0.34512E+02  5760   0.285E+04 0.472E+04
 gam= 0.000 trial= 0.365  step= 0.056 mean= 0.365
 gam= 0.000 g(H,U,f)=  0.610E+03 0.267E+04 0.584E+04 ort(H,U,f) = 0.529E+03-0.555E+03-0.224E+04
CGA:   9    -0.451250226848E+02   -0.11128E+02   -0.79336E+02  5760   0.912E+04-0.227E+04
 gam= 0.000 trial= 0.349  step= 0.085 mean= 0.349
 gam= 0.192 g(H,U,f)=  0.417E+03 0.789E+03 0.549E+03 ort(H,U,f) = 0.456E+02-0.179E+03-0.348E+03
CGA:  10    -0.676654932844E+02   -0.22540E+02   -0.38937E+03  5760   0.176E+04-0.482E+03
 gam= 0.192 trial= 0.336  step= 0.017 mean= 0.336
 gam= 0.431 g(H,U,f)=  0.343E+03 0.408E+03 0.598E+01 ort(H,U,f) = 0.388E+03 0.450E+03 0.104E+02
CGA:  11    -0.855478221037E+02   -0.17882E+02   -0.14240E+02  5760   0.757E+03 0.849E+03
 gam= 0.431 trial= 0.320  step= 0.006 mean= 0.320
 gam= 0.000 g(H,U,f)=  0.315E+03 0.436E+03 0.561E+01 ort(H,U,f) = 0.495E+03 0.649E+03 0.397E+01
CGA:  12    -0.914967952891E+02   -0.59490E+01   -0.32954E+01  5760   0.756E+03 0.115E+04
 gam= 0.000 trial= 0.304  step= 0.007 mean= 0.304
 gam= 0.000 g(H,U,f)=  0.289E+03 0.891E+03 0.165E+03 ort(H,U,f) = 0.304E+03 0.916E+03 0.170E+03
CGA:  13    -0.974399323288E+02   -0.59431E+01   -0.25298E+01  5760   0.134E+04 0.139E+04
 gam= 0.000 trial= 0.290  step= 0.011 mean= 0.290
 gam= 0.000 g(H,U,f)=  0.182E+03 0.147E+04 0.677E+03 ort(H,U,f) = 0.228E+03 0.205E+04 0.972E+03
CGA:  14    -0.139597043502E+03   -0.42157E+02   -0.77215E+01  5760   0.233E+04 0.325E+04
 gam= 0.000 trial= 0.276  step= 0.021 mean= 0.276
 gam= 0.152 g(H,U,f)=  0.824E+02 0.201E+03 0.710E+02 ort(H,U,f) = 0.107E+03 0.480E+03 0.327E+03
CGA:  15    -0.179184279368E+03   -0.39587E+02   -0.24952E+02  5760   0.355E+03 0.914E+03
 gam= 0.152 trial= 0.263  step= 0.084 mean= 0.263
 gam= 0.000 g(H,U,f)=  0.104E+03 0.166E+04 0.193E+04 ort(H,U,f) = 0.211E+02-0.416E+03-0.616E+03
CGA:  16    -0.161733458587E+03    0.17451E+02   -0.20629E+02  5760   0.370E+04-0.101E+04
 gam= 0.000 trial= 0.254  step= 0.040 mean= 0.254
 gam= 0.243 g(H,U,f)=  0.457E+02 0.544E+03 0.307E+03 ort(H,U,f) =-0.211E+02-0.764E+03-0.505E+03
CGA:  17    -0.189513967103E+03   -0.27781E+02   -0.73054E+02  5760   0.897E+03-0.129E+04
 gam= 0.243 trial= 0.243  step= 0.084 mean= 0.243
 gam= 0.913 g(H,U,f)=  0.251E+02 0.366E+03 0.427E+03 ort(H,U,f) = 0.197E+01-0.165E+03-0.256E+03
CGA:  18    -0.199151082242E+03   -0.96371E+01   -0.24561E+02  5760   0.819E+03-0.420E+03
 gam= 0.913 trial= 0.235  step= 0.103 mean= 0.235
 gam= 0.123 g(H,U,f)=  0.132E+02 0.514E+02 0.363E+02 ort(H,U,f) =-0.360E+01-0.279E+02-0.362E+02
CGA:  19    -0.212115512021E+03   -0.12964E+02   -0.22347E+02  5760   0.101E+03-0.677E+02
 gam= 0.123 trial= 0.229  step= 0.064 mean= 0.229
 gam= 0.512 g(H,U,f)=  0.104E+02 0.270E+02 0.143E+02 ort(H,U,f) = 0.805E+01-0.172E+02-0.133E+02
CGA:  20    -0.213459867828E+03   -0.13444E+01   -0.29748E+01  5760   0.517E+02-0.224E+02
 gam= 0.512 trial= 0.220  step= 0.109 mean= 0.220
 gam= 0.601 g(H,U,f)=  0.549E+01 0.174E+02 0.815E+01 ort(H,U,f) = 0.954E+01-0.506E+01-0.543E+01
CGA:  21    -0.215723182749E+03   -0.22633E+01   -0.21929E+01  5760   0.310E+02-0.950E+00
 gam= 0.601 trial= 0.215  step= 0.114 mean= 0.215
 gam= 0.891 g(H,U,f)=  0.268E+01 0.176E+02 0.735E+01 ort(H,U,f) = 0.570E+01-0.328E+01-0.393E+01
CGA:  22    -0.217229184576E+03   -0.15060E+01   -0.17405E+01  5760   0.277E+02-0.151E+01
 gam= 0.891 trial= 0.210  step= 0.130 mean= 0.210
 gam= 0.557 g(H,U,f)=  0.125E+01 0.990E+01 0.425E+01 ort(H,U,f) = 0.150E+01 0.731E+00-0.252E+01
CGA:  23    -0.218833957871E+03   -0.16048E+01   -0.17171E+01  5760   0.154E+02-0.295E+00
 gam= 0.557 trial= 0.206  step= 0.105 mean= 0.206
 gam= 0.494 g(H,U,f)=  0.846E+00 0.440E+01 0.235E+01 ort(H,U,f) = 0.324E+00 0.118E+01-0.179E+01
CGA:  24    -0.219569034346E+03   -0.73508E+00   -0.80143E+00  5760   0.760E+01-0.289E+00
 gam= 0.494 trial= 0.201  step= 0.138 mean= 0.201
 gam= 0.589 g(H,U,f)=  0.689E+00 0.242E+01 0.137E+01 ort(H,U,f) = 0.559E+00 0.349E+00-0.863E+00
CGA:  25    -0.220043800780E+03   -0.47477E+00   -0.51361E+00  5760   0.448E+01 0.450E-01
 gam= 0.589 trial= 0.198  step= 0.127 mean= 0.198
 gam= 0.501 g(H,U,f)=  0.414E+00 0.126E+01 0.565E+00 ort(H,U,f) = 0.536E+00 0.756E-02-0.514E+00
CGA:  26    -0.220328797384E+03   -0.28500E+00   -0.28624E+00  5760   0.224E+01 0.301E-01
 gam= 0.501 trial= 0.194  step= 0.202 mean= 0.194
 gam= 1.063 g(H,U,f)=  0.269E+00 0.136E+01 0.752E+00 ort(H,U,f) = 0.300E+00 0.104E+00-0.236E+00
CGA:  27    -0.220558622560E+03   -0.22983E+00   -0.22853E+00  5760   0.238E+01 0.168E+00
 gam= 1.063 trial= 0.195  step= 0.143 mean= 0.195
 gam= 0.667 g(H,U,f)=  0.187E+00 0.952E+00 0.451E+00 ort(H,U,f) =-0.107E+00 0.454E+00-0.415E+00
CGA:  28    -0.220748955597E+03   -0.19033E+00   -0.18378E+00  5760   0.159E+01-0.674E-01
 gam= 0.667 trial= 0.192  step= 0.190 mean= 0.192
 gam= 0.900 g(H,U,f)=  0.253E+00 0.707E+00 0.471E+00 ort(H,U,f) =-0.264E+00 0.336E+00-0.327E-01
CGA:  29    -0.220895626711E+03   -0.14667E+00   -0.14675E+00  5760   0.143E+01 0.391E-01
 gam= 0.900 trial= 0.192  step= 0.234 mean= 0.192
 gam= 1.017 g(H,U,f)=  0.375E+00 0.741E+00 0.338E+00 ort(H,U,f) =-0.210E+00 0.563E+00-0.150E+00
CGA:  30    -0.221073873754E+03   -0.17825E+00   -0.17150E+00  5760   0.145E+01 0.204E+00
 gam= 1.017 trial= 0.194  step= 0.256 mean= 0.194
 gam= 1.045 g(H,U,f)=  0.360E+00 0.628E+00 0.531E+00 ort(H,U,f) =-0.153E+00 0.518E+00-0.696E-01
CGA:  31    -0.221299064309E+03   -0.22519E+00   -0.21231E+00  5760   0.152E+01 0.295E+00
 gam= 1.045 trial= 0.197  step= 0.272 mean= 0.197
 gam= 0.897 g(H,U,f)=  0.348E+00 0.717E+00 0.297E+00 ort(H,U,f) =-0.169E+00 0.647E+00-0.373E-01
CGA:  32    -0.221570930062E+03   -0.27187E+00   -0.24894E+00  5760   0.136E+01 0.441E+00
 gam= 0.897 trial= 0.201  step= 0.323 mean= 0.201
 gam= 2.059 g(H,U,f)=  0.495E+00 0.849E+00 0.146E+01 ort(H,U,f) =-0.111E+00 0.654E+00-0.762E+00
CGA:  33    -0.221844241629E+03   -0.27331E+00   -0.28395E+00  5760   0.280E+01-0.219E+00
 gam= 2.059 trial= 0.207  step= 0.204 mean= 0.207
 gam= 0.790 g(H,U,f)=  0.686E+00 0.841E+00 0.688E+00 ort(H,U,f) =-0.471E+00 0.761E+00-0.233E+00
CGA:  34    -0.222084250708E+03   -0.24001E+00   -0.24017E+00  5760   0.221E+01 0.566E-01
 gam= 0.790 trial= 0.207  step= 0.103 mean= 0.207
 gam= 0.727 g(H,U,f)=  0.609E+00 0.670E+00 0.331E+00 ort(H,U,f) =-0.197E+00 0.499E+00-0.339E+00
CGA:  35    -0.222198359429E+03   -0.11411E+00   -0.11671E+00  5760   0.161E+01-0.370E-01
 gam= 0.727 trial= 0.202  step= 0.266 mean= 0.202
 gam= 0.696 g(H,U,f)=  0.410E+00 0.388E+00 0.323E+00 ort(H,U,f) =-0.278E+00 0.319E+00 0.130E+00
CGA:  36    -0.222417211588E+03   -0.21885E+00   -0.21093E+00  5760   0.112E+01 0.171E+00
 gam= 0.696 trial= 0.205  step= 0.147 mean= 0.205
 gam= 1.081 g(H,U,f)=  0.369E+00 0.388E+00 0.454E+00 ort(H,U,f) = 0.436E-02 0.460E+00-0.437E+00
CGA:  37    -0.222501460473E+03   -0.84249E-01   -0.91231E-01  5760   0.121E+01 0.276E-01
 gam= 1.081 trial= 0.202  step= 0.340 mean= 0.202
 gam= 0.546 g(H,U,f)=  0.278E+00 0.353E+00 0.305E-01 ort(H,U,f) =-0.231E+00 0.218E+00-0.938E-02
CGA:  38    -0.222711086648E+03   -0.20963E+00   -0.21120E+00  5760   0.662E+00-0.229E-01
 gam= 0.546 trial= 0.209  step= 0.253 mean= 0.209
 gam= 1.955 g(H,U,f)=  0.253E+00 0.295E+00 0.745E+00 ort(H,U,f) =-0.255E-01 0.141E+00-0.140E+00
CGA:  39    -0.222792574192E+03   -0.81488E-01   -0.82262E-01  5760   0.129E+01-0.240E-01
 gam= 1.955 trial= 0.211  step= 0.170 mean= 0.211
 gam= 0.311 g(H,U,f)=  0.222E+00 0.163E+00 0.170E-01 ort(H,U,f) =-0.257E+00 0.212E+00 0.676E-01
CGA:  40    -0.222896612568E+03   -0.10404E+00   -0.10585E+00  5760   0.402E+00 0.230E-01
 gam= 0.311 trial= 0.209  step= 0.295 mean= 0.209
 gam= 1.242 g(H,U,f)=  0.168E+00 0.142E+00 0.189E+00 ort(H,U,f) = 0.341E-01 0.129E+00-0.943E-01
CGA:  41    -0.222960524783E+03   -0.63912E-01   -0.60377E-01  5760   0.500E+00 0.689E-01
 gam= 1.242 trial= 0.213  step= 0.128 mean= 0.213
 gam= 0.321 g(H,U,f)=  0.725E-01 0.726E-01 0.151E-01 ort(H,U,f) = 0.463E-01 0.861E-01-0.346E-01
CGA:  42    -0.223006742944E+03   -0.46218E-01   -0.37574E-01  5760   0.160E+00 0.979E-01
 gam= 0.321 trial= 0.209  step= 0.351 mean= 0.209
 gam= 0.000 g(H,U,f)=  0.156E+00 0.357E+00 0.159E+01 ort(H,U,f) =-0.225E-01-0.663E-01-0.419E+00
CGA:  43    -0.223008099993E+03   -0.13570E-02   -0.33586E-01  5760   0.210E+01-0.508E+00
 gam= 0.000 trial= 0.216  step= 0.108 mean= 0.216
 gam= 0.142 g(H,U,f)=  0.829E-01 0.120E+00 0.943E-01 ort(H,U,f) =-0.555E-01-0.868E-01-0.217E+00
CGA:  44    -0.223056763944E+03   -0.48664E-01   -0.11276E+00  5760   0.297E+00-0.359E+00
 gam= 0.142 trial= 0.211  step= 0.174 mean= 0.211
 gam= 0.355 g(H,U,f)=  0.157E-01 0.449E-01 0.451E-01 ort(H,U,f) = 0.617E-02 0.235E-01-0.512E-01
CGA:  45    -0.223079746166E+03   -0.22982E-01   -0.21382E-01  5760   0.106E+00-0.216E-01
 gam= 0.355 trial= 0.209  step= 0.540 mean= 0.209
 gam= 0.505 g(H,U,f)=  0.930E-02 0.322E-01 0.118E-01 ort(H,U,f) = 0.247E-02 0.386E-01 0.666E-03
CGA:  46    -0.223113233726E+03   -0.33488E-01   -0.26471E-01  5760   0.533E-01 0.418E-01
 gam= 0.505 trial= 0.225  step= 0.370 mean= 0.225
 gam= 3.026 g(H,U,f)=  0.356E-01 0.810E-01 0.449E-01 ort(H,U,f) =-0.998E-02 0.201E-01-0.138E-01
CGA:  47    -0.223124028866E+03   -0.10795E-01   -0.13765E-01  5760   0.161E+00-0.361E-02
 gam= 3.026 trial= 0.233  step= 0.157 mean= 0.233
 gam= 1.311 g(H,U,f)=  0.644E-01 0.135E+00 0.120E-01 ort(H,U,f) =-0.192E-01 0.973E-01-0.238E-02
CGA:  48    -0.223134408001E+03   -0.10379E-01   -0.11827E-01  5760   0.212E+00 0.757E-01
 gam= 1.311 trial= 0.229  step= 0.137 mean= 0.229
 gam= 0.269 g(H,U,f)=  0.299E-01 0.270E-01 0.604E-04 ort(H,U,f) =-0.532E-01 0.435E-01 0.906E-04
CGA:  49    -0.223160319633E+03   -0.25912E-01   -0.21283E-01  5760   0.569E-01-0.961E-02
 gam= 0.269 trial= 0.224  step= 0.482 mean= 0.224
 gam= 0.753 g(H,U,f)=  0.190E-01 0.238E-01 0.459E-04 ort(H,U,f) =-0.103E-01-0.255E-02-0.136E-03
CGA:  50    -0.223171094435E+03   -0.10775E-01   -0.13098E-01  5760   0.429E-01-0.130E-01
 gam= 0.753 trial= 0.237  step= 0.466 mean= 0.237
 gam= 0.514 g(H,U,f)=  0.107E-01 0.112E-01 0.127E-03 ort(H,U,f) =-0.124E-02 0.116E-02 0.100E-03
CGA:  51    -0.223178631089E+03   -0.75367E-02   -0.77211E-02  5760   0.220E-01 0.190E-04
 gam= 0.514 trial= 0.249  step= 0.330 mean= 0.249
 gam= 2.097 g(H,U,f)=  0.127E-01 0.332E-01 0.258E-03 ort(H,U,f) = 0.791E-03 0.291E-03-0.252E-03
CGA:  52    -0.223181259661E+03   -0.26286E-02   -0.36365E-02  5760   0.462E-01 0.830E-03
 gam= 2.097 trial= 0.253  step= 0.262 mean= 0.253
 gam= 0.591 g(H,U,f)=  0.136E-01 0.137E-01 0.206E-04 ort(H,U,f) =-0.151E-01 0.115E-01-0.618E-04
CGA:  53    -0.223187508901E+03   -0.62492E-02   -0.62748E-02  5760   0.273E-01-0.366E-02
 gam= 0.591 trial= 0.253  step= 0.246 mean= 0.253
 gam= 1.433 g(H,U,f)=  0.140E-01 0.249E-01 0.213E-03 ort(H,U,f) =-0.437E-02 0.982E-02 0.522E-04
CGA:  54    -0.223190616704E+03   -0.31078E-02   -0.30908E-02  5760   0.391E-01 0.551E-02
 gam= 1.433 trial= 0.253  step= 0.247 mean= 0.253
 gam= 0.580 g(H,U,f)=  0.111E-01 0.116E-01 0.335E-04 ort(H,U,f) =-0.155E-01 0.104E-01-0.929E-04
CGA:  55    -0.223196457295E+03   -0.58406E-02   -0.57973E-02  5760   0.227E-01-0.521E-02
 gam= 0.580 trial= 0.252  step= 0.559 mean= 0.252
 gam= 0.987 g(H,U,f)=  0.128E-01 0.960E-02 0.116E-04 ort(H,U,f) =-0.554E-02 0.515E-02 0.932E-05
CGA:  56    -0.223201855057E+03   -0.53978E-02   -0.54896E-02  5760   0.224E-01-0.384E-03
 gam= 0.987 trial= 0.268  step= 0.507 mean= 0.268
 gam= 0.648 g(H,U,f)=  0.711E-02 0.739E-02 0.303E-05 ort(H,U,f) =-0.221E-02 0.987E-03-0.755E-05
CGA:  57    -0.223207265513E+03   -0.54105E-02   -0.55778E-02  5760   0.145E-01-0.123E-02
 gam= 0.648 trial= 0.280  step= 0.371 mean= 0.280
 gam= 0.709 g(H,U,f)=  0.472E-02 0.544E-02 0.118E-03 ort(H,U,f) = 0.269E-03 0.764E-03-0.321E-04
CGA:  58    -0.223209776784E+03   -0.25113E-02   -0.25421E-02  5760   0.103E-01 0.100E-02
 gam= 0.709 trial= 0.284  step= 0.195 mean= 0.284
 gam= 0.994 g(H,U,f)=  0.435E-02 0.581E-02 0.555E-04 ort(H,U,f) = 0.185E-02-0.340E-04-0.613E-04
CGA:  59    -0.223211031528E+03   -0.12547E-02   -0.10734E-02  5760   0.102E-01 0.176E-02
 gam= 0.994 trial= 0.280  step= 0.338 mean= 0.280
 gam= 0.733 g(H,U,f)=  0.340E-02 0.408E-02 0.776E-06 ort(H,U,f) =-0.210E-02 0.128E-02 0.126E-05
CGA:  60    -0.223213011332E+03   -0.19798E-02   -0.20230E-02  5760   0.749E-02-0.820E-03
 gam= 0.733 trial= 0.283  step= 0.513 mean= 0.283
 gam= 0.917 g(H,U,f)=  0.353E-02 0.332E-02 0.162E-04 ort(H,U,f) =-0.290E-02 0.304E-02 0.617E-05
CGA:  61    -0.223214785537E+03   -0.17742E-02   -0.17668E-02  5760   0.686E-02 0.137E-03
 gam= 0.917 trial= 0.294  step= 0.258 mean= 0.294
 gam= 1.019 g(H,U,f)=  0.273E-02 0.423E-02 0.271E-04 ort(H,U,f) =-0.169E-02 0.240E-02-0.283E-04
CGA:  62    -0.223215696490E+03   -0.91095E-03   -0.90197E-03  5760   0.699E-02 0.679E-03
 gam= 1.019 trial= 0.292  step= 0.297 mean= 0.292
 gam= 1.326 g(H,U,f)=  0.331E-02 0.589E-02 0.669E-04 ort(H,U,f) =-0.183E-02 0.226E-02 0.103E-04
CGA:  63    -0.223216826720E+03   -0.11302E-02   -0.11405E-02  5760   0.927E-02 0.441E-03
 gam= 1.326 trial= 0.293  step= 0.416 mean= 0.293
 gam= 1.814 g(H,U,f)=  0.707E-02 0.968E-02 0.639E-04 ort(H,U,f) =-0.404E-02 0.276E-02-0.798E-04
CGA:  64    -0.223218632513E+03   -0.18058E-02   -0.20500E-02  5760   0.168E-01-0.136E-02
 gam= 1.814 trial= 0.299  step= 0.265 mean= 0.299
 gam= 0.688 g(H,U,f)=  0.659E-02 0.498E-02 0.173E-05 ort(H,U,f) =-0.539E-02 0.509E-02-0.137E-04
CGA:  65    -0.223220570065E+03   -0.19376E-02   -0.18988E-02  5760   0.116E-01-0.316E-03
 gam= 0.688 trial= 0.297  step= 0.426 mean= 0.297
 gam= 0.838 g(H,U,f)=  0.533E-02 0.435E-02 0.620E-05 ort(H,U,f) =-0.220E-02 0.105E-02-0.123E-04
CGA:  66    -0.223222872314E+03   -0.23022E-02   -0.24194E-02  5760   0.969E-02-0.116E-02
 gam= 0.838 trial= 0.304  step= 0.388 mean= 0.304
 gam= 0.874 g(H,U,f)=  0.474E-02 0.372E-02 0.619E-05 ort(H,U,f) =-0.680E-03 0.111E-02-0.450E-05
CGA:  67    -0.223224563368E+03   -0.16911E-02   -0.16891E-02  5760   0.847E-02 0.424E-03
 gam= 0.874 trial= 0.308  step= 0.399 mean= 0.308
 gam= 1.275 g(H,U,f)=  0.496E-02 0.582E-02 0.117E-04 ort(H,U,f) =-0.552E-03 0.728E-03-0.135E-04
CGA:  68    -0.223226286751E+03   -0.17234E-02   -0.17640E-02  5760   0.108E-01 0.162E-03
 gam= 1.275 trial= 0.312  step= 0.206 mean= 0.312
 gam= 0.700 g(H,U,f)=  0.333E-02 0.420E-02 0.275E-04 ort(H,U,f) = 0.453E-04 0.102E-02 0.606E-05
CGA:  69    -0.223227595476E+03   -0.13087E-02   -0.11317E-02  5760   0.756E-02 0.107E-02
 gam= 0.700 trial= 0.307  step= 0.271 mean= 0.307
 gam= 0.556 g(H,U,f)=  0.241E-02 0.178E-02 0.827E-05 ort(H,U,f) =-0.105E-02 0.752E-03-0.161E-04
CGA:  70    -0.223228741529E+03   -0.11461E-02   -0.11253E-02  5760   0.420E-02-0.310E-03
 gam= 0.556 trial= 0.305  step= 0.520 mean= 0.305
 gam= 1.054 g(H,U,f)=  0.222E-02 0.220E-02 0.480E-05 ort(H,U,f) =-0.808E-03 0.550E-03 0.107E-05
CGA:  71    -0.223229728616E+03   -0.98709E-03   -0.10470E-02  5760   0.443E-02-0.257E-03
 gam= 1.054 trial= 0.316  step= 0.273 mean= 0.316
 gam= 0.557 g(H,U,f)=  0.130E-02 0.117E-02 0.526E-07 ort(H,U,f) =-0.477E-03 0.521E-03 0.356E-06
CGA:  72    -0.223230302409E+03   -0.57379E-03   -0.56803E-03  5760   0.247E-02 0.444E-04
 gam= 0.557 trial= 0.314  step= 0.225 mean= 0.314
 gam= 0.810 g(H,U,f)=  0.102E-02 0.968E-03 0.101E-04 ort(H,U,f) = 0.383E-04 0.180E-03 0.447E-05
CGA:  73    -0.223230600103E+03   -0.29769E-03   -0.28046E-03  5760   0.200E-02 0.223E-03
 gam= 0.810 trial= 0.309  step= 0.403 mean= 0.309
 gam= 0.000 g(H,U,f)=  0.106E-02 0.164E-02 0.813E-05 ort(H,U,f) =-0.228E-03 0.149E-03-0.114E-04
SDA:  74    -0.223231009715E+03   -0.40961E-03   -0.43847E-03  5760   0.271E-02-0.900E-04
 gam= 0.000 trial= 0.314  step= 0.163 mean= 0.314
 gam= 0.539 g(H,U,f)=  0.516E-03 0.943E-03 0.217E-05 ort(H,U,f) = 0.432E-03 0.241E-03-0.413E-05
CGA:  75    -0.223231281066E+03   -0.27135E-03   -0.22107E-03  5760   0.146E-02 0.668E-03
 gam= 0.539 trial= 0.307  step= 0.267 mean= 0.307
 gam= 0.777 g(H,U,f)=  0.365E-03 0.769E-03 0.170E-05 ort(H,U,f) =-0.852E-04 0.305E-04 0.830E-07
CGA:  76    -0.223231536707E+03   -0.25564E-03   -0.24308E-03  5760   0.114E-02-0.546E-04
 gam= 0.777 trial= 0.305  step= 0.573 mean= 0.305
 gam= 1.914 g(H,U,f)=  0.788E-03 0.137E-02 0.153E-04 ort(H,U,f) =-0.193E-03 0.170E-03-0.544E-05
CGA:  77    -0.223231810999E+03   -0.27429E-03   -0.31326E-03  5760   0.217E-02-0.279E-04
 gam= 1.914 trial= 0.318  step= 0.251 mean= 0.318
 gam= 0.724 g(H,U,f)=  0.757E-03 0.818E-03 0.107E-06 ort(H,U,f) =-0.523E-03 0.704E-03 0.749E-07
CGA:  78    -0.223232114261E+03   -0.30326E-03   -0.26635E-03  5760   0.158E-02 0.181E-03
 gam= 0.724 trial= 0.315  step= 0.250 mean= 0.315
 gam= 0.529 g(H,U,f)=  0.403E-03 0.423E-03 0.715E-05 ort(H,U,f) =-0.296E-03 0.322E-03 0.242E-05
CGA:  79    -0.223232340508E+03   -0.22625E-03   -0.21324E-03  5760   0.833E-03 0.282E-04
 gam= 0.529 trial= 0.311  step= 0.377 mean= 0.311
 gam= 1.303 g(H,U,f)=  0.456E-03 0.626E-03 0.298E-05 ort(H,U,f) =-0.118E-03 0.134E-03-0.527E-05
CGA:  80    -0.223232488043E+03   -0.14753E-03   -0.16000E-03  5760   0.109E-02 0.105E-04
 gam= 1.303 trial= 0.315  step= 0.222 mean= 0.315
 gam= 0.720 g(H,U,f)=  0.421E-03 0.360E-03 0.120E-06 ort(H,U,f) =-0.218E-03 0.260E-03 0.602E-06
CGA:  81    -0.223232624435E+03   -0.13639E-03   -0.12184E-03  5760   0.781E-03 0.431E-04
 gam= 0.720 trial= 0.310  step= 0.645 mean= 0.310
 gam= 1.324 g(H,U,f)=  0.464E-03 0.567E-03 0.230E-05 ort(H,U,f) =-0.221E-03 0.137E-04-0.248E-05
CGA:  82    -0.223232813876E+03   -0.18944E-03   -0.26171E-03  5760   0.103E-02-0.210E-03
 gam= 1.324 trial= 0.327  step= 0.173 mean= 0.327
 gam= 0.786 g(H,U,f)=  0.452E-03 0.360E-03 0.507E-06 ort(H,U,f) =-0.104E-03 0.166E-03 0.597E-06
CGA:  83    -0.223232892159E+03   -0.78284E-04   -0.65474E-04  5760   0.812E-03 0.626E-04
 gam= 0.786 trial= 0.319  step= 0.343 mean= 0.319
 gam= 0.604 g(H,U,f)=  0.277E-03 0.213E-03 0.920E-06 ort(H,U,f) =-0.729E-04 0.216E-04 0.114E-05
CGA:  84    -0.223233039296E+03   -0.14714E-03   -0.14779E-03  5760   0.491E-03-0.502E-04
 gam= 0.604 trial= 0.320  step= 0.199 mean= 0.320
 gam= 0.927 g(H,U,f)=  0.170E-03 0.285E-03 0.248E-06 ort(H,U,f) = 0.634E-04 0.487E-04-0.644E-06
CGA:  85    -0.223233090440E+03   -0.51144E-04   -0.45900E-04  5760   0.455E-03 0.112E-03
 gam= 0.927 trial= 0.314  step= 0.339 mean= 0.314
 gam= 0.764 g(H,U,f)=  0.119E-03 0.228E-03 0.324E-06 ort(H,U,f) =-0.620E-04 0.180E-04 0.445E-06
CGA:  86    -0.223233182479E+03   -0.92039E-04   -0.94628E-04  5760   0.347E-03-0.436E-04
 gam= 0.764 trial= 0.315  step= 0.225 mean= 0.315
 gam= 0.805 g(H,U,f)=  0.124E-03 0.155E-03 0.434E-06 ort(H,U,f) =-0.769E-04 0.947E-04-0.734E-06
CGA:  87    -0.223233221700E+03   -0.39221E-04   -0.35272E-04  5760   0.280E-03 0.171E-04
 gam= 0.805 trial= 0.311  step= 0.389 mean= 0.311
 gam= 0.915 g(H,U,f)=  0.118E-03 0.138E-03 0.441E-07 ort(H,U,f) =-0.696E-04 0.555E-04-0.964E-08
CGA:  88    -0.223233276400E+03   -0.54700E-04   -0.57051E-04  5760   0.256E-03-0.141E-04
 gam= 0.915 trial= 0.315  step= 0.615 mean= 0.315
 gam= 2.446 g(H,U,f)=  0.223E-03 0.402E-03 0.142E-05 ort(H,U,f) =-0.750E-04 0.720E-04 0.179E-07
CGA:  89    -0.223233336628E+03   -0.60227E-04   -0.74723E-04  5760   0.626E-03-0.295E-05
 gam= 2.446 trial= 0.330  step= 0.176 mean= 0.330
 gam= 0.588 g(H,U,f)=  0.173E-03 0.195E-03 0.351E-07 ort(H,U,f) =-0.185E-03 0.227E-03 0.183E-06
CGA:  90    -0.223233402807E+03   -0.66179E-04   -0.54309E-04  5760   0.368E-03 0.424E-04
 gam= 0.588 trial= 0.322  step= 0.369 mean= 0.322
 gam= 0.840 g(H,U,f)=  0.163E-03 0.147E-03 0.657E-07 ort(H,U,f) =-0.113E-03 0.106E-03-0.101E-06
CGA:  91    -0.223233475122E+03   -0.72315E-04   -0.72484E-04  5760   0.309E-03-0.730E-05
 gam= 0.840 trial= 0.324  step= 0.229 mean= 0.324
 gam= 1.285 g(H,U,f)=  0.166E-03 0.231E-03 0.288E-06 ort(H,U,f) = 0.395E-05 0.671E-04 0.233E-07
CGA:  92    -0.223233512357E+03   -0.37235E-04   -0.34719E-04  5760   0.397E-03 0.710E-04
 gam= 1.285 trial= 0.320  step= 0.505 mean= 0.320
 gam= 1.440 g(H,U,f)=  0.254E-03 0.307E-03 0.118E-04 ort(H,U,f) =-0.164E-03 0.100E-03-0.538E-05
CGA:  93    -0.223233614492E+03   -0.10214E-03   -0.12327E-03  5760   0.572E-03-0.685E-04
 gam= 1.440 trial= 0.329  step= 0.196 mean= 0.329
 gam= 0.840 g(H,U,f)=  0.241E-03 0.240E-03 0.406E-06 ort(H,U,f) =-0.152E-03 0.183E-03 0.610E-06
CGA:  94    -0.223233673902E+03   -0.59410E-04   -0.46434E-04  5760   0.481E-03 0.322E-04
 gam= 0.840 trial= 0.322  step= 0.321 mean= 0.322
 gam= 0.737 g(H,U,f)=  0.207E-03 0.147E-03 0.213E-06 ort(H,U,f) =-0.992E-04 0.119E-03-0.789E-06
CGA:  95    -0.223233755309E+03   -0.81406E-04   -0.81421E-04  5760   0.354E-03 0.193E-04
 gam= 0.737 trial= 0.322  step= 0.199 mean= 0.322
 gam= 1.148 g(H,U,f)=  0.183E-03 0.222E-03 0.177E-05 ort(H,U,f) = 0.306E-04 0.345E-04 0.526E-06
CGA:  96    -0.223233796574E+03   -0.41265E-04   -0.36725E-04  5760   0.406E-03 0.656E-04
 gam= 1.148 trial= 0.316  step= 0.318 mean= 0.316
 gam= 0.693 g(H,U,f)=  0.151E-03 0.131E-03 0.105E-06 ort(H,U,f) =-0.773E-04 0.459E-04-0.631E-06
CGA:  97    -0.223233873153E+03   -0.76579E-04   -0.76662E-04  5760   0.282E-03-0.321E-04
 gam= 0.693 trial= 0.316  step= 0.439 mean= 0.316
 gam= 0.869 g(H,U,f)=  0.130E-03 0.115E-03 0.355E-06 ort(H,U,f) =-0.758E-04 0.636E-04-0.483E-06
CGA:  98    -0.223233929453E+03   -0.56300E-04   -0.56925E-04  5760   0.245E-03-0.126E-04
 gam= 0.869 trial= 0.322  step= 0.234 mean= 0.322
 gam= 0.904 g(H,U,f)=  0.102E-03 0.119E-03 0.518E-06 ort(H,U,f) =-0.130E-04 0.607E-04-0.155E-07
CGA:  99    -0.223233959364E+03   -0.29911E-04   -0.27308E-04  5760   0.221E-03 0.477E-04
 gam= 0.904 trial= 0.318  step= 0.246 mean= 0.318
 gam= 0.893 g(H,U,f)=  0.109E-03 0.880E-04 0.158E-06 ort(H,U,f) =-0.241E-04 0.259E-04-0.288E-06
CGA: 100    -0.223233993659E+03   -0.34294E-04   -0.32433E-04  5760   0.197E-03 0.146E-05
 gam= 0.893 trial= 0.314  step= 0.395 mean= 0.314
 gam= 0.968 g(H,U,f)=  0.101E-03 0.896E-04 0.406E-06 ort(H,U,f) =-0.395E-04 0.314E-04 0.127E-06
CGA: 101    -0.223234031730E+03   -0.38072E-04   -0.39215E-04  5760   0.191E-03-0.798E-05
 gam= 0.968 trial= 0.318  step= 0.395 mean= 0.318
 gam= 0.835 g(H,U,f)=  0.938E-04 0.657E-04 0.202E-06 ort(H,U,f) =-0.531E-04 0.450E-04 0.336E-06
CGA: 102    -0.223234067317E+03   -0.35587E-04   -0.36271E-04  5760   0.160E-03-0.774E-05
 gam= 0.835 trial= 0.322  step= 0.310 mean= 0.322
 gam= 0.771 g(H,U,f)=  0.819E-04 0.409E-04 0.230E-06 ort(H,U,f) =-0.268E-04 0.272E-04 0.467E-06
CGA: 103    -0.223234091078E+03   -0.23761E-04   -0.23764E-04  5760   0.123E-03 0.960E-06
 gam= 0.771 trial= 0.322  step= 0.294 mean= 0.322
 gam= 0.876 g(H,U,f)=  0.564E-04 0.513E-04 0.141E-06 ort(H,U,f) =-0.971E-06 0.127E-04-0.423E-06
CGA: 104    -0.223234109461E+03   -0.18383E-04   -0.18216E-04  5760   0.108E-03 0.113E-04
 gam= 0.876 trial= 0.320  step= 0.303 mean= 0.320
 gam= 0.000 g(H,U,f)=  0.540E-04 0.765E-04 0.211E-07 ort(H,U,f) =-0.634E-05 0.136E-04 0.546E-07
SDA: 105    -0.223234127685E+03   -0.18224E-04   -0.17837E-04  5760   0.131E-03 0.736E-05
 gam= 0.000 trial= 0.319  step= 0.114 mean= 0.319
 gam= 0.465 g(H,U,f)=  0.321E-04 0.285E-04 0.135E-06 ort(H,U,f) = 0.348E-04 0.750E-05-0.372E-07
CGA: 106    -0.223234139098E+03   -0.11413E-04   -0.74475E-05  5760   0.607E-04 0.422E-04
 gam= 0.465 trial= 0.309  step= 0.432 mean= 0.309
 gam= 1.008 g(H,U,f)=  0.171E-04 0.441E-04 0.644E-08 ort(H,U,f) = 0.214E-06-0.450E-05-0.852E-08
CGA: 107    -0.223234156195E+03   -0.17097E-04   -0.17371E-04  5760   0.612E-04-0.429E-05
 gam= 1.008 trial= 0.315  step= 0.176 mean= 0.315
 gam= 0.957 g(H,U,f)=  0.193E-04 0.391E-04 0.213E-06 ort(H,U,f) = 0.135E-05 0.138E-04-0.132E-06
CGA: 108    -0.223234161977E+03   -0.57814E-05   -0.50032E-05  5760   0.586E-04 0.151E-04
 gam= 0.957 trial= 0.308  step= 0.401 mean= 0.308
 gam= 0.914 g(H,U,f)=  0.240E-04 0.296E-04 0.288E-08 ort(H,U,f) =-0.201E-04 0.113E-04 0.971E-08
CGA: 109    -0.223234175755E+03   -0.13778E-04   -0.14631E-04  5760   0.536E-04-0.883E-05
 gam= 0.914 trial= 0.313  step= 0.468 mean= 0.313
 gam= 0.922 g(H,U,f)=  0.254E-04 0.241E-04 0.181E-08 ort(H,U,f) =-0.187E-04 0.186E-04-0.831E-09
CGA: 110    -0.223234186405E+03   -0.10650E-04   -0.10642E-04  5760   0.494E-04-0.331E-07
 gam= 0.922 trial= 0.321  step= 0.353 mean= 0.321
 gam= 0.825 g(H,U,f)=  0.222E-04 0.185E-04 0.806E-08 ort(H,U,f) =-0.143E-04 0.133E-04 0.157E-07
CGA: 111    -0.223234195092E+03   -0.86874E-05   -0.87091E-05  5760   0.408E-04-0.105E-05
 gam= 0.825 trial= 0.322  step= 0.445 mean= 0.322
 gam= 1.595 g(H,U,f)=  0.260E-04 0.390E-04 0.410E-07 ort(H,U,f) =-0.538E-05 0.769E-05-0.275E-07
CGA: 112    -0.223234203527E+03   -0.84345E-05   -0.88890E-05  5760   0.650E-04 0.229E-05
 gam= 1.595 trial= 0.328  step= 0.207 mean= 0.328
 gam= 0.881 g(H,U,f)=  0.245E-04 0.328E-04 0.251E-07 ort(H,U,f) =-0.520E-05 0.113E-04 0.265E-07
CGA: 113    -0.223234211418E+03   -0.78913E-05   -0.71114E-05  5760   0.573E-04 0.617E-05
 gam= 0.881 trial= 0.322  step= 0.393 mean= 0.322
 gam= 0.868 g(H,U,f)=  0.228E-04 0.269E-04 0.655E-08 ort(H,U,f) =-0.172E-04 0.148E-04-0.392E-08
CGA: 114    -0.223234223450E+03   -0.12032E-04   -0.12332E-04  5760   0.497E-04-0.236E-05
 gam= 0.868 trial= 0.326  step= 0.352 mean= 0.326
 gam= 0.811 g(H,U,f)=  0.238E-04 0.166E-04 0.217E-08 ort(H,U,f) =-0.130E-04 0.151E-04 0.547E-08
CGA: 115    -0.223234231859E+03   -0.84085E-05   -0.83804E-05  5760   0.403E-04 0.220E-05
 gam= 0.811 trial= 0.327  step= 0.385 mean= 0.327
 gam= 1.399 g(H,U,f)=  0.261E-04 0.304E-04 0.412E-07 ort(H,U,f) =-0.426E-05 0.705E-05 0.121E-07
CGA: 116    -0.223234239919E+03   -0.80601E-05   -0.81053E-05  5760   0.564E-04 0.280E-05
 gam= 1.399 trial= 0.330  step= 0.280 mean= 0.330
 gam= 1.175 g(H,U,f)=  0.229E-04 0.434E-04 0.295E-07 ort(H,U,f) =-0.740E-05 0.148E-04-0.523E-08
CGA: 117    -0.223234248863E+03   -0.89440E-05   -0.84523E-05  5760   0.663E-04 0.739E-05
 gam= 1.175 trial= 0.328  step= 0.248 mean= 0.328
 gam= 0.676 g(H,U,f)=  0.211E-04 0.237E-04 0.787E-08 ort(H,U,f) =-0.179E-04 0.175E-04 0.185E-07
CGA: 118    -0.223234258739E+03   -0.98760E-05   -0.93012E-05  5760   0.448E-04-0.440E-06
 gam= 0.676 trial= 0.324  step= 0.353 mean= 0.324
 gam= 0.898 g(H,U,f)=  0.244E-04 0.159E-04 0.698E-08 ort(H,U,f) =-0.142E-04 0.136E-04-0.304E-08
CGA: 119    -0.223234266557E+03   -0.78179E-05   -0.78620E-05  5760   0.402E-04-0.548E-06
 gam= 0.898 trial= 0.325  step= 0.458 mean= 0.325
 gam= 1.315 g(H,U,f)=  0.273E-04 0.256E-04 0.455E-08 ort(H,U,f) =-0.868E-05 0.713E-05-0.363E-08
CGA: 120    -0.223234275392E+03   -0.88354E-05   -0.90956E-05  5760   0.529E-04-0.156E-05
 gam= 1.315 trial= 0.332  step= 0.401 mean= 0.332
 gam= 1.179 g(H,U,f)=  0.254E-04 0.370E-04 0.209E-07 ort(H,U,f) =-0.127E-04 0.110E-04 0.597E-09
CGA: 121    -0.223234285300E+03   -0.99086E-05   -0.10201E-04  5760   0.624E-04-0.170E-05
 gam= 1.179 trial= 0.335  step= 0.188 mean= 0.335
 gam= 0.643 g(H,U,f)=  0.224E-04 0.177E-04 0.906E-08 ort(H,U,f) =-0.120E-04 0.163E-04-0.143E-07
CGA: 122    -0.223234291621E+03   -0.63200E-05   -0.56694E-05  5760   0.401E-04 0.429E-05
 gam= 0.643 trial= 0.328  step= 0.350 mean= 0.328
 gam= 1.076 g(H,U,f)=  0.196E-04 0.236E-04 0.149E-07 ort(H,U,f) =-0.550E-05 0.337E-05-0.161E-08
CGA: 123    -0.223234299008E+03   -0.73879E-05   -0.74979E-05  5760   0.432E-04-0.213E-05
 gam= 1.076 trial= 0.329  step= 0.378 mean= 0.329
 gam= 1.098 g(H,U,f)=  0.224E-04 0.250E-04 0.181E-08 ort(H,U,f) =-0.125E-04 0.113E-04-0.922E-09
CGA: 124    -0.223234306648E+03   -0.76393E-05   -0.77161E-05  5760   0.474E-04-0.122E-05
 gam= 1.098 trial= 0.331  step= 0.286 mean= 0.331
 gam= 0.932 g(H,U,f)=  0.239E-04 0.202E-04 0.833E-08 ort(H,U,f) =-0.114E-04 0.119E-04 0.190E-07
CGA: 125    -0.223234313275E+03   -0.66270E-05   -0.65747E-05  5760   0.441E-04 0.491E-06
 gam= 0.932 trial= 0.329  step= 0.365 mean= 0.329
 gam= 1.222 g(H,U,f)=  0.273E-04 0.266E-04 0.359E-07 ort(H,U,f) =-0.881E-05 0.106E-04-0.133E-07
CGA: 126    -0.223234321291E+03   -0.80158E-05   -0.81372E-05  5760   0.540E-04 0.175E-05
 gam= 1.222 trial= 0.331  step= 0.249 mean= 0.331
 gam= 0.840 g(H,U,f)=  0.222E-04 0.231E-04 0.247E-07 ort(H,U,f) =-0.124E-04 0.152E-04-0.120E-06
CGA: 127    -0.223234328624E+03   -0.73334E-05   -0.69719E-05  5760   0.453E-04 0.262E-05
 gam= 0.840 trial= 0.327  step= 0.269 mean= 0.327
 gam= 0.908 g(H,U,f)=  0.207E-04 0.204E-04 0.216E-07 ort(H,U,f) =-0.812E-05 0.922E-05 0.783E-07
CGA: 128    -0.223234335192E+03   -0.65679E-05   -0.63880E-05  5760   0.412E-04 0.118E-05
 gam= 0.908 trial= 0.324  step= 0.366 mean= 0.324
 gam= 0.971 g(H,U,f)=  0.207E-04 0.190E-04 0.165E-06 ort(H,U,f) =-0.114E-04 0.112E-04-0.270E-06
CGA: 129    -0.223234342866E+03   -0.76738E-05   -0.77332E-05  5760   0.399E-04-0.515E-06
 gam= 0.971 trial= 0.326  step= 0.302 mean= 0.326
 gam= 0.825 g(H,U,f)=  0.175E-04 0.153E-04 0.694E-07 ort(H,U,f) =-0.891E-05 0.898E-05 0.128E-06
CGA: 130    -0.223234348870E+03   -0.60046E-05   -0.59630E-05  5760   0.329E-04 0.201E-06
 gam= 0.825 trial= 0.325  step= 0.307 mean= 0.325
 gam= 1.077 g(H,U,f)=  0.165E-04 0.190E-04 0.123E-07 ort(H,U,f) =-0.436E-05 0.539E-05 0.421E-07
CGA: 131    -0.223234353979E+03   -0.51088E-05   -0.50886E-05  5760   0.355E-04 0.108E-05
 gam= 1.077 trial= 0.324  step= 0.280 mean= 0.324
 gam= 0.917 g(H,U,f)=  0.144E-04 0.178E-04 0.346E-06 ort(H,U,f) =-0.552E-05 0.739E-05 0.351E-06
CGA: 132    -0.223234359249E+03   -0.52699E-05   -0.51359E-05  5760   0.325E-04 0.222E-05
 gam= 0.917 trial= 0.322  step= 0.292 mean= 0.322
 gam= 1.085 g(H,U,f)=  0.164E-04 0.189E-04 0.572E-07 ort(H,U,f) =-0.440E-05 0.447E-05-0.257E-06
CGA: 133    -0.223234364397E+03   -0.51484E-05   -0.50563E-05  5760   0.353E-04-0.194E-06
 gam= 1.085 trial= 0.320  step= 0.325 mean= 0.320
 gam= 0.981 g(H,U,f)=  0.153E-04 0.193E-04 0.240E-07 ort(H,U,f) =-0.103E-04 0.787E-05 0.117E-06
CGA: 134    -0.223234370088E+03   -0.56911E-05   -0.57103E-05  5760   0.346E-04-0.227E-05
 gam= 0.981 trial= 0.320  step= 0.283 mean= 0.320
 gam= 0.819 g(H,U,f)=  0.140E-04 0.143E-04 0.122E-06 ort(H,U,f) =-0.118E-04 0.967E-05-0.294E-06
CGA: 135    -0.223234374837E+03   -0.47489E-05   -0.45849E-05  5760   0.284E-04-0.238E-05
 gam= 0.819 trial= 0.319  step= 0.293 mean= 0.319
 gam= 0.000 g(H,U,f)=  0.191E-04 0.168E-04 0.761E-07 ort(H,U,f) =-0.765E-05 0.710E-05 0.175E-06
SDA: 136    -0.223234378758E+03   -0.39207E-05   -0.38721E-05  5760   0.359E-04-0.376E-06
 gam= 0.000 trial= 0.317  step= 0.200 mean= 0.317
 gam= 0.611 g(H,U,f)=  0.788E-05 0.139E-04 0.236E-06 ort(H,U,f) = 0.788E-05-0.154E-06-0.121E-06
CGA: 137    -0.223234382607E+03   -0.38493E-05   -0.36017E-05  5760   0.220E-04 0.760E-05
 gam= 0.611 trial= 0.312  step= 0.194 mean= 0.312
 gam= 0.660 g(H,U,f)=  0.521E-05 0.927E-05 0.256E-07 ort(H,U,f) = 0.534E-05-0.541E-06-0.478E-07
CGA: 138    -0.223234385855E+03   -0.32473E-05   -0.25777E-05  5760   0.145E-04 0.475E-05
 gam= 0.660 trial= 0.306  step= 0.518 mean= 0.306
 gam= 1.347 g(H,U,f)=  0.691E-05 0.126E-04 0.880E-07 ort(H,U,f) =-0.433E-05 0.385E-05 0.219E-07
CGA: 139    -0.223234390056E+03   -0.42011E-05   -0.45701E-05  5760   0.196E-04-0.467E-06
 gam= 1.347 trial= 0.316  step= 0.182 mean= 0.316
 gam= 0.557 g(H,U,f)=  0.538E-05 0.542E-05 0.901E-07 ort(H,U,f) =-0.445E-05 0.790E-05-0.111E-06
CGA: 140    -0.223234392134E+03   -0.20780E-05   -0.17176E-05  5760   0.109E-04 0.335E-05
 gam= 0.557 trial= 0.309  step= 0.540 mean= 0.309
 gam= 1.591 g(H,U,f)=  0.747E-05 0.983E-05 0.218E-07 ort(H,U,f) =-0.439E-05 0.279E-05-0.963E-08
CGA: 141    -0.223234394917E+03   -0.27835E-05   -0.34447E-05  5760   0.173E-04-0.161E-05
 gam= 1.591 trial= 0.321  step= 0.174 mean= 0.321
 gam= 0.866 g(H,U,f)=  0.720E-05 0.774E-05 0.636E-07 ort(H,U,f) =-0.439E-05 0.596E-05 0.709E-08
CGA: 142    -0.223234396449E+03   -0.15318E-05   -0.12844E-05  5760   0.150E-04 0.158E-05
 gam= 0.866 trial= 0.314  step= 0.350 mean= 0.314
 gam= 0.984 g(H,U,f)=  0.655E-05 0.817E-05 0.397E-07 ort(H,U,f) =-0.384E-05 0.497E-05 0.535E-07
CGA: 143    -0.223234399335E+03   -0.28862E-05   -0.28652E-05  5760   0.148E-04 0.119E-05
 gam= 0.984 trial= 0.315  step= 0.147 mean= 0.315
 gam= 0.778 g(H,U,f)=  0.601E-05 0.541E-05 0.676E-07 ort(H,U,f) =-0.137E-06 0.430E-05-0.105E-06
CGA: 144    -0.223234400870E+03   -0.15346E-05   -0.11669E-05  5760   0.115E-04 0.406E-05
 gam= 0.778 trial= 0.307  step= 0.416 mean= 0.307
 gam= 1.083 g(H,U,f)=  0.528E-05 0.715E-05 0.215E-08 ort(H,U,f) =-0.272E-05 0.169E-05 0.154E-09
CGA: 145    -0.223234403855E+03   -0.29855E-05   -0.30468E-05  5760   0.124E-04-0.104E-05
 gam= 1.083 trial= 0.312  step= 0.206 mean= 0.312
 gam= 1.149 g(H,U,f)=  0.614E-05 0.799E-05 0.159E-06 ort(H,U,f) =-0.192E-05 0.414E-05 0.249E-07
CGA: 146    -0.223234405103E+03   -0.12474E-05   -0.11653E-05  5760   0.143E-04 0.224E-05
 gam= 1.149 trial= 0.307  step= 0.352 mean= 0.307
 gam= 0.729 g(H,U,f)=  0.540E-05 0.501E-05 0.308E-08 ort(H,U,f) =-0.423E-05 0.236E-05-0.216E-07
CGA: 147    -0.223234407914E+03   -0.28117E-05   -0.29643E-05  5760   0.104E-04-0.190E-05
 gam= 0.729 trial= 0.309  step= 0.292 mean= 0.309
 gam= 1.294 g(H,U,f)=  0.549E-05 0.790E-05 0.888E-07 ort(H,U,f) =-0.118E-05 0.152E-05 0.856E-07
CGA: 148    -0.223234409253E+03   -0.13381E-05   -0.13184E-05  5760   0.135E-04 0.432E-06
 gam= 1.294 trial= 0.309  step= 0.327 mean= 0.309
 gam= 0.599 g(H,U,f)=  0.389E-05 0.415E-05 0.403E-07 ort(H,U,f) =-0.367E-05 0.314E-05-0.127E-06
CGA: 149    -0.223234411509E+03   -0.22561E-05   -0.22937E-05  5760   0.808E-05-0.656E-06
 gam= 0.599 trial= 0.309  step= 0.232 mean= 0.309
 gam= 1.012 g(H,U,f)=  0.398E-05 0.417E-05 0.260E-07 ort(H,U,f) =-0.558E-06 0.155E-05 0.346E-07
CGA: 150    -0.223234412534E+03   -0.10250E-05   -0.89153E-06  5760   0.817E-05 0.103E-05
 gam= 1.012 trial= 0.306  step= 0.344 mean= 0.306
 gam= 1.011 g(H,U,f)=  0.380E-05 0.441E-05 0.492E-07 ort(H,U,f) =-0.108E-05 0.657E-06-0.738E-07
CGA: 151    -0.223234414083E+03   -0.15491E-05   -0.15859E-05  5760   0.826E-05-0.497E-06
 gam= 1.011 trial= 0.307  step= 0.361 mean= 0.307
 gam= 0.886 g(H,U,f)=  0.351E-05 0.381E-05 0.201E-08 ort(H,U,f) =-0.125E-05 0.189E-05 0.947E-08
CGA: 152    -0.223234415451E+03   -0.13686E-05   -0.14014E-05  5760   0.732E-05 0.651E-06
 gam= 0.886 trial= 0.310  step= 0.249 mean= 0.310
 gam= 0.919 g(H,U,f)=  0.309E-05 0.355E-05 0.926E-07 ort(H,U,f) =-0.732E-06 0.170E-05-0.445E-07
CGA: 153    -0.223234416512E+03   -0.10604E-05   -0.98313E-06  5760   0.673E-05 0.922E-06
 gam= 0.919 trial= 0.307  step= 0.234 mean= 0.307
 gam= 0.664 g(H,U,f)=  0.233E-05 0.213E-05 0.155E-08 ort(H,U,f) =-0.691E-06 0.953E-06-0.216E-08
CGA: 154    -0.223234417441E+03   -0.92907E-06   -0.88629E-06  5760   0.447E-05 0.260E-06
 gam= 0.664 trial= 0.303  step= 0.531 mean= 0.303
 gam= 1.217 g(H,U,f)=  0.260E-05 0.283E-05 0.164E-08 ort(H,U,f) =-0.133E-05 0.831E-06 0.455E-08
CGA: 155    -0.223234418513E+03   -0.10724E-05   -0.12307E-05  5760   0.544E-05-0.496E-06
 gam= 1.217 trial= 0.315  step= 0.242 mean= 0.315
 gam= 1.113 g(H,U,f)=  0.268E-05 0.330E-05 0.678E-07 ort(H,U,f) =-0.108E-05 0.150E-05-0.280E-07
CGA: 156    -0.223234419157E+03   -0.64422E-06   -0.58490E-06  5760   0.605E-05 0.391E-06
 gam= 1.113 trial= 0.311  step= 0.270 mean= 0.311
 final diagonalization
   1 F= -.23280164E+03 E0= -.23279798E+03  d E =-.731374E-02  mag=     6.0000
