 vasp.5.4.4.18Apr17-6-g9f103f2a35 (build Nov 22 2021 14:44:17) complex          
  
 executed on             LinuxIFC date 2022.08.08  10:57:07
 running on   64 total cores
 distrk:  each k-point on   64 cores,    1 groups
 distr:  one band on NCORES_PER_BAND=   4 cores,   16 groups


--------------------------------------------------------------------------------------------------------


 INCAR:
 POTCAR:    PAW_PBE Li 17Jan2003                  
 POTCAR:    PAW_PBE Co 02Aug2007                  
 POTCAR:    PAW_PBE O 08Apr2002                   
 POTCAR:    PAW_PBE Li 17Jan2003                  
   VRHFIN =Li: s1p0                                                             
   LEXCH  = PE                                                                  
   EATOM  =     5.3001 eV,    0.3895 Ry                                         
                                                                                
   TITEL  = PAW_PBE Li 17Jan2003                                                
   LULTRA =        F    use ultrasoft PP ?                                      
   IUNSCR =        1    unscreen: 0-lin 1-nonlin 2-no                           
   RPACOR =    1.500    partial core radius                                     
   POMASS =    7.010; ZVAL   =    1.000    mass and valenz                      
   RCORE  =    2.050    outmost cutoff radius                                   
   RWIGS  =    2.600; RWIGS  =    1.376    wigner-seitz radius (au A)           
   ENMAX  =  140.000; ENMIN  =  100.000 eV                                      
   ICORE  =        2    local potential                                         
   LCOR   =        T    correct aug charges                                     
   LPAW   =        T    paw PP                                                  
   EAUG   =  331.638                                                            
   DEXC   =    0.000                                                            
   RMAX   =    2.098    core radius for proj-oper                               
   RAUG   =    1.300    factor for augmentation sphere                          
   RDEP   =    2.094    radius for radial grids                                 
   RDEPT  =    1.810    core radius for aug-charge                              
                                                                                
   Atomic configuration                                                         
    4 entries                                                                   
     n  l   j            E        occ.                                          
     1  0  0.50       -51.8549   2.0000                                         
     2  0  0.50        -2.8742   1.0000                                         
     2  1  0.50        -1.3606   0.0000                                         
     3  2  1.50        -1.3606   0.0000                                         
   Description                                                                  
     l       E           TYP  RCUT    TYP  RCUT                                 
     0     -2.8742052     23  2.050                                             
     0     27.2116520     23  2.050                                             
     1     -1.3605826     23  2.050                                             
     2     -1.3605826     23  2.050                                             
  local pseudopotential read in
  partial core-charges read in
  partial kinetic energy density read in
  atomic valenz-charges read in
  non local Contribution for L=           0  read in
    real space projection operators read in
  non local Contribution for L=           0  read in
    real space projection operators read in
  non local Contribution for L=           1  read in
    real space projection operators read in
    PAW grid and wavefunctions read in
 
   number of l-projection  operators is LMAX  =           3
   number of lm-projection operators is LMMAX =           5
 
 POTCAR:    PAW_PBE Co 02Aug2007                  
   VRHFIN =Co: d8 s1                                                            
   LEXCH  = PE                                                                  
   EATOM  =   813.3670 eV,   59.7808 Ry                                         
                                                                                
   TITEL  = PAW_PBE Co 02Aug2007                                                
   LULTRA =        F    use ultrasoft PP ?                                      
   IUNSCR =        1    unscreen: 0-lin 1-nonlin 2-no                           
   RPACOR =    2.000    partial core radius                                     
   POMASS =   58.933; ZVAL   =    9.000    mass and valenz                      
   RCORE  =    2.300    outmost cutoff radius                                   
   RWIGS  =    2.460; RWIGS  =    1.302    wigner-seitz radius (au A)           
   ENMAX  =  267.968; ENMIN  =  200.976 eV                                      
   RCLOC  =    1.203    cutoff for local pot                                    
   LCOR   =        T    correct aug charges                                     
   LPAW   =        T    paw PP                                                  
   EAUG   =  477.818                                                            
   DEXC   =    0.000                                                            
   RMAX   =    2.360    core radius for proj-oper                               
   RAUG   =    1.300    factor for augmentation sphere                          
   RDEP   =    2.393    radius for radial grids                                 
   RDEPT  =    1.864    core radius for aug-charge                              
                                                                                
   Atomic configuration                                                         
    9 entries                                                                   
     n  l   j            E        occ.                                          
     1  0  0.50     -7587.6674   2.0000                                         
     2  0  0.50      -893.6084   2.0000                                         
     2  1  1.50      -764.5805   6.0000                                         
     3  0  0.50       -97.5973   2.0000                                         
     3  1  1.50       -60.9648   6.0000                                         
     3  2  2.50        -4.2382   8.0000                                         
     4  0  0.50        -4.3746   1.0000                                         
     4  1  1.50        -4.0817   0.0000                                         
     4  3  2.50        -1.3606   0.0000                                         
   Description                                                                  
     l       E           TYP  RCUT    TYP  RCUT                                 
     2     -4.2382362     23  2.300                                             
     2     -5.5988188     23  2.300                                             
     0     -4.3745797     23  2.300                                             
     0      5.7660125     23  2.300                                             
     1     -2.7211652     23  2.300                                             
     1     16.9860234     23  2.300                                             
  local pseudopotential read in
  partial core-charges read in
  partial kinetic energy density read in
  atomic valenz-charges read in
  non local Contribution for L=           2  read in
    real space projection operators read in
  non local Contribution for L=           2  read in
    real space projection operators read in
  non local Contribution for L=           0  read in
    real space projection operators read in
  non local Contribution for L=           0  read in
    real space projection operators read in
  non local Contribution for L=           1  read in
    real space projection operators read in
  non local Contribution for L=           1  read in
    real space projection operators read in
    PAW grid and wavefunctions read in
 
   number of l-projection  operators is LMAX  =           6
   number of lm-projection operators is LMMAX =          18
 
 POTCAR:    PAW_PBE O 08Apr2002                   
   VRHFIN =O: s2p4                                                              
   LEXCH  = PE                                                                  
   EATOM  =   432.3788 eV,   31.7789 Ry                                         
                                                                                
   TITEL  = PAW_PBE O 08Apr2002                                                 
   LULTRA =        F    use ultrasoft PP ?                                      
   IUNSCR =        1    unscreen: 0-lin 1-nonlin 2-no                           
   RPACOR =    1.200    partial core radius                                     
   POMASS =   16.000; ZVAL   =    6.000    mass and valenz                      
   RCORE  =    1.520    outmost cutoff radius                                   
   RWIGS  =    1.550; RWIGS  =    0.820    wigner-seitz radius (au A)           
   ENMAX  =  400.000; ENMIN  =  300.000 eV                                      
   ICORE  =        2    local potential                                         
   LCOR   =        T    correct aug charges                                     
   LPAW   =        T    paw PP                                                  
   EAUG   =  605.392                                                            
   DEXC   =    0.000                                                            
   RMAX   =    1.553    core radius for proj-oper                               
   RAUG   =    1.300    factor for augmentation sphere                          
   RDEP   =    1.550    radius for radial grids                                 
   RDEPT  =    1.329    core radius for aug-charge                              
                                                                                
   Atomic configuration                                                         
    4 entries                                                                   
     n  l   j            E        occ.                                          
     1  0  0.50      -514.6923   2.0000                                         
     2  0  0.50       -23.9615   2.0000                                         
     2  1  0.50        -9.0305   4.0000                                         
     3  2  1.50        -9.5241   0.0000                                         
   Description                                                                  
     l       E           TYP  RCUT    TYP  RCUT                                 
     0    -23.9615318     23  1.200                                             
     0     -9.5240782     23  1.200                                             
     1     -9.0304911     23  1.520                                             
     1      8.1634956     23  1.520                                             
     2     -9.5240782      7  1.500                                             
  local pseudopotential read in
  partial core-charges read in
  partial kinetic energy density read in
  kinetic energy density of atom read in
  atomic valenz-charges read in
  non local Contribution for L=           0  read in
    real space projection operators read in
  non local Contribution for L=           0  read in
    real space projection operators read in
  non local Contribution for L=           1  read in
    real space projection operators read in
  non local Contribution for L=           1  read in
    real space projection operators read in
    PAW grid and wavefunctions read in
 
   number of l-projection  operators is LMAX  =           4
   number of lm-projection operators is LMMAX =           8
 
 Optimization of the real space projectors (new method)

 maximal supplied QI-value         = 18.33
 optimisation between [QCUT,QGAM] = [ 12.46, 24.93] = [ 43.51,174.03] Ry 
 Optimized for a Real-space Cutoff    1.13 Angstroem

   l    n(q)    QCUT    max X(q) W(low)/X(q) W(high)/X(q)  e(spline) 
   0      8    12.465    33.825    0.12E-03    0.29E-03    0.99E-07
   0      8    12.465     8.944    0.86E-04    0.22E-03    0.72E-07
   1      8    12.465     4.214    0.27E-03    0.11E-03    0.82E-07
 Optimization of the real space projectors (new method)

 maximal supplied QI-value         = 16.25
 optimisation between [QCUT,QGAM] = [ 12.51, 25.03] = [ 43.85,175.40] Ry 
 Optimized for a Real-space Cutoff    1.31 Angstroem

   l    n(q)    QCUT    max X(q) W(low)/X(q) W(high)/X(q)  e(spline) 
   2      9    12.514    65.824    0.30E-03    0.46E-03    0.43E-06
   2      9    12.514    61.429    0.31E-03    0.46E-03    0.44E-06
   0     10    12.514    56.174    0.90E-04    0.33E-03    0.30E-06
   0     10    12.514    31.263    0.81E-04    0.30E-03    0.28E-06
   1      9    12.514    19.828    0.38E-03    0.65E-04    0.24E-06
   1      9    12.514    15.139    0.32E-03    0.60E-04    0.20E-06
 Optimization of the real space projectors (new method)

 maximal supplied QI-value         = 24.76
 optimisation between [QCUT,QGAM] = [ 12.38, 25.00] = [ 42.90,175.06] Ry 
 Optimized for a Real-space Cutoff    1.13 Angstroem

   l    n(q)    QCUT    max X(q) W(low)/X(q) W(high)/X(q)  e(spline) 
   0      8    12.378    20.381    0.16E-03    0.54E-05    0.27E-06
   0      8    12.378    15.268    0.17E-03    0.61E-05    0.29E-06
   1      8    12.378     5.964    0.38E-03    0.23E-03    0.28E-06
   1      8    12.378     5.382    0.33E-03    0.20E-03    0.25E-06
  PAW_PBE Li 17Jan2003                  :
 energy of atom  1       EATOM=   -5.3001
 kinetic energy error for atom=    0.0000 (will be added to EATOM!!)
  PAW_PBE Co 02Aug2007                  :
 energy of atom  2       EATOM= -813.3670
 kinetic energy error for atom=    0.0018 (will be added to EATOM!!)
  PAW_PBE O 08Apr2002                   :
 energy of atom  3       EATOM= -432.3788
 kinetic energy error for atom=    0.0168 (will be added to EATOM!!)
 
 
 POSCAR: Li6 Co12 O24                            
  positions in cartesian coordinates
  No initial velocities read in
 exchange correlation table for  LEXCH =        8
   RHO(1)=    0.500       N(1)  =     2000
   RHO(2)=  100.500       N(2)  =     4000
 


--------------------------------------------------------------------------------------------------------


 ion  position               nearest neighbor table
   1  0.938  0.911  0.992-  36 1.92  26 1.99  38 1.99  35 2.06  23 2.23  25 2.23  18 2.60   2 2.64
                            15 2.74  17 2.76   8 2.79   3 2.80   3 2.82  10 2.86   2 2.93   7 3.01
   2  0.426  0.938  0.987-  36 1.79  23 1.98  37 2.03  38 2.08  24 2.20  25 2.41  15 2.60  16 2.63
                             1 2.64   8 2.71  17 2.74   3 2.77   3 2.88   1 2.93   9 2.99  10 3.12
   3  0.412  0.440  0.988-  35 1.79  24 1.91  38 2.03  23 2.05  37 2.14  26 2.34  16 2.58  15 2.68
                             2 2.77  18 2.77   1 2.80   1 2.82   7 2.83   2 2.88  10 3.01   9 3.12
   4  0.107  0.632  0.334-  31 1.84  20 1.95  21 1.96  33 1.99  19 2.14  32 2.18   8 2.39  12 2.42

   5  0.706  0.395  0.672-  40 1.92  41 2.07  29 2.10  42 2.10  30 2.15  27 2.18  17 2.66  12 2.73
                            18 2.73  15 2.77   6 2.81   6 2.86  14 2.93  13 2.96
   6  0.658  0.878  0.665-  28 1.75  42 1.98  41 2.07  39 2.10  29 2.10  30 2.16  16 2.75  13 2.76
                            14 2.78   5 2.81  17 2.84   5 2.86  18 2.87  11 3.00
   7  0.094  0.208  0.171-  25 1.82  22 1.85  20 1.87  24 1.91  19 1.92  23 2.01   9 2.71  10 2.78
                             8 2.81  10 2.82   3 2.83   8 2.85   9 2.86   1 3.01
   8  0.106  0.721  0.159-  26 1.88  19 1.88  20 1.91  24 1.92  23 1.95  21 1.96   4 2.39   2 2.71
                            10 2.78   1 2.79   9 2.80  10 2.80   9 2.81   7 2.81   7 2.85
   9  0.610  0.214  0.169-  25 1.81  21 1.84  22 1.88  20 1.88  23 1.94  26 1.96   7 2.71   8 2.80
                             8 2.81  10 2.82  10 2.83   7 2.86   2 2.99   3 3.12
  10  0.601  0.707  0.173-  26 1.88  21 1.89  25 1.90  22 1.92  19 1.99  24 2.01   7 2.78   8 2.78
                             8 2.80   7 2.82   9 2.82   9 2.83   1 2.86   3 3.01   2 3.12
  11  0.083  0.130  0.493-  27 1.83  31 1.84  34 1.84  32 1.88  30 1.93  29 1.98  13 2.77  14 2.80
                            14 2.80  13 2.80  12 2.82  12 2.85   6 3.00
  12  0.073  0.617  0.510-  31 1.83  30 1.86  29 1.86  32 1.88  33 1.89  28 1.93   4 2.42   5 2.73
                            14 2.78  13 2.79  14 2.81  11 2.82  13 2.83  11 2.85
  13  0.575  0.120  0.492-  34 1.85  28 1.86  33 1.87  32 1.89  29 1.92  27 1.95  14 2.76   6 2.76
                            11 2.77  12 2.79  11 2.80  12 2.83  14 2.89   5 2.96
  14  0.579  0.633  0.493-  31 1.90  28 1.92  34 1.93  27 1.93  33 1.95  30 2.01  13 2.76  12 2.78
                             6 2.78  11 2.80  11 2.80  12 2.81  13 2.89   5 2.93
  15  0.316  0.167  0.832-  35 1.85  41 1.87  42 1.94  39 1.94  36 1.95  37 1.95   2 2.60   3 2.68
                             1 2.74  17 2.76   5 2.77  18 2.79  16 2.80  18 2.80  17 2.81  16 2.84
  16  0.308  0.666  0.833-  40 1.85  36 1.86  38 1.88  41 1.88  42 1.92  35 1.97   3 2.58   2 2.63
                            18 2.70   6 2.75  17 2.76  15 2.80  17 2.83  15 2.84  18 2.87
  17  0.820  0.167  0.832-  40 1.85  38 1.89  35 1.91  37 1.91  39 1.92  41 1.92   5 2.66   2 2.74
                             1 2.76  15 2.76  16 2.76  18 2.80  15 2.81  16 2.83   6 2.84  18 2.84
  18  0.821  0.663  0.835-  40 1.83  37 1.85  38 1.88  39 1.89  36 1.91  42 1.92   1 2.60  16 2.70
                             5 2.73   3 2.77  15 2.79  17 2.80  15 2.80  17 2.84   6 2.87  16 2.87
  19  0.945  0.849  0.245-   8 1.88   7 1.92  10 1.99   4 2.14
  20  0.933  0.370  0.239-   7 1.87   9 1.88   8 1.91   4 1.95
  21  0.429  0.866  0.239-   9 1.84  10 1.89   8 1.96   4 1.96
  22  0.411  0.335  0.240-   7 1.85   9 1.88  10 1.92
  23  0.299  0.092  0.085-   9 1.94   8 1.95   2 1.98   7 2.01   3 2.05   1 2.23
  24  0.273  0.557  0.089-   3 1.91   7 1.91   8 1.92  10 2.01   2 2.20
  25  0.780  0.070  0.103-   9 1.81   7 1.82  10 1.90   1 2.23   2 2.41
  26  0.777  0.581  0.093-   8 1.88  10 1.88   9 1.96   1 1.99   3 2.34
  27  0.389  0.266  0.566-  11 1.83  14 1.93  13 1.95   5 2.18
  28  0.420  0.785  0.573-   6 1.75  13 1.86  14 1.92  12 1.93
  29  0.883  0.256  0.574-  12 1.86  13 1.92  11 1.98   6 2.10   5 2.10
  30  0.908  0.779  0.576-  12 1.86  11 1.93  14 2.01   5 2.15   6 2.16
  31  0.237  0.487  0.432-  12 1.83   4 1.84  11 1.84  14 1.90
  32  0.238  0.957  0.428-  11 1.88  12 1.88  13 1.89   4 2.18
  33  0.775  0.482  0.428-  13 1.87  12 1.89  14 1.95   4 1.99
  34  0.772  0.002  0.422-  11 1.84  13 1.85  14 1.93
  35  0.138  0.294  0.908-   3 1.79  15 1.85  17 1.91  16 1.97   1 2.06
  36  0.140  0.804  0.910-   2 1.79  16 1.86  18 1.91   1 1.92  15 1.95
  37  0.647  0.315  0.906-  18 1.85  17 1.91  15 1.95   2 2.03   3 2.14
  38  0.634  0.807  0.901-  16 1.88  18 1.88  17 1.89   1 1.99   3 2.03   2 2.08
  39  0.988  0.012  0.757-  18 1.89  17 1.92  15 1.94   6 2.10
  40  0.989  0.521  0.765-  18 1.83  17 1.85  16 1.85   5 1.92
  41  0.488  0.021  0.761-  15 1.87  16 1.88  17 1.92   5 2.07   6 2.07
  42  0.500  0.534  0.759-  18 1.92  16 1.92  15 1.94   6 1.98   5 2.10
 

IMPORTANT INFORMATION: All symmetrisations will be switched off!
NOSYMM: (Re-)initialisation of all symmetry stuff for point group C_1.

 
 

Automatic generation of k-mesh.
 generate k-points for:    6    6    2
Space group operators:
 irot       det(A)        alpha          n_x          n_y          n_z        tau_x        tau_y        tau_z
    1     1.000000     0.000000     1.000000     0.000000     0.000000     0.000000     0.000000     0.000000
 
 Subroutine IBZKPT returns following result:
 ===========================================
 
 Found     36 irreducible k-points:
 
 Following reciprocal coordinates:
            Coordinates               Weight
  0.083333  0.083333  0.250000      2.000000
  0.250000  0.083333  0.250000      2.000000
  0.416667  0.083333  0.250000      2.000000
 -0.416667  0.083333  0.250000      2.000000
 -0.250000  0.083333  0.250000      2.000000
 -0.083333  0.083333  0.250000      2.000000
  0.083333  0.250000  0.250000      2.000000
  0.250000  0.250000  0.250000      2.000000
  0.416667  0.250000  0.250000      2.000000
 -0.416667  0.250000  0.250000      2.000000
 -0.250000  0.250000  0.250000      2.000000
 -0.083333  0.250000  0.250000      2.000000
  0.083333  0.416667  0.250000      2.000000
  0.250000  0.416667  0.250000      2.000000
  0.416667  0.416667  0.250000      2.000000
 -0.416667  0.416667  0.250000      2.000000
 -0.250000  0.416667  0.250000      2.000000
 -0.083333  0.416667  0.250000      2.000000
  0.083333 -0.416667  0.250000      2.000000
  0.250000 -0.416667  0.250000      2.000000
  0.416667 -0.416667  0.250000      2.000000
 -0.416667 -0.416667  0.250000      2.000000
 -0.250000 -0.416667  0.250000      2.000000
 -0.083333 -0.416667  0.250000      2.000000
  0.083333 -0.250000  0.250000      2.000000
  0.250000 -0.250000  0.250000      2.000000
  0.416667 -0.250000  0.250000      2.000000
 -0.416667 -0.250000  0.250000      2.000000
 -0.250000 -0.250000  0.250000      2.000000
 -0.083333 -0.250000  0.250000      2.000000
  0.083333 -0.083333  0.250000      2.000000
  0.250000 -0.083333  0.250000      2.000000
  0.416667 -0.083333  0.250000      2.000000
 -0.416667 -0.083333  0.250000      2.000000
 -0.250000 -0.083333  0.250000      2.000000
 -0.083333 -0.083333  0.250000      2.000000
 
 Following cartesian coordinates:
            Coordinates               Weight
  0.014969  0.025756  0.014939      2.000000
  0.044907  0.043124  0.012473      2.000000
  0.074845  0.060492  0.010007      2.000000
 -0.074845 -0.026348  0.022337      2.000000
 -0.044907 -0.008980  0.019871      2.000000
 -0.014969  0.008388  0.017405      2.000000
  0.014969  0.059900  0.010480      2.000000
  0.044907  0.077268  0.008014      2.000000
  0.074845  0.094636  0.005548      2.000000
 -0.074845  0.007796  0.017878      2.000000
 -0.044907  0.025164  0.015412      2.000000
 -0.014969  0.042532  0.012946      2.000000
  0.014969  0.094045  0.006021      2.000000
  0.044907  0.111413  0.003555      2.000000
  0.074845  0.128781  0.001089      2.000000
 -0.074845  0.041941  0.013419      2.000000
 -0.044907  0.059309  0.010953      2.000000
 -0.014969  0.076677  0.008487      2.000000
  0.014969 -0.076677  0.028316      2.000000
  0.044907 -0.059309  0.025850      2.000000
  0.074845 -0.041941  0.023384      2.000000
 -0.074845 -0.128781  0.035713      2.000000
 -0.044907 -0.111413  0.033248      2.000000
 -0.014969 -0.094045  0.030782      2.000000
  0.014969 -0.042532  0.023857      2.000000
  0.044907 -0.025164  0.021391      2.000000
  0.074845 -0.007796  0.018925      2.000000
 -0.074845 -0.094636  0.031255      2.000000
 -0.044907 -0.077268  0.028789      2.000000
 -0.014969 -0.059900  0.026323      2.000000
  0.014969 -0.008388  0.019398      2.000000
  0.044907  0.008980  0.016932      2.000000
  0.074845  0.026348  0.014466      2.000000
 -0.074845 -0.060492  0.026796      2.000000
 -0.044907 -0.043124  0.024330      2.000000
 -0.014969 -0.025756  0.021864      2.000000
 


--------------------------------------------------------------------------------------------------------




 Dimension of arrays:
   k-points           NKPTS =     36   k-points in BZ     NKDIM =     36   number of bands    NBANDS=    160
   number of dos      NEDOS =    301   number of ions     NIONS =     42
   non local maximal  LDIM  =      6   non local SUM 2l+1 LMDIM =     18
   total plane-waves  NPLWV = 108864
   max r-space proj   IRMAX =   2806   max aug-charges    IRDMAX=  11828
   dimension x,y,z NGX =    36 NGY =   36 NGZ =   84
   dimension x,y,z NGXF=    72 NGYF=   72 NGZF=  168
   support grid    NGXF=    72 NGYF=   72 NGZF=  168
   ions per type =               6  12  24
   NGX,Y,Z   is equivalent  to a cutoff of  10.75, 10.61, 10.19 a.u.
   NGXF,Y,Z  is equivalent  to a cutoff of  21.50, 21.21, 20.38 a.u.

 SYSTEM =  LiCoO2                                  
 POSCAR =  Li6 Co12 O24                            

 Startparameter for this run:
   NWRITE =      2    write-flag & timer
   PREC   = normal    normal or accurate (medium, high low for compatibility)
   ISTART =      0    job   : 0-new  1-cont  2-samecut
   ICHARG =      2    charge: 1-file 2-atom 10-const
   ISPIN  =      2    spin polarized calculation?
   LNONCOLLINEAR =      F non collinear calculations
   LSORBIT =      F    spin-orbit coupling
   INIWAV =      1    electr: 0-lowe 1-rand  2-diag
   LASPH  =      F    aspherical Exc in radial PAW
   METAGGA=      F    non-selfconsistent MetaGGA calc.

 Electronic Relaxation 1
   ENCUT  =  600.0 eV  44.10 Ry    6.64 a.u.  11.12 11.27 27.37*2*pi/ulx,y,z
   ENINI  =  600.0     initial cutoff
   ENAUG  =  605.4 eV  augmentation charge cutoff
   NELM   =    600;   NELMIN=  2; NELMDL= -5     # of ELM steps 
   EDIFF  = 0.1E-05   stopping-criterion for ELM
   LREAL  =      T    real-space projection
   NLSPLINE    = F    spline interpolate recip. space projectors
   LCOMPAT=      F    compatible to vasp.4.4
   GGA_COMPAT  = T    GGA compatible to vasp.4.4-vasp.4.6
   LMAXPAW     = -100 max onsite density
   LMAXMIX     =    2 max onsite mixed and CHGCAR
   VOSKOWN=      0    Vosko Wilk Nusair interpolation
   ROPT   =   -0.00050  -0.00050  -0.00050
 Ionic relaxation
   EDIFFG = 0.1E-04   stopping-criterion for IOM
   NSW    =      0    number of steps for IOM
   NBLOCK =      1;   KBLOCK =      1    inner block; outer block 
   IBRION =     -1    ionic relax: 0-MD 1-quasi-New 2-CG
   NFREE  =      0    steps in history (QN), initial steepest desc. (CG)
   ISIF   =      2    stress and relaxation
   IWAVPR =     10    prediction:  0-non 1-charg 2-wave 3-comb
   ISYM   =      0    0-nonsym 1-usesym 2-fastsym
   LCORR  =      T    Harris-Foulkes like correction to forces

   POTIM  = 0.5000    time-step for ionic-motion
   TEIN   =    0.0    initial temperature
   TEBEG  =    0.0;   TEEND  =   0.0 temperature during run
   SMASS  =  -3.00    Nose mass-parameter (am)
   estimated Nose-frequenzy (Omega)   =  0.10E-29 period in steps =****** mass=  -0.708E-27a.u.
   SCALEE = 1.0000    scale energy and forces
   NPACO  =    256;   APACO  = 16.0  distance and # of slots for P.C.
   PSTRESS=    0.0 pullay stress

  Mass of Ions in am
   POMASS =   7.01 58.93 16.00
  Ionic Valenz
   ZVAL   =   1.00  9.00  6.00
  Atomic Wigner-Seitz radii
   RWIGS  =  -1.00 -1.00 -1.00
  virtual crystal weights 
   VCA    =   1.00  1.00  1.00
   NELECT =     258.0000    total number of electrons
   NUPDOWN=       6.0000    fix difference up-down

 DOS related values:
   EMIN   =  10.00;   EMAX   =-10.00  energy-range for DOS
   EFERMI =   0.00
   ISMEAR =     0;   SIGMA  =   0.05  broadening in eV -4-tet -1-fermi 0-gaus

 Electronic relaxation 2 (details)
   IALGO  =     58    algorithm
   LDIAG  =      T    sub-space diagonalisation (order eigenvalues)
   LSUBROT=      F    optimize rotation matrix (better conditioning)
   TURBO    =      0    0=normal 1=particle mesh
   IRESTART =      0    0=no restart 2=restart with 2 vectors
   NREBOOT  =      0    no. of reboots
   NMIN     =      0    reboot dimension
   EREF     =   0.00    reference energy to select bands
   IMIX   =      4    mixing-type and parameters
     AMIX     =   0.40;   BMIX     =  1.00
     AMIX_MAG =   1.60;   BMIX_MAG =  1.00
     AMIN     =   0.10
     WC   =   100.;   INIMIX=   1;  MIXPRE=   1;  MAXMIX= -45

 Intra band minimization:
   WEIMIN = 0.0000     energy-eigenvalue tresh-hold
   EBREAK =  0.16E-08  absolut break condition
   DEPER  =   0.30     relativ break condition  

   TIME   =   0.40     timestep for ELM

  volume/ion in A,a.u.               =       8.79        59.32
  Fermi-wavevector in a.u.,A,eV,Ry     =   1.452777  2.745351 28.715943  2.110562
  Thomas-Fermi vector in A             =   2.570120
 
 Write flags
   LWAVE        =      F    write WAVECAR
   LDOWNSAMPLE  =      F    k-point downsampling of WAVECAR
   LCHARG       =      F    write CHGCAR
   LVTOT        =      F    write LOCPOT, total local potential
   LVHAR        =      F    write LOCPOT, Hartree potential only
   LELF         =      F    write electronic localiz. function (ELF)
   LORBIT       =     11    0 simple, 1 ext, 2 COOP (PROOUT), +10 PAW based schemes


 Dipole corrections
   LMONO  =      F    monopole corrections only (constant potential shift)
   LDIPOL =      F    correct potential (dipole corrections)
   IDIPOL =      0    1-x, 2-y, 3-z, 4-all directions 
   EPSILON=  1.0000000 bulk dielectric constant

 LDA+U is selected, type is set to LDAUTYPE =  2
   angular momentum for each species LDAUL =    -1    2   -1
   U (eV)           for each species LDAUU =   0.0  5.1  0.0
   J (eV)           for each species LDAUJ =   0.0  0.0  0.0
 Exchange correlation treatment:
   GGA     =    --    GGA type
   LEXCH   =     8    internal setting for exchange type
   VOSKOWN=      0    Vosko Wilk Nusair interpolation
   LHFCALC =     F    Hartree Fock is set to
   LHFONE  =     F    Hartree Fock one center treatment
   AEXX    =    0.0000 exact exchange contribution

 Linear response parameters
   LEPSILON=     F    determine dielectric tensor
   LRPA    =     F    only Hartree local field effects (RPA)
   LNABLA  =     F    use nabla operator in PAW spheres
   LVEL    =     F    velocity operator in full k-point grid
   LINTERFAST=   F  fast interpolation
   KINTER  =     0    interpolate to denser k-point grid
   CSHIFT  =0.1000    complex shift for real part using Kramers Kronig
   OMEGAMAX=  -1.0    maximum frequency
   DEG_THRESHOLD= 0.2000000E-02 threshold for treating states as degnerate
   RTIME   =   -0.100 relaxation time in fs
  (WPLASMAI=    0.000 imaginary part of plasma frequency in eV, 0.658/RTIME)
   DFIELD  = 0.0000000 0.0000000 0.0000000 field for delta impulse in time
 
 Orbital magnetization related:
   ORBITALMAG=     F  switch on orbital magnetization
   LCHIMAG   =     F  perturbation theory with respect to B field
   DQ        =  0.001000  dq finite difference perturbation B field
   LLRAUG    =     F  two centre corrections for induced B field



--------------------------------------------------------------------------------------------------------


 Static calculation
 charge density and potential will be updated during run
 spin polarized calculation
 Conjugate gradient for all bands (Freysoldt, et al. PRB 79, 241103 (2009))
 preconditioned conjugated gradient                                        
 perform sub-space diagonalisation
    before iterative eigenvector-optimisation
 modified Broyden-mixing scheme, WC =      100.0
 initial mixing is a Kerker type mixing with AMIX =  0.4000 and BMIX =      1.0000
 Hartree-type preconditioning will be used
 using additional bands           31
 real space projection scheme for non local part
 use partial core corrections
 no Harris-corrections to forces 
 use gradient corrections 
 use of overlap-Matrix (Vanderbilt PP)
 Gauss-broadening in eV      SIGMA  =   0.05


--------------------------------------------------------------------------------------------------------


  energy-cutoff  :      600.00
  volume of cell :      369.19
      direct lattice vectors                 reciprocal lattice vectors
     5.567093849  0.000000000  0.000000000     0.179626934  0.104207907 -0.014795677
    -2.831782103  4.881245136  0.000000000     0.000000000  0.204865761 -0.026753182
     0.089799173  1.774164319 13.585880280     0.000000000  0.000000000  0.073605830

  length of vectors
     5.567093849  5.643185621 13.701527867     0.208192304  0.206605210  0.073605830


 
 k-points in units of 2pi/SCALE and weight: read from INCAR                         
   0.01496891  0.02575614  0.01493905       0.028
   0.04490673  0.04312412  0.01247311       0.028
   0.07484456  0.06049211  0.01000716       0.028
  -0.07484456 -0.02634781  0.02233689       0.028
  -0.04490673 -0.00897983  0.01987095       0.028
  -0.01496891  0.00838815  0.01740500       0.028
   0.01496891  0.05990043  0.01048019       0.028
   0.04490673  0.07726842  0.00801424       0.028
   0.07484456  0.09463640  0.00554830       0.028
  -0.07484456  0.00779648  0.01787803       0.028
  -0.04490673  0.02516446  0.01541208       0.028
  -0.01496891  0.04253245  0.01294614       0.028
   0.01496891  0.09404473  0.00602133       0.028
   0.04490673  0.11141271  0.00355538       0.028
   0.07484456  0.12878069  0.00108943       0.028
  -0.07484456  0.04194077  0.01341916       0.028
  -0.04490673  0.05930876  0.01095322       0.028
  -0.01496891  0.07667674  0.00848727       0.028
   0.01496891 -0.07667674  0.02831564       0.028
   0.04490673 -0.05930876  0.02584970       0.028
   0.07484456 -0.04194077  0.02338375       0.028
  -0.07484456 -0.12878069  0.03571348       0.028
  -0.04490673 -0.11141271  0.03324754       0.028
  -0.01496891 -0.09404473  0.03078159       0.028
   0.01496891 -0.04253245  0.02385678       0.028
   0.04490673 -0.02516446  0.02139083       0.028
   0.07484456 -0.00779648  0.01892489       0.028
  -0.07484456 -0.09463640  0.03125462       0.028
  -0.04490673 -0.07726842  0.02878867       0.028
  -0.01496891 -0.05990043  0.02632273       0.028
   0.01496891 -0.00838815  0.01939792       0.028
   0.04490673  0.00897983  0.01693197       0.028
   0.07484456  0.02634781  0.01446602       0.028
  -0.07484456 -0.06049211  0.02679575       0.028
  -0.04490673 -0.04312412  0.02432981       0.028
  -0.01496891 -0.02575614  0.02186386       0.028
 
 k-points in reciprocal lattice and weights: read from INCAR                         
   0.08333333  0.08333333  0.25000000       0.028
   0.25000000  0.08333333  0.25000000       0.028
   0.41666667  0.08333333  0.25000000       0.028
  -0.41666667  0.08333333  0.25000000       0.028
  -0.25000000  0.08333333  0.25000000       0.028
  -0.08333333  0.08333333  0.25000000       0.028
   0.08333333  0.25000000  0.25000000       0.028
   0.25000000  0.25000000  0.25000000       0.028
   0.41666667  0.25000000  0.25000000       0.028
  -0.41666667  0.25000000  0.25000000       0.028
  -0.25000000  0.25000000  0.25000000       0.028
  -0.08333333  0.25000000  0.25000000       0.028
   0.08333333  0.41666667  0.25000000       0.028
   0.25000000  0.41666667  0.25000000       0.028
   0.41666667  0.41666667  0.25000000       0.028
  -0.41666667  0.41666667  0.25000000       0.028
  -0.25000000  0.41666667  0.25000000       0.028
  -0.08333333  0.41666667  0.25000000       0.028
   0.08333333 -0.41666667  0.25000000       0.028
   0.25000000 -0.41666667  0.25000000       0.028
   0.41666667 -0.41666667  0.25000000       0.028
  -0.41666667 -0.41666667  0.25000000       0.028
  -0.25000000 -0.41666667  0.25000000       0.028
  -0.08333333 -0.41666667  0.25000000       0.028
   0.08333333 -0.25000000  0.25000000       0.028
   0.25000000 -0.25000000  0.25000000       0.028
   0.41666667 -0.25000000  0.25000000       0.028
  -0.41666667 -0.25000000  0.25000000       0.028
  -0.25000000 -0.25000000  0.25000000       0.028
  -0.08333333 -0.25000000  0.25000000       0.028
   0.08333333 -0.08333333  0.25000000       0.028
   0.25000000 -0.08333333  0.25000000       0.028
   0.41666667 -0.08333333  0.25000000       0.028
  -0.41666667 -0.08333333  0.25000000       0.028
  -0.25000000 -0.08333333  0.25000000       0.028
  -0.08333333 -0.08333333  0.25000000       0.028
 
 position of ions in fractional coordinates (direct lattice) 
   0.93797974  0.91149618  0.99151688
   0.42562774  0.93801442  0.98701220
   0.41213541  0.44047539  0.98835919
   0.10660075  0.63221888  0.33363020
   0.70573741  0.39500009  0.67214050
   0.65836702  0.87780845  0.66471952
   0.09390168  0.20841601  0.17070591
   0.10641949  0.72107583  0.15882518
   0.61001594  0.21367675  0.16871118
   0.60071018  0.70724045  0.17283974
   0.08300898  0.12999639  0.49301848
   0.07288716  0.61745955  0.51037472
   0.57479353  0.11968376  0.49186214
   0.57897873  0.63316787  0.49303908
   0.31565721  0.16731000  0.83199102
   0.30759266  0.66649465  0.83330853
   0.82033017  0.16738956  0.83158613
   0.82101767  0.66305357  0.83464815
   0.94517607  0.84916310  0.24489101
   0.93280569  0.37010975  0.23890317
   0.42890383  0.86611933  0.23912620
   0.41089124  0.33549474  0.23973419
   0.29938218  0.09165173  0.08506847
   0.27349943  0.55660702  0.08945316
   0.78039948  0.07018188  0.10336982
   0.77716129  0.58108376  0.09257185
   0.38899432  0.26575120  0.56550181
   0.41995811  0.78468749  0.57325471
   0.88329490  0.25578233  0.57365809
   0.90815888  0.77852627  0.57551737
   0.23651694  0.48666090  0.43191533
   0.23845748  0.95676122  0.42800099
   0.77489923  0.48234995  0.42765577
   0.77200003  0.00203684  0.42184238
   0.13766108  0.29363622  0.90759891
   0.13993549  0.80420137  0.91002053
   0.64723188  0.31490649  0.90631082
   0.63420573  0.80708936  0.90054744
   0.98803024  0.01152617  0.75727371
   0.98864064  0.52138812  0.76473000
   0.48813356  0.02111305  0.76127790
   0.50045616  0.53445204  0.75886358
 
 position of ions in cartesian coordinates  (Angst):
   2.72970009  6.20835018 13.47062969
  -0.19811000  6.32980013 13.40942955
   1.13582003  3.90357995 13.42772961
  -1.16689003  3.67793012  4.53266001
   2.87070990  3.12057996  9.13162041
   1.23912001  5.46411991  9.03079987
  -0.05210000  1.32018995  2.31919003
  -1.43522000  3.80152988  2.15777993
   2.80608010  1.34232998  2.29208994
   1.35697997  3.75886011  2.34818006
   0.13827001  1.50924003  6.69809008
  -1.29691005  3.91946006  6.93388987
   2.90517998  1.45685005  6.68238020
   1.47450995  3.96537995  6.69836998
   1.35821998  2.29276991 11.30333042
  -0.10014000  4.73175001 11.32122993
   4.16752005  2.29243994 11.29782963
   2.76800990  4.71732998 11.33942986
   2.87923002  4.57945013  3.32705998
   4.16639996  2.23044991  3.24570990
  -0.04344000  4.65198994  3.24873996
   1.35895002  2.06295991  3.25699997
   1.41479003  0.59829998  1.15573001
  -0.04556000  2.87563992  1.21529996
   4.15509987  0.52596998  1.40436995
   2.68934011  3.00064993  1.25767004
   1.46379995  2.30048990  7.68283987
   0.16735999  4.84730005  7.78816986
   4.24457979  2.26629996  7.79365015
   2.90286994  4.82123995  7.81891012
  -0.02262000  3.14179993  5.86794996
  -1.34338999  5.42953014  5.81477022
   2.98642993  3.11319995  5.81008005
   4.32990980  0.75836003  5.73110008
   0.01636000  3.04354000 12.33053017
  -1.41656995  5.54003000 12.36343002
   2.79284000  3.14508009 12.31303024
   1.32605004  5.53732014 12.23472977
   5.53582001  1.39979005 10.28822994
   4.09606981  3.90177989 10.38953018
   2.72605991  1.45369005 10.34263039
   1.34078002  3.95514011 10.30982971
 


--------------------------------------------------------------------------------------------------------


 k-point  1 :   0.0833 0.0833 0.2500  plane waves:   12310
 k-point  2 :   0.2500 0.0833 0.2500  plane waves:   12327
 k-point  3 :   0.4167 0.0833 0.2500  plane waves:   12346
 k-point  4 :  -0.4167 0.0833 0.2500  plane waves:   12330
 k-point  5 :  -0.2500 0.0833 0.2500  plane waves:   12315
 k-point  6 :  -0.0833 0.0833 0.2500  plane waves:   12325
 k-point  7 :   0.0833 0.2500 0.2500  plane waves:   12311
 k-point  8 :   0.2500 0.2500 0.2500  plane waves:   12333
 k-point  9 :   0.4167 0.2500 0.2500  plane waves:   12332
 k-point 10 :  -0.4167 0.2500 0.2500  plane waves:   12335
 k-point 11 :  -0.2500 0.2500 0.2500  plane waves:   12307
 k-point 12 :  -0.0833 0.2500 0.2500  plane waves:   12299
 k-point 13 :   0.0833 0.4167 0.2500  plane waves:   12325
 k-point 14 :   0.2500 0.4167 0.2500  plane waves:   12339
 k-point 15 :   0.4167 0.4167 0.2500  plane waves:   12329
 k-point 16 :  -0.4167 0.4167 0.2500  plane waves:   12316
 k-point 17 :  -0.2500 0.4167 0.2500  plane waves:   12309
 k-point 18 :  -0.0833 0.4167 0.2500  plane waves:   12301
 k-point 19 :   0.0833-0.4167 0.2500  plane waves:   12294
 k-point 20 :   0.2500-0.4167 0.2500  plane waves:   12326
 k-point 21 :   0.4167-0.4167 0.2500  plane waves:   12313
 k-point 22 :  -0.4167-0.4167 0.2500  plane waves:   12321
 k-point 23 :  -0.2500-0.4167 0.2500  plane waves:   12333
 k-point 24 :  -0.0833-0.4167 0.2500  plane waves:   12317
 k-point 25 :   0.0833-0.2500 0.2500  plane waves:   12274
 k-point 26 :   0.2500-0.2500 0.2500  plane waves:   12307
 k-point 27 :   0.4167-0.2500 0.2500  plane waves:   12316
 k-point 28 :  -0.4167-0.2500 0.2500  plane waves:   12332
 k-point 29 :  -0.2500-0.2500 0.2500  plane waves:   12315
 k-point 30 :  -0.0833-0.2500 0.2500  plane waves:   12320
 k-point 31 :   0.0833-0.0833 0.2500  plane waves:   12323
 k-point 32 :   0.2500-0.0833 0.2500  plane waves:   12302
 k-point 33 :   0.4167-0.0833 0.2500  plane waves:   12351
 k-point 34 :  -0.4167-0.0833 0.2500  plane waves:   12326
 k-point 35 :  -0.2500-0.0833 0.2500  plane waves:   12327
 k-point 36 :  -0.0833-0.0833 0.2500  plane waves:   12311

 maximum and minimum number of plane-waves per node :      3110     3058

 maximum number of plane-waves:     12351
 maximum index in each direction: 
   IXMAX=   11   IYMAX=   11   IZMAX=   27
   IXMIN=  -11   IYMIN=  -11   IZMIN=  -27


 real space projection operators:
  total allocation   :       7493.10 KBytes
  max/ min on nodes  :       1879.61       1869.57


 parallel 3D FFT for wavefunctions:
    minimum data exchange during FFTs selected (reduces bandwidth)
 parallel 3D FFT for charge:
    minimum data exchange during FFTs selected (reduces bandwidth)


 total amount of memory used by VASP MPI-rank0   151688. kBytes
=======================================================================

   base      :      30000. kBytes
   nonlr-proj:       4288. kBytes
   fftplans  :       1577. kBytes
   grid      :       4337. kBytes
   one-center:        342. kBytes
   wavefun   :     111144. kBytes
 
     INWAV:  cpu time    0.0000: real time    0.0003
 Broyden mixing: mesh for mixing (old mesh)
   NGX = 23   NGY = 23   NGZ = 55
  (NGX  = 72   NGY  = 72   NGZ  =168)
  gives a total of  29095 points

 initial charge density was supplied:
 charge density of overlapping atoms calculated
 number of electron     258.0000000 magnetization       6.0000000
 keeping initial charge density in first step


--------------------------------------------------------------------------------------------------------


 Maximum index for non-local projection operator          684
 Maximum index for augmentation-charges          865 (set IRDMAX)


--------------------------------------------------------------------------------------------------------


 First call to EWALD:  gamma=   0.247
 Maximum number of real-space cells 4x 4x 2
 Maximum number of reciprocal cells 2x 2x 5

    FEWALD:  cpu time    0.0051: real time    0.0055


--------------------------------------- Iteration      1(   1)  ---------------------------------------


    POTLOK:  cpu time    0.0668: real time    0.0807
    SETDIJ:  cpu time    0.0182: real time    0.0199
    TRIAL :  cpu time   22.3676: real time   22.4144
    CORREC:  cpu time    0.0039: real time    0.0041
    --------------------------------------------
      LOOP:  cpu time   22.6556: real time   22.7204

 eigenvalue-minimisations  : 23040
 total energy-change (2. order) : 0.3511506E+04  (-0.1399307E+05)
 number of electron     258.0000000 magnetization       6.0000000
 augmentation part      258.0000000 magnetization       6.0000000

 Free energy of the ion-electron system (eV)
  ---------------------------------------------------
  alpha Z        PSCENC =       794.08640995
  Ewald energy   TEWEN  =    -14938.85187890
  -Hartree energ DENC   =     -6283.79819171
  -exchange      EXHF   =         0.00000000
  -V(xc)+E(xc)   XCENC  =       845.18924266
  PAW double counting   =     17015.18481625   -17491.61297812
  entropy T*S    EENTRO =        -0.00526677
  eigenvalues    EBANDS =      3402.44309733
  atomic energy  EATOM  =     20168.87094289
  ---------------------------------------------------
  free energy    TOTEN  =      3511.50619358 eV

  energy without entropy =     3511.51146035  energy(sigma->0) =     3511.50882696


--------------------------------------------------------------------------------------------------------




--------------------------------------- Iteration      1(   2)  ---------------------------------------


    TRIAL :  cpu time   22.2026: real time   22.2074
    CORREC:  cpu time    0.0044: real time    0.0044
    --------------------------------------------
      LOOP:  cpu time   22.2113: real time   22.2161

 eigenvalue-minimisations  : 24832
 total energy-change (2. order) :-0.3113105E+04  (-0.2867900E+04)
 number of electron     258.0000000 magnetization       6.0000000
 augmentation part      258.0000000 magnetization       6.0000000

 Free energy of the ion-electron system (eV)
  ---------------------------------------------------
  alpha Z        PSCENC =       794.08640995
  Ewald energy   TEWEN  =    -14938.85187890
  -Hartree energ DENC   =     -6283.79819171
  -exchange      EXHF   =         0.00000000
  -V(xc)+E(xc)   XCENC  =       845.18924266
  PAW double counting   =     17015.18481625   -17491.61297812
  entropy T*S    EENTRO =        -0.02313652
  eigenvalues    EBANDS =       289.35636732
  atomic energy  EATOM  =     20168.87094289
  ---------------------------------------------------
  free energy    TOTEN  =       398.40159382 eV

  energy without entropy =      398.42473033  energy(sigma->0) =      398.41316207


--------------------------------------------------------------------------------------------------------




--------------------------------------- Iteration      1(   3)  ---------------------------------------


    TRIAL :  cpu time   23.0192: real time   23.0251
    CORREC:  cpu time    0.0043: real time    0.0043
    --------------------------------------------
      LOOP:  cpu time   23.0274: real time   23.0332

 eigenvalue-minimisations  : 25136
 total energy-change (2. order) :-0.6221497E+03  (-0.5638925E+03)
 number of electron     258.0000000 magnetization       6.0000000
 augmentation part      258.0000000 magnetization       6.0000000

 Free energy of the ion-electron system (eV)
  ---------------------------------------------------
  alpha Z        PSCENC =       794.08640995
  Ewald energy   TEWEN  =    -14938.85187890
  -Hartree energ DENC   =     -6283.79819171
  -exchange      EXHF   =         0.00000000
  -V(xc)+E(xc)   XCENC  =       845.18924266
  PAW double counting   =     17015.18481625   -17491.61297812
  entropy T*S    EENTRO =        -0.03683747
  eigenvalues    EBANDS =      -332.77960641
  atomic energy  EATOM  =     20168.87094289
  ---------------------------------------------------
  free energy    TOTEN  =      -223.74808087 eV

  energy without entropy =     -223.71124339  energy(sigma->0) =     -223.72966213


--------------------------------------------------------------------------------------------------------




--------------------------------------- Iteration      1(   4)  ---------------------------------------


    TRIAL :  cpu time   23.3189: real time   23.3236
    CORREC:  cpu time    0.0037: real time    0.0037
    --------------------------------------------
      LOOP:  cpu time   23.3267: real time   23.3314

 eigenvalue-minimisations  : 25344
 total energy-change (2. order) :-0.4918790E+02  (-0.4824040E+02)
 number of electron     258.0000000 magnetization       6.0000000
 augmentation part      258.0000000 magnetization       6.0000000

 Free energy of the ion-electron system (eV)
  ---------------------------------------------------
  alpha Z        PSCENC =       794.08640995
  Ewald energy   TEWEN  =    -14938.85187890
  -Hartree energ DENC   =     -6283.79819171
  -exchange      EXHF   =         0.00000000
  -V(xc)+E(xc)   XCENC  =       845.18924266
  PAW double counting   =     17015.18481625   -17491.61297812
  entropy T*S    EENTRO =        -0.03670359
  eigenvalues    EBANDS =      -381.96764170
  atomic energy  EATOM  =     20168.87094289
  ---------------------------------------------------
  free energy    TOTEN  =      -272.93598227 eV

  energy without entropy =     -272.89927868  energy(sigma->0) =     -272.91763047


--------------------------------------------------------------------------------------------------------




--------------------------------------- Iteration      1(   5)  ---------------------------------------


    TRIAL :  cpu time   24.8226: real time   24.8303
    CORREC:  cpu time    0.0041: real time    0.0041
    CHARGE:  cpu time    0.4208: real time    0.4208
    --------------------------------------------
      LOOP:  cpu time   25.2516: real time   25.2593

 eigenvalue-minimisations  : 27824
 total energy-change (2. order) :-0.1599076E+01  (-0.1596331E+01)
 number of electron     257.9999969 magnetization       6.0000000
 augmentation part       67.9679624 magnetization       4.3249590

 Free energy of the ion-electron system (eV)
  ---------------------------------------------------
  alpha Z        PSCENC =       794.08640995
  Ewald energy   TEWEN  =    -14938.85187890
  -Hartree energ DENC   =     -6283.79819171
  -exchange      EXHF   =         0.00000000
  -V(xc)+E(xc)   XCENC  =       845.18924266
  PAW double counting   =     17015.18481625   -17491.61297812
  entropy T*S    EENTRO =        -0.03698908
  eigenvalues    EBANDS =      -383.56643201
  atomic energy  EATOM  =     20168.87094289
  ---------------------------------------------------
  free energy    TOTEN  =      -274.53505807 eV

  energy without entropy =     -274.49806900  energy(sigma->0) =     -274.51656353


--------------------------------------------------------------------------------------------------------




--------------------------------------- Iteration      1(   6)  ---------------------------------------


    POTLOK:  cpu time    0.0453: real time    0.0453
    SETDIJ:  cpu time    0.0129: real time    0.0129
    TRIAL :  cpu time   12.5363: real time   12.5417
    CORREC:  cpu time    4.2811: real time    4.2839
    CHARGE:  cpu time    0.4186: real time    0.4186
    --------------------------------------------
      LOOP:  cpu time   17.2986: real time   17.3068

 eigenvalue-minimisations  :     0
 total energy-change (2. order) : 0.3718240E+03  (-0.9652626E+02)
 number of electron     257.9999973 magnetization       5.9999997
 augmentation part       69.7027027 magnetization       4.3904593

 Free energy of the ion-electron system (eV)
  ---------------------------------------------------
  alpha Z        PSCENC =       794.08640995
  Ewald energy   TEWEN  =    -14938.85187890
  -Hartree energ DENC   =     -5976.70999194
  -exchange      EXHF   =         0.00000000
  -V(xc)+E(xc)   XCENC  =       878.18018957
  PAW double counting   =     23803.80568734   -24009.85181758
  entropy T*S    EENTRO =        -0.05974968
  eigenvalues    EBANDS =      -622.20361168
  atomic energy  EATOM  =     20168.87094289
  ---------------------------------------------------
  free energy    TOTEN  =        97.28894057 eV

  energy without entropy =       97.34869026  energy(sigma->0) =       97.31881542


--------------------------------------------------------------------------------------------------------




--------------------------------------- Iteration      1(   7)  ---------------------------------------


    POTLOK:  cpu time    0.0432: real time    0.0434
    SETDIJ:  cpu time    0.0130: real time    0.0130
    TRIAL :  cpu time   12.4123: real time   12.4156
    CORREC:  cpu time    4.1564: real time    4.1586
    CHARGE:  cpu time    0.4248: real time    0.4250
    --------------------------------------------
      LOOP:  cpu time   17.0542: real time   17.0600

 eigenvalue-minimisations  :     0
 total energy-change (2. order) :-0.1171058E+03  (-0.1131006E+03)
 number of electron     257.9999974 magnetization       5.9999997
 augmentation part       72.3776832 magnetization       4.1979887

 Free energy of the ion-electron system (eV)
  ---------------------------------------------------
  alpha Z        PSCENC =       794.08640995
  Ewald energy   TEWEN  =    -14938.85187890
  -Hartree energ DENC   =     -5937.07565486
  -exchange      EXHF   =         0.00000000
  -V(xc)+E(xc)   XCENC  =       870.24515838
  PAW double counting   =     23683.69695795   -23955.66892586
  entropy T*S    EENTRO =        -0.03593707
  eigenvalues    EBANDS =      -705.06009572
  atomic energy  EATOM  =     20168.87094289
  ---------------------------------------------------
  free energy    TOTEN  =       -19.81683585 eV

  energy without entropy =      -19.78089878  energy(sigma->0) =      -19.79886732


--------------------------------------------------------------------------------------------------------




--------------------------------------- Iteration      1(   8)  ---------------------------------------


    POTLOK:  cpu time    0.0436: real time    0.0436
    SETDIJ:  cpu time    0.0129: real time    0.0129
    TRIAL :  cpu time   12.3684: real time   12.3720
    CORREC:  cpu time    4.6220: real time    4.6257
    CHARGE:  cpu time    0.4193: real time    0.4193
    --------------------------------------------
      LOOP:  cpu time   17.4706: real time   17.4779

 eigenvalue-minimisations  :     0
 total energy-change (2. order) :-0.7848940E+02  (-0.3836711E+02)
 number of electron     257.9999971 magnetization       6.0000000
 augmentation part       72.9196316 magnetization       4.1004949

 Free energy of the ion-electron system (eV)
  ---------------------------------------------------
  alpha Z        PSCENC =       794.08640995
  Ewald energy   TEWEN  =    -14938.85187890
  -Hartree energ DENC   =     -5974.20234654
  -exchange      EXHF   =         0.00000000
  -V(xc)+E(xc)   XCENC  =       858.76000390
  PAW double counting   =     23415.57510043   -23796.91670105
  entropy T*S    EENTRO =        -0.04062088
  eigenvalues    EBANDS =      -625.59183104
  atomic energy  EATOM  =     20168.87094289
  ---------------------------------------------------
  free energy    TOTEN  =       -98.30623743 eV

  energy without entropy =      -98.26561654  energy(sigma->0) =      -98.28592698


--------------------------------------------------------------------------------------------------------




--------------------------------------- Iteration      1(   9)  ---------------------------------------


    POTLOK:  cpu time    0.0432: real time    0.0432
    SETDIJ:  cpu time    0.0130: real time    0.0130
    TRIAL :  cpu time   12.1760: real time   12.1799
    CORREC:  cpu time    4.4926: real time    4.4951
    CHARGE:  cpu time    0.4195: real time    0.4195
    --------------------------------------------
      LOOP:  cpu time   17.1488: real time   17.1552

 eigenvalue-minimisations  :     0
 total energy-change (2. order) :-0.5634654E+02  (-0.4526505E+02)
 number of electron     257.9999975 magnetization       5.9999997
 augmentation part       73.7664856 magnetization       4.1272302

 Free energy of the ion-electron system (eV)
  ---------------------------------------------------
  alpha Z        PSCENC =       794.08640995
  Ewald energy   TEWEN  =    -14938.85187890
  -Hartree energ DENC   =     -5983.78436281
  -exchange      EXHF   =         0.00000000
  -V(xc)+E(xc)   XCENC  =       857.37086143
  PAW double counting   =     23465.41867885   -23864.55439139
  entropy T*S    EENTRO =        -0.03966913
  eigenvalues    EBANDS =      -653.16841711
  atomic energy  EATOM  =     20168.87094289
  ---------------------------------------------------
  free energy    TOTEN  =      -154.65277797 eV

  energy without entropy =     -154.61310884  energy(sigma->0) =     -154.63294340


--------------------------------------------------------------------------------------------------------




--------------------------------------- Iteration      1(  10)  ---------------------------------------


    POTLOK:  cpu time    0.0468: real time    0.0468
    SETDIJ:  cpu time    0.0131: real time    0.0131
    TRIAL :  cpu time   12.5448: real time   12.5480
    CORREC:  cpu time    4.2012: real time    4.2027
    CHARGE:  cpu time    0.4142: real time    0.4142
    --------------------------------------------
      LOOP:  cpu time   17.2245: real time   17.2292

 eigenvalue-minimisations  :     0
 total energy-change (2. order) : 0.7763940E+01  (-0.1225789E+03)
 number of electron     257.9999972 magnetization       6.0000000
 augmentation part       74.3373639 magnetization       4.0464821

 Free energy of the ion-electron system (eV)
  ---------------------------------------------------
  alpha Z        PSCENC =       794.08640995
  Ewald energy   TEWEN  =    -14938.85187890
  -Hartree energ DENC   =     -6035.94019127
  -exchange      EXHF   =         0.00000000
  -V(xc)+E(xc)   XCENC  =       856.35818349
  PAW double counting   =     23600.78917190   -24033.86342651
  entropy T*S    EENTRO =        -0.02573305
  eigenvalues    EBANDS =      -558.29838011
  atomic energy  EATOM  =     20168.87094289
  ---------------------------------------------------
  free energy    TOTEN  =      -146.88883768 eV

  energy without entropy =     -146.86310463  energy(sigma->0) =     -146.87597115


--------------------------------------------------------------------------------------------------------




--------------------------------------- Iteration      1(  11)  ---------------------------------------


    POTLOK:  cpu time    0.0467: real time    0.0467
    SETDIJ:  cpu time    0.0141: real time    0.0141
    TRIAL :  cpu time   12.1839: real time   12.1871
    CORREC:  cpu time    4.3127: real time    4.3147
    CHARGE:  cpu time    0.4683: real time    0.4683
    --------------------------------------------
      LOOP:  cpu time   17.0301: real time   17.0353

 eigenvalue-minimisations  :     0
 total energy-change (2. order) :-0.3184052E+02  (-0.2810916E+01)
 number of electron     257.9999973 magnetization       6.0000000
 augmentation part       74.5004612 magnetization       4.0370819

 Free energy of the ion-electron system (eV)
  ---------------------------------------------------
  alpha Z        PSCENC =       794.08640995
  Ewald energy   TEWEN  =    -14938.85187890
  -Hartree energ DENC   =     -6075.62518969
  -exchange      EXHF   =         0.00000000
  -V(xc)+E(xc)   XCENC  =       855.56222641
  PAW double counting   =     23708.12140778   -24161.19396490
  entropy T*S    EENTRO =        -0.02561817
  eigenvalues    EBANDS =      -529.67358062
  atomic energy  EATOM  =     20168.87094289
  ---------------------------------------------------
  free energy    TOTEN  =      -178.72936013 eV

  energy without entropy =     -178.70374196  energy(sigma->0) =     -178.71655105


--------------------------------------------------------------------------------------------------------




--------------------------------------- Iteration      1(  12)  ---------------------------------------


    POTLOK:  cpu time    0.0433: real time    0.0433
    SETDIJ:  cpu time    0.0128: real time    0.0128
    TRIAL :  cpu time   12.1670: real time   12.1707
    CORREC:  cpu time    4.2387: real time    4.2405
    CHARGE:  cpu time    0.4136: real time    0.4136
    --------------------------------------------
      LOOP:  cpu time   16.8795: real time   16.8852

 eigenvalue-minimisations  :     0
 total energy-change (2. order) :-0.5740063E+01  (-0.3713637E+01)
 number of electron     257.9999974 magnetization       5.9999999
 augmentation part       74.6369977 magnetization       4.0307428

 Free energy of the ion-electron system (eV)
  ---------------------------------------------------
  alpha Z        PSCENC =       794.08640995
  Ewald energy   TEWEN  =    -14938.85187890
  -Hartree energ DENC   =     -6083.84963645
  -exchange      EXHF   =         0.00000000
  -V(xc)+E(xc)   XCENC  =       855.28464631
  PAW double counting   =     23731.15104721   -24189.91015743
  entropy T*S    EENTRO =        -0.03728377
  eigenvalues    EBANDS =      -521.22517835
  atomic energy  EATOM  =     20168.87094289
  ---------------------------------------------------
  free energy    TOTEN  =      -184.46942294 eV

  energy without entropy =     -184.43213917  energy(sigma->0) =     -184.45078106


--------------------------------------------------------------------------------------------------------




--------------------------------------- Iteration      1(  13)  ---------------------------------------


    POTLOK:  cpu time    0.0435: real time    0.0435
    SETDIJ:  cpu time    0.0166: real time    0.0166
    TRIAL :  cpu time   12.3907: real time   12.3938
    CORREC:  cpu time    4.3246: real time    4.3261
    CHARGE:  cpu time    0.4581: real time    0.4582
    --------------------------------------------
      LOOP:  cpu time   17.2341: real time   17.2389

 eigenvalue-minimisations  :     0
 total energy-change (2. order) :-0.1516426E+02  (-0.5780823E+01)
 number of electron     257.9999975 magnetization       5.9999998
 augmentation part       74.9702308 magnetization       4.0335674

 Free energy of the ion-electron system (eV)
  ---------------------------------------------------
  alpha Z        PSCENC =       794.08640995
  Ewald energy   TEWEN  =    -14938.85187890
  -Hartree energ DENC   =     -6076.06569027
  -exchange      EXHF   =         0.00000000
  -V(xc)+E(xc)   XCENC  =       854.81720215
  PAW double counting   =     23737.25799938   -24200.37577012
  entropy T*S    EENTRO =        -0.03411204
  eigenvalues    EBANDS =      -539.33561108
  atomic energy  EATOM  =     20168.87094289
  ---------------------------------------------------
  free energy    TOTEN  =      -199.63367977 eV

  energy without entropy =     -199.59956773  energy(sigma->0) =     -199.61662375


--------------------------------------------------------------------------------------------------------




--------------------------------------- Iteration      1(  14)  ---------------------------------------


    POTLOK:  cpu time    0.0431: real time    0.0431
    SETDIJ:  cpu time    0.0128: real time    0.0128
    TRIAL :  cpu time   12.6459: real time   12.6492
    CORREC:  cpu time    4.2236: real time    4.2251
    CHARGE:  cpu time    0.4114: real time    0.4116
    --------------------------------------------
      LOOP:  cpu time   17.3409: real time   17.3458

 eigenvalue-minimisations  :     0
 total energy-change (2. order) :-0.3681755E+01  (-0.9409381E+01)
 number of electron     257.9999975 magnetization       5.9999998
 augmentation part       76.2876529 magnetization       3.9624486

 Free energy of the ion-electron system (eV)
  ---------------------------------------------------
  alpha Z        PSCENC =       794.08640995
  Ewald energy   TEWEN  =    -14938.85187890
  -Hartree energ DENC   =     -6096.33478530
  -exchange      EXHF   =         0.00000000
  -V(xc)+E(xc)   XCENC  =       854.35375065
  PAW double counting   =     23796.94844590   -24271.98826372
  entropy T*S    EENTRO =        -0.02769673
  eigenvalues    EBANDS =      -510.36594406
  atomic energy  EATOM  =     20168.87094289
  ---------------------------------------------------
  free energy    TOTEN  =      -203.31543463 eV

  energy without entropy =     -203.28773790  energy(sigma->0) =     -203.30158627


--------------------------------------------------------------------------------------------------------




--------------------------------------- Iteration      1(  15)  ---------------------------------------


    POTLOK:  cpu time    0.0431: real time    0.0431
    SETDIJ:  cpu time    0.0127: real time    0.0127
    TRIAL :  cpu time   12.4101: real time   12.4136
    CORREC:  cpu time    4.6276: real time    4.6297
    CHARGE:  cpu time    0.4130: real time    0.4130
    --------------------------------------------
      LOOP:  cpu time   17.5107: real time   17.5162

 eigenvalue-minimisations  :     0
 total energy-change (2. order) :-0.9884800E+01  (-0.2880497E+01)
 number of electron     257.9999975 magnetization       5.9999998
 augmentation part       76.3470286 magnetization       3.9362344

 Free energy of the ion-electron system (eV)
  ---------------------------------------------------
  alpha Z        PSCENC =       794.08640995
  Ewald energy   TEWEN  =    -14938.85187890
  -Hartree energ DENC   =     -6205.40621172
  -exchange      EXHF   =         0.00000000
  -V(xc)+E(xc)   XCENC  =       852.98021029
  PAW double counting   =     24079.34298358   -24599.96125297
  entropy T*S    EENTRO =        -0.02581363
  eigenvalues    EBANDS =      -364.23374145
  atomic energy  EATOM  =     20168.87094289
  ---------------------------------------------------
  free energy    TOTEN  =      -213.20023507 eV

  energy without entropy =     -213.17442144  energy(sigma->0) =     -213.18732826


--------------------------------------------------------------------------------------------------------




--------------------------------------- Iteration      1(  16)  ---------------------------------------


    POTLOK:  cpu time    0.0432: real time    0.0432
    SETDIJ:  cpu time    0.0132: real time    0.0132
    TRIAL :  cpu time   12.0365: real time   12.0397
    CORREC:  cpu time    4.4598: real time    4.4617
    CHARGE:  cpu time    0.4051: real time    0.4051
    --------------------------------------------
      LOOP:  cpu time   16.9619: real time   16.9669

 eigenvalue-minimisations  :     0
 total energy-change (2. order) :-0.1528305E+01  (-0.4860361E+01)
 number of electron     257.9999975 magnetization       5.9999998
 augmentation part       75.6432097 magnetization       3.9205783

 Free energy of the ion-electron system (eV)
  ---------------------------------------------------
  alpha Z        PSCENC =       794.08640995
  Ewald energy   TEWEN  =    -14938.85187890
  -Hartree energ DENC   =     -6224.95743633
  -exchange      EXHF   =         0.00000000
  -V(xc)+E(xc)   XCENC  =       852.67412026
  PAW double counting   =     24085.87031764   -24604.89000856
  entropy T*S    EENTRO =        -0.02129508
  eigenvalues    EBANDS =      -347.50519385
  atomic energy  EATOM  =     20168.87094289
  ---------------------------------------------------
  free energy    TOTEN  =      -214.72854054 eV

  energy without entropy =     -214.70724546  energy(sigma->0) =     -214.71789300


--------------------------------------------------------------------------------------------------------




--------------------------------------- Iteration      1(  17)  ---------------------------------------


    POTLOK:  cpu time    0.0464: real time    0.0464
    SETDIJ:  cpu time    0.0128: real time    0.0128
    TRIAL :  cpu time   12.4107: real time   12.4165
    CORREC:  cpu time    4.4089: real time    4.4105
    CHARGE:  cpu time    0.4059: real time    0.4061
    --------------------------------------------
      LOOP:  cpu time   17.2889: real time   17.2963

 eigenvalue-minimisations  :     0
 total energy-change (2. order) :-0.4849699E+01  (-0.7703411E+00)
 number of electron     257.9999975 magnetization       5.9999998
 augmentation part       75.5004984 magnetization       3.9082851

 Free energy of the ion-electron system (eV)
  ---------------------------------------------------
  alpha Z        PSCENC =       794.08640995
  Ewald energy   TEWEN  =    -14938.85187890
  -Hartree energ DENC   =     -6217.19259395
  -exchange      EXHF   =         0.00000000
  -V(xc)+E(xc)   XCENC  =       851.61954456
  PAW double counting   =     23960.04762460   -24436.13929135
  entropy T*S    EENTRO =        -0.02047146
  eigenvalues    EBANDS =      -401.99770245
  atomic energy  EATOM  =     20168.87094289
  ---------------------------------------------------
  free energy    TOTEN  =      -219.57823972 eV

  energy without entropy =     -219.55776826  energy(sigma->0) =     -219.56800399


--------------------------------------------------------------------------------------------------------




--------------------------------------- Iteration      1(  18)  ---------------------------------------


    POTLOK:  cpu time    0.0430: real time    0.0430
    SETDIJ:  cpu time    0.0128: real time    0.0128
    TRIAL :  cpu time   12.1754: real time   12.1807
    CORREC:  cpu time    4.1522: real time    4.1544
    CHARGE:  cpu time    0.4336: real time    0.4336
    --------------------------------------------
      LOOP:  cpu time   16.8213: real time   16.8288

 eigenvalue-minimisations  :     0
 total energy-change (2. order) :-0.7508125E+00  (-0.2750311E+00)
 number of electron     257.9999976 magnetization       5.9999998
 augmentation part       75.5181855 magnetization       3.8960692

 Free energy of the ion-electron system (eV)
  ---------------------------------------------------
  alpha Z        PSCENC =       794.08640995
  Ewald energy   TEWEN  =    -14938.85187890
  -Hartree energ DENC   =     -6210.87579920
  -exchange      EXHF   =         0.00000000
  -V(xc)+E(xc)   XCENC  =       851.95084619
  PAW double counting   =     23918.05030053   -24382.88112084
  entropy T*S    EENTRO =        -0.01931811
  eigenvalues    EBANDS =      -420.65828142
  atomic energy  EATOM  =     20168.87094289
  ---------------------------------------------------
  free energy    TOTEN  =      -220.32905226 eV

  energy without entropy =     -220.30973414  energy(sigma->0) =     -220.31939320


--------------------------------------------------------------------------------------------------------




--------------------------------------- Iteration      1(  19)  ---------------------------------------


    POTLOK:  cpu time    0.0432: real time    0.0432
    SETDIJ:  cpu time    0.0128: real time    0.0128
    TRIAL :  cpu time   12.3705: real time   12.3740
    CORREC:  cpu time    4.2483: real time    4.2497
    CHARGE:  cpu time    0.4215: real time    0.4216
    --------------------------------------------
      LOOP:  cpu time   17.0999: real time   17.1050

 eigenvalue-minimisations  :     0
 total energy-change (2. order) :-0.2539174E+00  (-0.5030451E+00)
 number of electron     257.9999975 magnetization       5.9999998
 augmentation part       75.7666949 magnetization       3.8460078

 Free energy of the ion-electron system (eV)
  ---------------------------------------------------
  alpha Z        PSCENC =       794.08640995
  Ewald energy   TEWEN  =    -14938.85187890
  -Hartree energ DENC   =     -6210.50812121
  -exchange      EXHF   =         0.00000000
  -V(xc)+E(xc)   XCENC  =       852.33897669
  PAW double counting   =     23900.19367105   -24361.69775422
  entropy T*S    EENTRO =        -0.01848826
  eigenvalues    EBANDS =      -424.99589780
  atomic energy  EATOM  =     20168.87094289
  ---------------------------------------------------
  free energy    TOTEN  =      -220.58296966 eV

  energy without entropy =     -220.56448140  energy(sigma->0) =     -220.57372553


--------------------------------------------------------------------------------------------------------




--------------------------------------- Iteration      1(  20)  ---------------------------------------


    POTLOK:  cpu time    0.0448: real time    0.0448
    SETDIJ:  cpu time    0.0129: real time    0.0129
    TRIAL :  cpu time   12.6912: real time   12.7140
    CORREC:  cpu time    4.3801: real time    4.3818
    CHARGE:  cpu time    0.4790: real time    0.4790
    --------------------------------------------
      LOOP:  cpu time   17.6123: real time   17.6367

 eigenvalue-minimisations  :     0
 total energy-change (2. order) :-0.4989768E+00  (-0.2773918E+00)
 number of electron     257.9999975 magnetization       5.9999998
 augmentation part       76.0961409 magnetization       3.8123041

 Free energy of the ion-electron system (eV)
  ---------------------------------------------------
  alpha Z        PSCENC =       794.08640995
  Ewald energy   TEWEN  =    -14938.85187890
  -Hartree energ DENC   =     -6220.53727910
  -exchange      EXHF   =         0.00000000
  -V(xc)+E(xc)   XCENC  =       853.50716732
  PAW double counting   =     23876.82582916   -24337.15881150
  entropy T*S    EENTRO =        -0.01700312
  eigenvalues    EBANDS =      -417.80583802
  atomic energy  EATOM  =     20168.87094289
  ---------------------------------------------------
  free energy    TOTEN  =      -221.08194645 eV

  energy without entropy =     -221.06494333  energy(sigma->0) =     -221.07344489


--------------------------------------------------------------------------------------------------------




--------------------------------------- Iteration      1(  21)  ---------------------------------------


    POTLOK:  cpu time    0.0454: real time    0.0454
    SETDIJ:  cpu time    0.0129: real time    0.0129
    TRIAL :  cpu time   12.1601: real time   12.1641
    CORREC:  cpu time    4.4110: real time    4.4130
    CHARGE:  cpu time    0.4106: real time    0.4106
    --------------------------------------------
      LOOP:  cpu time   17.0445: real time   17.0505

 eigenvalue-minimisations  :     0
 total energy-change (2. order) :-0.2781315E+00  (-0.7218840E-01)
 number of electron     257.9999975 magnetization       5.9999998
 augmentation part       76.1352695 magnetization       3.8097703

 Free energy of the ion-electron system (eV)
  ---------------------------------------------------
  alpha Z        PSCENC =       794.08640995
  Ewald energy   TEWEN  =    -14938.85187890
  -Hartree energ DENC   =     -6235.80978348
  -exchange      EXHF   =         0.00000000
  -V(xc)+E(xc)   XCENC  =       854.13556969
  PAW double counting   =     23891.91673797   -24358.72663741
  entropy T*S    EENTRO =        -0.01729820
  eigenvalues    EBANDS =      -396.96443557
  atomic energy  EATOM  =     20168.87094289
  ---------------------------------------------------
  free energy    TOTEN  =      -221.36007797 eV

  energy without entropy =     -221.34277977  energy(sigma->0) =     -221.35142887


--------------------------------------------------------------------------------------------------------




--------------------------------------- Iteration      1(  22)  ---------------------------------------


    POTLOK:  cpu time    0.0439: real time    0.0439
    SETDIJ:  cpu time    0.0128: real time    0.0128
    TRIAL :  cpu time   12.0052: real time   12.0088
    CORREC:  cpu time    4.4923: real time    4.4941
    CHARGE:  cpu time    0.3956: real time    0.3957
    --------------------------------------------
      LOOP:  cpu time   16.9541: real time   16.9597

 eigenvalue-minimisations  :     0
 total energy-change (2. order) :-0.7257489E-01  (-0.9477325E-01)
 number of electron     257.9999975 magnetization       5.9999998
 augmentation part       76.1034512 magnetization       3.8176321

 Free energy of the ion-electron system (eV)
  ---------------------------------------------------
  alpha Z        PSCENC =       794.08640995
  Ewald energy   TEWEN  =    -14938.85187890
  -Hartree energ DENC   =     -6236.96960006
  -exchange      EXHF   =         0.00000000
  -V(xc)+E(xc)   XCENC  =       854.09802649
  PAW double counting   =     23890.52114572   -24357.83962215
  entropy T*S    EENTRO =        -0.01652201
  eigenvalues    EBANDS =      -395.33077861
  atomic energy  EATOM  =     20168.87094289
  ---------------------------------------------------
  free energy    TOTEN  =      -221.43265286 eV

  energy without entropy =     -221.41613084  energy(sigma->0) =     -221.42439185


--------------------------------------------------------------------------------------------------------




--------------------------------------- Iteration      1(  23)  ---------------------------------------


    POTLOK:  cpu time    0.0435: real time    0.0435
    SETDIJ:  cpu time    0.0129: real time    0.0129
    TRIAL :  cpu time   12.1534: real time   12.1643
    CORREC:  cpu time    4.3841: real time    4.3924
    CHARGE:  cpu time    0.4593: real time    0.4620
    --------------------------------------------
      LOOP:  cpu time   17.0575: real time   17.0793

 eigenvalue-minimisations  :     0
 total energy-change (2. order) :-0.9421950E-01  (-0.1229463E+00)
 number of electron     257.9999975 magnetization       5.9999998
 augmentation part       76.0013424 magnetization       3.8517779

 Free energy of the ion-electron system (eV)
  ---------------------------------------------------
  alpha Z        PSCENC =       794.08640995
  Ewald energy   TEWEN  =    -14938.85187890
  -Hartree energ DENC   =     -6233.53394599
  -exchange      EXHF   =         0.00000000
  -V(xc)+E(xc)   XCENC  =       853.81340601
  PAW double counting   =     23877.33589881   -24342.96621467
  entropy T*S    EENTRO =        -0.01482288
  eigenvalues    EBANDS =      -400.26496845
  atomic energy  EATOM  =     20168.87094289
  ---------------------------------------------------
  free energy    TOTEN  =      -221.52687235 eV

  energy without entropy =     -221.51204947  energy(sigma->0) =     -221.51946091


--------------------------------------------------------------------------------------------------------




--------------------------------------- Iteration      1(  24)  ---------------------------------------


    POTLOK:  cpu time    0.0440: real time    0.0440
    SETDIJ:  cpu time    0.0128: real time    0.0128
    TRIAL :  cpu time   12.3752: real time   12.4265
    CORREC:  cpu time    4.3026: real time    4.3112
    CHARGE:  cpu time    0.3917: real time    0.3918
    --------------------------------------------
      LOOP:  cpu time   17.1306: real time   17.1906

 eigenvalue-minimisations  :     0
 total energy-change (2. order) :-0.1190649E+00  (-0.1440022E+00)
 number of electron     257.9999975 magnetization       5.9999998
 augmentation part       75.9110771 magnetization       3.9176284

 Free energy of the ion-electron system (eV)
  ---------------------------------------------------
  alpha Z        PSCENC =       794.08640995
  Ewald energy   TEWEN  =    -14938.85187890
  -Hartree energ DENC   =     -6225.49975713
  -exchange      EXHF   =         0.00000000
  -V(xc)+E(xc)   XCENC  =       853.39528620
  PAW double counting   =     23852.93927793   -24314.83236575
  entropy T*S    EENTRO =        -0.01389963
  eigenvalues    EBANDS =      -411.73902954
  atomic energy  EATOM  =     20168.87094289
  ---------------------------------------------------
  free energy    TOTEN  =      -221.64593724 eV

  energy without entropy =     -221.63203761  energy(sigma->0) =     -221.63898742


--------------------------------------------------------------------------------------------------------




--------------------------------------- Iteration      1(  25)  ---------------------------------------


    POTLOK:  cpu time    0.0431: real time    0.0457
    SETDIJ:  cpu time    0.0126: real time    0.0126
    TRIAL :  cpu time   12.0817: real time   12.1049
    CORREC:  cpu time    4.1923: real time    4.1993
    CHARGE:  cpu time    0.4016: real time    0.4025
    --------------------------------------------
      LOOP:  cpu time   16.7356: real time   16.7692

 eigenvalue-minimisations  :     0
 total energy-change (2. order) :-0.1440697E+00  (-0.2089376E+00)
 number of electron     257.9999975 magnetization       5.9999998
[...]
   20        1.572   3.413   0.000   4.985
   21        1.571   3.418   0.000   4.989
   22        1.580   3.368   0.000   4.948
   23        1.560   3.443   0.000   5.003
   24        1.568   3.415   0.000   4.983
   25        1.571   3.454   0.000   5.025
   26        1.567   3.434   0.000   5.000
   27        1.578   3.390   0.000   4.967
   28        1.576   3.428   0.000   5.004
   29        1.575   3.405   0.000   4.980
   30        1.574   3.397   0.000   4.971
   31        1.575   3.445   0.000   5.020
   32        1.584   3.370   0.000   4.954
   33        1.579   3.386   0.000   4.965
   34        1.586   3.363   0.000   4.949
   35        1.559   3.488   0.000   5.048
   36        1.562   3.489   0.000   5.051
   37        1.565   3.447   0.000   5.012
   38        1.555   3.512   0.000   5.067
   39        1.572   3.393   0.000   4.966
   40        1.568   3.464   0.000   5.032
   41        1.559   3.466   0.000   5.026
   42        1.563   3.431   0.000   4.995
--------------------------------------------------
tot         43.748  92.188  87.662 223.598
 


 magnetization (x)
 
# of ion       s       p       d       tot
------------------------------------------
    1        0.000   0.000   0.000   0.000
    2       -0.001  -0.004   0.000  -0.005
    3        0.001   0.000   0.000   0.001
    4        0.001  -0.000   0.000   0.001
    5        0.001  -0.001   0.000   0.000
    6        0.001  -0.001   0.000   0.000
    7        0.011   0.013   1.332   1.357
    8        0.003   0.004  -0.009  -0.001
    9        0.004   0.005  -0.051  -0.042
   10        0.014   0.015   1.514   1.544
   11        0.012   0.016   1.421   1.449
   12        0.012   0.017   1.327   1.355
   13        0.013   0.017   1.344   1.374
   14        0.006   0.009   0.013   0.028
   15        0.002   0.001  -0.024  -0.021
   16        0.001   0.001  -0.016  -0.014
   17        0.003   0.002  -0.021  -0.016
   18        0.009   0.010   1.250   1.269
   19       -0.000  -0.161   0.000  -0.162
   20       -0.000  -0.089   0.000  -0.089
   21       -0.000  -0.070   0.000  -0.071
   22        0.000  -0.137   0.000  -0.137
   23        0.000  -0.051   0.000  -0.050
   24        0.000  -0.127   0.000  -0.127
   25        0.001  -0.081   0.000  -0.080
   26        0.000  -0.077   0.000  -0.077
   27        0.001  -0.088   0.000  -0.087
   28        0.001  -0.079   0.000  -0.078
   29        0.002  -0.142   0.000  -0.140
   30        0.001  -0.093   0.000  -0.092
   31        0.001  -0.092   0.000  -0.091
   32        0.002  -0.189   0.000  -0.187
   33        0.001  -0.129   0.000  -0.128
   34        0.002  -0.102   0.000  -0.100
   35       -0.001  -0.011   0.000  -0.012
   36        0.000  -0.029   0.000  -0.029
   37        0.001  -0.021   0.000  -0.021
   38        0.000  -0.027   0.000  -0.027
   39        0.000  -0.064   0.000  -0.064
   40       -0.000  -0.060   0.000  -0.060
   41       -0.001  -0.017   0.000  -0.018
   42       -0.001  -0.075   0.000  -0.075
--------------------------------------------------
tot          0.103  -1.907   8.082   6.278
 
    FORLOC:  cpu time    0.0083: real time    0.0083
    FORNL :  cpu time    4.0185: real time    4.0199
    STRESS:  cpu time   11.7513: real time   11.7554
    FORCOR:  cpu time    0.0460: real time    0.0465
    OFIELD:  cpu time    0.0004: real time    0.0004

  DFT-D2 method for vdW energy calculation
  -------------------------------------------------------------------

  Parameters of vdW forcefield:
         C6(Jnm^6/mol)     R0(A)
   -----------------------------
   Li       1.610          0.825
   Co      10.800          1.562
   O        0.700          1.342

  IVDW =   1
  VDW_RADIUS =    50.000 A
  VDW_S6 =     0.750
  VDW_SR =     1.000
  VDW_D =    20.000
  LVDW_EWALD = F

  Number of pair interactions contributing to vdW energy: 1280968
  Edisp (eV):  -10.24376
    FORVDW:  cpu time    0.1827: real time    0.1834

  FORCE on cell =-STRESS in cart. coord.  units (eV):
  Direction    XX          YY          ZZ          XY          YZ          ZX
  --------------------------------------------------------------------------------------
  Alpha Z   794.08641   794.08641   794.08641
  Ewald   -2587.55049 -2526.14574 -9825.22614   -79.55309    20.75573   -22.31933
  Hartree  3799.08050  3824.11139 -1400.61820   -34.34661     4.17721   -13.99882
  E(xc)   -1287.45879 -1287.13440 -1288.16575    -0.09912    -0.00622     0.02000
  Local   -6215.66657 -6296.16287  6190.24881   110.99580   -21.35468    39.18860
  n-local  -590.65200  -591.14590  -597.80551    -1.38335     0.94839    -1.36373
  augment  2023.20936  2020.82257  1999.63968    -0.10029    -1.34735    -1.19076
  Kinetic  4081.08513  4070.47575  4147.00301     5.21569    -3.15143    -4.20093
  Fock        0.00000     0.00000     0.00000     0.00000     0.00000     0.00000
  vdW        -6.86314    -6.24288   -13.27180    -0.27122    -0.25800    -0.19121
  -------------------------------------------------------------------------------------
  Total       9.27042     2.66433     5.89051     0.45781    -0.23635    -4.05617
  in kB      40.23121    11.56250    25.56329     1.98680    -1.02569   -17.60272
  external pressure =       25.79 kB  Pullay stress =        0.00 kB


 VOLUME and BASIS-vectors are now :
 -----------------------------------------------------------------------------
  energy-cutoff  :      600.00
  volume of cell :      369.19
      direct lattice vectors                 reciprocal lattice vectors
     5.567093849  0.000000000  0.000000000     0.179626934  0.104207907 -0.014795677
    -2.831782103  4.881245136  0.000000000     0.000000000  0.204865761 -0.026753182
     0.089799173  1.774164319 13.585880280     0.000000000  0.000000000  0.073605830

  length of vectors
     5.567093849  5.643185621 13.701527867     0.208192304  0.206605210  0.073605830


 FORCES acting on ions:
    Electron-Ion                     Ewald-Force                    Non-Local-Force
 -----------------------------------------------------------------------------------------------
   0.459E+01 -.331E+01 -.113E+02   -.444E+01 0.316E+01 0.112E+02   -.287E+00 0.665E+00 0.632E+00
   -.965E+01 -.136E+01 -.156E+02   0.903E+01 0.148E+01 0.154E+02   0.149E+01 0.324E+00 0.102E+01
   -.611E+01 -.376E+01 -.115E+02   0.548E+01 0.331E+01 0.117E+02   0.152E+01 0.492E+00 0.605E+00
   -.270E+00 -.152E+01 0.193E+01   0.498E+00 0.121E+01 -.238E+01   -.591E+00 0.548E+00 -.329E+00
   0.407E+01 0.156E+01 0.109E+02   -.403E+01 -.159E+01 -.103E+02   -.530E+00 -.180E+00 -.692E+00
   -.372E+01 -.233E+01 -.128E+01   0.338E+01 0.207E+01 0.170E+01   0.112E+01 0.782E+00 0.817E+00
   -.172E+02 0.101E+02 -.397E+02   0.185E+02 -.963E+01 0.407E+02   0.594E+00 -.144E+00 -.837E+00
   -.184E+02 -.101E+02 0.422E+02   0.184E+02 0.988E+01 -.423E+02   0.665E+00 0.289E+00 0.705E+00
   0.187E+02 -.238E+02 -.213E+02   -.203E+02 0.244E+02 0.222E+02   -.348E+00 0.545E+00 -.107E+01
   0.816E+01 0.115E+02 -.708E+02   -.815E+01 -.120E+02 0.722E+02   -.422E-02 -.144E-01 -.747E+00
   -.129E+02 0.197E+01 0.266E+02   0.128E+02 -.246E+01 -.259E+02   -.904E+00 -.321E+00 0.520E+00
   -.367E+00 -.990E+01 -.106E+03   0.260E+00 0.108E+02 0.107E+03   -.353E-01 -.570E-01 -.818E+00
   0.372E+02 -.179E+02 0.476E+02   -.375E+02 0.186E+02 -.480E+02   0.330E+00 0.262E+00 0.804E+00
   -.233E+02 0.174E+02 0.466E+02   0.237E+02 -.178E+02 -.471E+02   0.537E+00 0.446E+00 0.963E+00
   0.283E+01 -.901E+01 0.471E+02   -.328E+01 0.889E+01 -.490E+02   0.638E+00 -.139E+00 0.967E+00
   -.129E+02 0.262E+02 0.194E+02   0.133E+02 -.268E+02 -.209E+02   0.806E+00 -.328E+00 0.895E+00
   -.852E+01 0.483E+01 0.241E+02   0.898E+01 -.490E+01 -.242E+02   -.583E+00 -.484E+00 0.298E+00
   0.143E+02 -.113E+02 -.876E-01   -.147E+02 0.116E+02 -.849E+00   -.511E+00 0.198E+00 0.238E+00
   0.169E+02 0.547E+01 -.292E+03   -.174E+02 -.517E+01 0.314E+03   -.763E+00 -.138E+00 -.236E+02
   -.118E+01 -.111E+02 -.298E+03   -.593E+00 0.109E+02 0.320E+03   0.191E+01 -.720E-01 -.218E+02
   -.204E+01 0.193E+02 -.297E+03   0.133E+01 -.180E+02 0.317E+03   0.667E+00 -.253E+01 -.208E+02
   -.398E+01 -.198E+02 -.305E+03   0.589E+01 0.191E+02 0.329E+03   -.205E+01 0.176E+01 -.241E+02
   0.614E+01 -.373E+01 0.253E+03   -.613E+01 0.711E+01 -.267E+03   -.636E+00 -.406E+01 0.149E+02
   -.118E+02 -.100E+02 0.261E+03   0.110E+02 0.924E+01 -.277E+03   0.113E+01 0.177E+01 0.175E+02
   -.274E+01 0.215E+02 0.290E+03   0.156E+01 -.214E+02 -.311E+03   0.190E+01 -.108E+01 0.202E+02
   0.970E+01 0.879E+01 0.270E+03   -.930E+01 -.141E+02 -.289E+03   -.572E+00 0.527E+01 0.187E+02
   -.130E+02 -.169E+02 -.286E+03   0.130E+02 0.168E+02 0.309E+03   0.103E+01 0.443E+00 -.233E+02
   0.611E+00 0.154E+02 -.289E+03   -.216E+01 -.173E+02 0.310E+03   0.503E+00 0.768E+00 -.219E+02
   -.802E+01 0.723E+01 -.293E+03   0.117E+02 -.105E+02 0.312E+03   -.377E+01 0.309E+01 -.194E+02
   0.189E+02 0.473E+00 -.278E+03   -.200E+02 0.370E+01 0.298E+03   0.450E+00 -.490E+01 -.210E+02
   -.297E+02 -.694E+01 0.293E+03   0.318E+02 0.736E+01 -.315E+03   -.863E+00 -.162E+00 0.213E+02
   -.180E+01 -.777E+01 0.291E+03   0.885E+00 0.679E+01 -.315E+03   0.149E+01 0.150E+01 0.241E+02
   0.347E+02 -.613E+01 0.282E+03   -.368E+02 0.725E+01 -.304E+03   0.128E+01 -.832E+00 0.224E+02
   -.359E+00 0.258E+02 0.300E+03   0.649E+00 -.275E+02 -.327E+03   -.487E+00 0.813E+00 0.272E+02
   0.146E+02 -.899E+01 -.279E+03   -.188E+02 0.103E+02 0.296E+03   0.347E+01 -.110E+01 -.173E+02
   0.410E+01 -.458E+01 -.285E+03   -.441E+01 0.217E+01 0.302E+03   -.665E+00 0.262E+01 -.174E+02
   -.305E+01 0.123E+02 -.290E+03   0.584E+01 -.125E+02 0.309E+03   -.354E+01 -.356E+00 -.192E+02
   -.115E+01 -.546E+01 -.285E+03   0.388E+00 0.653E+01 0.299E+03   0.102E+01 -.111E+01 -.119E+02
   -.964E+01 -.178E+02 0.309E+03   0.125E+02 0.196E+02 -.330E+03   -.282E+01 -.159E+01 0.221E+02
   -.152E+02 0.604E+01 0.323E+03   0.193E+02 -.467E+01 -.344E+03   -.405E+01 -.121E+01 0.206E+02
   0.430E+01 -.467E+01 0.310E+03   -.674E+01 0.304E+01 -.327E+03   0.317E+01 0.217E+01 0.171E+02
   0.119E+02 0.172E+02 0.304E+03   -.154E+02 -.190E+02 -.320E+03   0.417E+01 0.150E+01 0.169E+02
 -----------------------------------------------------------------------------------------------
   -.588E+01 -.546E+01 -.533E+01   -.515E-13 -.213E-13 -.114E-12   0.588E+01 0.544E+01 0.527E+01
 
 
 POSITION                                       TOTAL-FORCE (eV/Angst)
 -----------------------------------------------------------------------------------
      2.72970      6.20835     13.47063        -0.036691      0.453447      0.472189
     -0.19811      6.32980     13.40943         0.636873      0.355101      0.756110
      1.13582      3.90358     13.42773         0.699944      0.003269      0.658522
     -1.16689      3.67793      4.53266        -0.163307      0.073853     -0.668321
      2.87071      3.12058      9.13162        -0.400625     -0.165328      0.118140
      1.23912      5.46412      9.03080         0.564158      0.350304      1.079467
     -0.05210      1.32019      2.31919         1.806107      0.369394      0.074882
     -1.43522      3.80153      2.15778         0.489917      0.080700      0.284179
      2.80608      1.34233      2.29209        -1.722273      0.928052     -0.173400
      1.35698      3.75886      2.34818         0.033659     -0.418834      0.379858
      0.13827      1.50924      6.69809        -1.018137     -0.740039      1.145494
     -1.29691      3.91946      6.93389        -0.241012      0.707211      0.384151
      2.90518      1.45685      6.68238         0.191070      0.922511      0.547193
      1.47451      3.96538      6.69837         0.820620      0.078383      0.657766
      1.35822      2.29277     11.30333         0.200736     -0.212249     -0.659294
     -0.10014      4.73175     11.32123         1.097415     -0.689791     -0.537747
      4.16752      2.29244     11.29783        -0.187883     -0.593169      0.183791
      2.76801      4.71733     11.33943        -0.939624      0.322153     -0.734475
      2.87923      4.57945      3.32706        -1.350278      0.209783     -1.235459
      4.16640      2.23045      3.24571         0.130909     -0.328723     -0.275890
     -0.04344      4.65199      3.24874         0.039584     -1.192405     -0.298014
      1.35895      2.06296      3.25700        -0.149909      1.090847     -0.281615
      1.41479      0.59830      1.15573        -0.647235     -0.726421      1.052543
     -0.04556      2.87564      1.21530         0.263471      0.973290      0.875427
      4.15510      0.52597      1.40437         0.667477     -1.008841     -1.321473
      2.68934      3.00065      1.25767        -0.188271     -0.101922      0.283418
      1.46380      2.30049      7.68284         0.950433      0.362390     -0.397434
      0.16736      4.84730      7.78817        -1.085536     -1.128926     -1.486673
      4.24458      2.26630      7.79365         0.004225     -0.080041     -0.233323
      2.90287      4.82124      7.81891        -0.620404     -0.700217     -0.975719
     -0.02262      3.14180      5.86795         1.278772      0.238657     -0.324565
     -1.34339      5.42953      5.81477         0.569460      0.607310     -0.075599
      2.98643      3.11320      5.81008        -0.927413      0.243570      0.442542
      4.32991      0.75836      5.73110        -0.207447     -0.882234      0.419790
      0.01636      3.04354     12.33053        -0.782865      0.327569     -0.549524
     -1.41657      5.54003     12.36343        -0.934314      0.159863     -0.714475
      2.79284      3.14508     12.31303        -0.666527     -0.460031     -0.021381
      1.32605      5.53732     12.23473         0.290455     -0.020958      1.272461
      5.53582      1.39979     10.28823         0.144855      0.288484      0.807107
      4.09607      3.90178     10.38953         0.170254      0.184457     -0.700995
      2.72606      1.45369     10.34263         0.657105      0.500954     -0.513961
      1.34078      3.95514     10.30983         0.562252     -0.381421      0.284306
 -----------------------------------------------------------------------------------
    total drift:                                0.008660     -0.027559     -0.056776


--------------------------------------------------------------------------------------------------------



  FREE ENERGIE OF THE ION-ELECTRON SYSTEM (eV)
  ---------------------------------------------------
  free  energy   TOTEN  =      -234.40731271 eV

  energy  without entropy=     -234.40307158  energy(sigma->0) =     -234.40519215
 


--------------------------------------------------------------------------------------------------------


    POTLOK:  cpu time    0.0679: real time    0.0679


--------------------------------------------------------------------------------------------------------


     LOOP+:  cpu time 2878.0467: real time 2881.2223
    4ORBIT:  cpu time    0.0000: real time    0.0000
 


 total charge     
 
# of ion       s       p       d       tot
------------------------------------------
    1        0.102   0.222   0.000   0.324
    2        0.109   0.240   0.000   0.349
    3        0.118   0.265   0.000   0.383
    4        0.116   0.260   0.000   0.375
    5        0.092   0.194   0.000   0.287
    6        0.115   0.251   0.000   0.366
    7        0.461   0.738   7.212   8.411
    8        0.434   0.678   7.390   8.502
    9        0.450   0.722   7.396   8.569
   10        0.435   0.669   7.178   8.282
   11        0.467   0.758   7.231   8.456
   12        0.476   0.779   7.256   8.512
   13        0.464   0.747   7.226   8.437
   14        0.410   0.621   7.328   8.360
   15        0.434   0.681   7.384   8.499
   16        0.445   0.709   7.397   8.550
   17        0.444   0.703   7.407   8.554
   18        0.476   0.777   7.257   8.510
   19        1.579   3.356   0.000   4.935
   20        1.572   3.413   0.000   4.985
   21        1.571   3.418   0.000   4.989
   22        1.580   3.368   0.000   4.948
   23        1.560   3.443   0.000   5.003
   24        1.568   3.415   0.000   4.983
   25        1.571   3.454   0.000   5.025
   26        1.567   3.434   0.000   5.000
   27        1.578   3.390   0.000   4.967
   28        1.576   3.428   0.000   5.004
   29        1.575   3.405   0.000   4.980
   30        1.574   3.397   0.000   4.971
   31        1.575   3.445   0.000   5.020
   32        1.584   3.370   0.000   4.954
   33        1.579   3.386   0.000   4.965
   34        1.586   3.363   0.000   4.949
   35        1.559   3.488   0.000   5.048
   36        1.562   3.489   0.000   5.051
   37        1.565   3.447   0.000   5.012
   38        1.555   3.512   0.000   5.067
   39        1.572   3.393   0.000   4.966
   40        1.568   3.464   0.000   5.032
   41        1.559   3.466   0.000   5.026
   42        1.563   3.431   0.000   4.995
--------------------------------------------------
tot         43.748  92.188  87.662 223.598
 


 magnetization (x)
 
# of ion       s       p       d       tot
------------------------------------------
    1        0.000   0.000   0.000   0.000
    2       -0.001  -0.004   0.000  -0.005
    3        0.001   0.000   0.000   0.001
    4        0.001  -0.000   0.000   0.001
    5        0.001  -0.001   0.000   0.000
    6        0.001  -0.001   0.000   0.000
    7        0.011   0.013   1.332   1.357
    8        0.003   0.004  -0.009  -0.001
    9        0.004   0.005  -0.051  -0.042
   10        0.014   0.015   1.514   1.544
   11        0.012   0.016   1.421   1.449
   12        0.012   0.017   1.327   1.355
   13        0.013   0.017   1.344   1.374
   14        0.006   0.009   0.013   0.028
   15        0.002   0.001  -0.024  -0.021
   16        0.001   0.001  -0.016  -0.014
   17        0.003   0.002  -0.021  -0.016
   18        0.009   0.010   1.250   1.269
   19       -0.000  -0.161   0.000  -0.162
   20       -0.000  -0.089   0.000  -0.089
   21       -0.000  -0.070   0.000  -0.071
   22        0.000  -0.137   0.000  -0.137
   23        0.000  -0.051   0.000  -0.050
   24        0.000  -0.127   0.000  -0.127
   25        0.001  -0.081   0.000  -0.080
   26        0.000  -0.077   0.000  -0.077
   27        0.001  -0.088   0.000  -0.087
   28        0.001  -0.079   0.000  -0.078
   29        0.002  -0.142   0.000  -0.140
   30        0.001  -0.093   0.000  -0.092
   31        0.001  -0.092   0.000  -0.091
   32        0.002  -0.189   0.000  -0.187
   33        0.001  -0.129   0.000  -0.128
   34        0.002  -0.102   0.000  -0.100
   35       -0.001  -0.011   0.000  -0.012
   36        0.000  -0.029   0.000  -0.029
   37        0.001  -0.021   0.000  -0.021
   38        0.000  -0.027   0.000  -0.027
   39        0.000  -0.064   0.000  -0.064
   40       -0.000  -0.060   0.000  -0.060
   41       -0.001  -0.017   0.000  -0.018
   42       -0.001  -0.075   0.000  -0.075
--------------------------------------------------
tot          0.103  -1.907   8.082   6.278
 

 total amount of memory used by VASP MPI-rank0   151688. kBytes
=======================================================================

   base      :      30000. kBytes
   nonlr-proj:       4288. kBytes
   fftplans  :       1577. kBytes
   grid      :       4337. kBytes
   one-center:        342. kBytes
   wavefun   :     111144. kBytes
 
  
  
 General timing and accounting informations for this job:
 ========================================================
  
                  Total CPU time used (sec):     2903.650
                            User time (sec):     2681.421
                          System time (sec):      222.229
                         Elapsed time (sec):     2907.324
  
                   Maximum memory used (kb):      779688.
                   Average memory used (kb):           0.
  
                          Minor page faults:        68599
                          Major page faults:           75
                 Voluntary context switches:          567
