       N       E                     dE             d eps       ncg     rms          ort
DAV:   1     0.346696047354E+04    0.34670E+04   -0.13849E+05  5760   0.212E+03
DAV:   2     0.430485086614E+03   -0.30365E+04   -0.27966E+04  5760   0.515E+02
DAV:   3    -0.216030627276E+03   -0.64652E+03   -0.59898E+03  5760   0.252E+02
DAV:   4    -0.268937995939E+03   -0.52907E+02   -0.51554E+02  5760   0.741E+01
DAV:   5    -0.270903427794E+03   -0.19654E+01   -0.19606E+01  5760   0.145E+01
SDA:   6     0.154566750619E+03    0.42547E+03   -0.19606E+01  5760   0.281E+04 0.000E+00
CGA:   7     0.816293388741E+02   -0.72937E+02   -0.67985E+02  5760   0.231E+04 0.161E+04
CGA:   8     0.123655787277E+02   -0.69264E+02   -0.18088E+02  5760   0.564E+04 0.782E+04
CGA:   9     0.334685305097E-01   -0.12332E+02   -0.13177E+03  5760   0.137E+04 0.961E+03
CGA:  10    -0.110266007938E+03   -0.11030E+03   -0.19645E+02  5760   0.813E+03 0.832E+03
CGA:  11    -0.188940692395E+03   -0.78675E+02   -0.83366E+02  5760   0.112E+04-0.170E+01
CGA:  12    -0.199289493597E+03   -0.10349E+02   -0.28099E+02  5760   0.287E+03-0.549E+03
CGA:  13    -0.200592606692E+03   -0.13031E+01   -0.60165E+01  5760   0.248E+03-0.960E+02
CGA:  14    -0.209352814325E+03   -0.87602E+01   -0.10506E+02  5760   0.128E+03-0.172E+01
CGA:  15    -0.214688694286E+03   -0.53359E+01   -0.74345E+01  5760   0.895E+02-0.143E+02
CGA:  16    -0.217526225819E+03   -0.28375E+01   -0.28250E+01  5760   0.170E+02-0.232E+01
CGA:  17    -0.218292157903E+03   -0.76593E+00   -0.93440E+00  5760   0.152E+02-0.235E+01
CGA:  18    -0.219424959780E+03   -0.11328E+01   -0.11257E+01  5760   0.640E+01-0.237E-01
CGA:  19    -0.219745985343E+03   -0.32103E+00   -0.34085E+00  5760   0.710E+01-0.236E+00
CGA:  20    -0.220421089993E+03   -0.67510E+00   -0.67232E+00  5760   0.186E+01-0.490E-02
CGA:  21    -0.220681760665E+03   -0.26067E+00   -0.25873E+00  5760   0.125E+01 0.804E-01
CGA:  22    -0.220919081229E+03   -0.23732E+00   -0.23500E+00  5760   0.163E+01 0.424E-01
CGA:  23    -0.221045879441E+03   -0.12680E+00   -0.12469E+00  5760   0.227E+01 0.220E-01
CGA:  24    -0.221272078105E+03   -0.22620E+00   -0.22866E+00  5760   0.134E+01 0.321E-01
CGA:  25    -0.221487507533E+03   -0.21543E+00   -0.21569E+00  5760   0.184E+01-0.163E-01
CGA:  26    -0.221611109964E+03   -0.12360E+00   -0.12596E+00  5760   0.246E+01-0.474E-01
CGA:  27    -0.221754930609E+03   -0.14382E+00   -0.13085E+00  5760   0.135E+01 0.147E+00
CGA:  28    -0.221897373875E+03   -0.14244E+00   -0.14445E+00  5760   0.258E+01 0.345E-01
CGA:  29    -0.222001551685E+03   -0.10418E+00   -0.10042E+00  5760   0.791E+00 0.259E-01
CGA:  30    -0.222128268093E+03   -0.12672E+00   -0.12712E+00  5760   0.173E+01-0.129E-01
CGA:  31    -0.222200794187E+03   -0.72526E-01   -0.75671E-01  5760   0.783E+00-0.580E-01
CGA:  32    -0.222289951490E+03   -0.89157E-01   -0.89214E-01  5760   0.111E+01-0.558E-02
CGA:  33    -0.222346738046E+03   -0.56787E-01   -0.60046E-01  5760   0.801E+00-0.125E+00
CGA:  34    -0.222386022822E+03   -0.39285E-01   -0.41534E-01  5760   0.843E+00-0.129E-01
CGA:  35    -0.222453685934E+03   -0.67663E-01   -0.63489E-01  5760   0.776E+00 0.380E-01
CGA:  36    -0.222487809145E+03   -0.34123E-01   -0.39321E-01  5760   0.799E+00-0.170E+00
CGA:  37    -0.222531805150E+03   -0.43996E-01   -0.45091E-01  5760   0.409E+00-0.479E-02
CGA:  38    -0.222558532903E+03   -0.26728E-01   -0.25771E-01  5760   0.451E+00-0.180E+00
CGA:  39    -0.222583555263E+03   -0.25022E-01   -0.17271E-01  5760   0.597E+00-0.450E+00
CGA:  40    -0.222599661202E+03   -0.16106E-01   -0.23970E-01  5760   0.159E+00-0.564E-01
CGA:  41    -0.222616315623E+03   -0.16654E-01   -0.16809E-01  5760   0.310E+00 0.296E-02
CGA:  42    -0.222634247428E+03   -0.17932E-01   -0.20923E-01  5760   0.189E+00 0.428E-01
CGA:  43    -0.222655259155E+03   -0.21012E-01   -0.20819E-01  5760   0.176E+00 0.169E-01
CGA:  44    -0.222670020026E+03   -0.14761E-01   -0.14159E-01  5760   0.160E+00-0.340E-02
CGA:  45    -0.222678193855E+03   -0.81738E-02   -0.88875E-02  5760   0.103E+00 0.793E-02
CGA:  46    -0.222687513110E+03   -0.93193E-02   -0.94888E-02  5760   0.120E+00-0.356E-02
CGA:  47    -0.222697196536E+03   -0.96834E-02   -0.95290E-02  5760   0.148E+00-0.884E-02
CGA:  48    -0.222703686977E+03   -0.64904E-02   -0.67504E-02  5760   0.624E-01-0.209E-02
CGA:  49    -0.222707614116E+03   -0.39271E-02   -0.41869E-02  5760   0.645E-01 0.429E-03
CGA:  50    -0.222712098534E+03   -0.44844E-02   -0.44086E-02  5760   0.759E-01-0.578E-02
CGA:  51    -0.222716398901E+03   -0.43004E-02   -0.45551E-02  5760   0.475E-01 0.187E-02
CGA:  52    -0.222719322027E+03   -0.29231E-02   -0.29234E-02  5760   0.604E-01-0.449E-03
CGA:  53    -0.222724456701E+03   -0.51347E-02   -0.51337E-02  5760   0.678E-01 0.127E-02
CGA:  54    -0.222727270594E+03   -0.28139E-02   -0.35283E-02  5760   0.508E-01 0.848E-02
CGA:  55    -0.222730659926E+03   -0.33893E-02   -0.35510E-02  5760   0.676E-01-0.132E-01
CGA:  56    -0.222735657168E+03   -0.49972E-02   -0.60835E-02  5760   0.108E+00-0.140E-01
CGA:  57    -0.222738018488E+03   -0.23613E-02   -0.26734E-02  5760   0.673E-01 0.161E-01
CGA:  58    -0.222741300589E+03   -0.32821E-02   -0.39833E-02  5760   0.101E+00 0.918E-02
CGA:  59    -0.222746363556E+03   -0.50630E-02   -0.53692E-02  5760   0.391E-01-0.260E-01
CGA:  60    -0.222747727329E+03   -0.13638E-02   -0.11948E-02  5760   0.321E-01 0.748E-03
CGA:  61    -0.222750395271E+03   -0.26679E-02   -0.26526E-02  5760   0.710E-01 0.123E-01
CGA:  62    -0.222752676231E+03   -0.22810E-02   -0.41501E-02  5760   0.684E-01 0.426E-01
CGA:  63    -0.222754328157E+03   -0.16519E-02   -0.22254E-02  5760   0.111E-01-0.267E-02
CGA:  64    -0.222755226684E+03   -0.89853E-03   -0.89901E-03  5760   0.178E-01-0.887E-03
CGA:  65    -0.222756607629E+03   -0.13809E-02   -0.13579E-02  5760   0.968E-02 0.966E-03
CGA:  66    -0.222759415320E+03   -0.28077E-02   -0.24668E-02  5760   0.225E-01 0.167E-02
CGA:  67    -0.222760551621E+03   -0.11363E-02   -0.11321E-02  5760   0.102E-01-0.119E-03
CGA:  68    -0.222762605497E+03   -0.20539E-02   -0.20335E-02  5760   0.211E-01 0.324E-03
CGA:  69    -0.222763604550E+03   -0.99905E-03   -0.11392E-02  5760   0.727E-02 0.103E-03
CGA:  70    -0.222764728595E+03   -0.11240E-02   -0.11504E-02  5760   0.209E-01-0.743E-03
CGA:  71    -0.222765958344E+03   -0.12297E-02   -0.12364E-02  5760   0.901E-02 0.195E-03
CGA:  72    -0.222768217837E+03   -0.22595E-02   -0.21918E-02  5760   0.165E-01-0.415E-03
CGA:  73    -0.222769056780E+03   -0.83894E-03   -0.95406E-03  5760   0.106E-01-0.118E-02
CGA:  74    -0.222771115333E+03   -0.20586E-02   -0.18296E-02  5760   0.126E-01 0.253E-02
CGA:  75    -0.222771866012E+03   -0.75068E-03   -0.89082E-03  5760   0.970E-02-0.108E-02
CGA:  76    -0.222773390678E+03   -0.15247E-02   -0.18146E-02  5760   0.364E-01-0.418E-02
CGA:  77    -0.222774460283E+03   -0.10696E-02   -0.86797E-03  5760   0.134E-01-0.573E-03
CGA:  78    -0.222775484748E+03   -0.10245E-02   -0.99717E-03  5760   0.354E-01 0.110E-04
CGA:  79    -0.222777659605E+03   -0.21749E-02   -0.22744E-02  5760   0.310E-01 0.657E-02
CGA:  80    -0.222778475247E+03   -0.81564E-03   -0.11442E-02  5760   0.187E-01-0.460E-02
CGA:  81    -0.222781718038E+03   -0.32428E-02   -0.30942E-02  5760   0.897E-01-0.110E-01
CGA:  82    -0.222783783808E+03   -0.20658E-02   -0.25700E-02  5760   0.138E-01 0.153E-03
CGA:  83    -0.222785191728E+03   -0.14079E-02   -0.13874E-02  5760   0.178E-01-0.760E-03
CGA:  84    -0.222787557040E+03   -0.23653E-02   -0.24661E-02  5760   0.246E-01-0.107E-02
CGA:  85    -0.222789749914E+03   -0.21929E-02   -0.22015E-02  5760   0.381E-01 0.300E-02
CGA:  86    -0.222795676463E+03   -0.59265E-02   -0.60616E-02  5760   0.115E+00-0.270E-01
CGA:  87    -0.222798673335E+03   -0.29969E-02   -0.46711E-02  5760   0.342E-01-0.769E-02
CGA:  88    -0.222801282353E+03   -0.26090E-02   -0.26144E-02  5760   0.375E-01-0.445E-02
CGA:  89    -0.222807426473E+03   -0.61441E-02   -0.68306E-02  5760   0.677E-01-0.379E-02
CGA:  90    -0.222809767489E+03   -0.23410E-02   -0.29747E-02  5760   0.946E-01 0.369E-01
CGA:  91    -0.222813990849E+03   -0.42234E-02   -0.60966E-02  5760   0.371E-01 0.223E-01
CGA:  92    -0.222817578585E+03   -0.35877E-02   -0.37197E-02  5760   0.495E-01 0.106E-01
CGA:  93    -0.222822967072E+03   -0.53885E-02   -0.56006E-02  5760   0.323E-01 0.404E-01
CGA:  94    -0.222825484214E+03   -0.25171E-02   -0.27864E-02  5760   0.228E-01 0.255E-01
CGA:  95    -0.222827890716E+03   -0.24065E-02   -0.22903E-02  5760   0.288E-01 0.251E-01
CGA:  96    -0.222829890139E+03   -0.19994E-02   -0.23706E-02  5760   0.249E-01 0.257E-01
CGA:  97    -0.222832303586E+03   -0.24134E-02   -0.23866E-02  5760   0.303E-01 0.237E-01
CGA:  98    -0.222834185860E+03   -0.18823E-02   -0.22714E-02  5760   0.395E-01 0.176E-01
CGA:  99    -0.222835784535E+03   -0.15987E-02   -0.19833E-02  5760   0.380E-01 0.978E-02
CGA: 100    -0.222845214456E+03   -0.94299E-02   -0.69022E-02  5760   0.665E-01 0.367E-01
CGA: 101    -0.222847795117E+03   -0.25807E-02   -0.27581E-02  5760   0.406E-01 0.451E-03
CGA: 102    -0.222893556492E+03   -0.45761E-01   -0.97701E-02  5760   0.348E+00 0.237E-01
CGA: 103    -0.222903182721E+03   -0.96262E-02   -0.21886E-01  5760   0.207E+00-0.802E-01
CGA: 104    -0.222917857083E+03   -0.14674E-01   -0.14228E-01  5760   0.819E-01 0.199E-01
CGA: 105    -0.222929653302E+03   -0.11796E-01   -0.11549E-01  5760   0.762E-01 0.193E-01
CGA: 106    -0.222939902678E+03   -0.10249E-01   -0.10606E-01  5760   0.761E-01-0.794E-02
CGA: 107    -0.222954495818E+03   -0.14593E-01   -0.17224E-01  5760   0.216E+00-0.292E-01
CGA: 108    -0.222967061636E+03   -0.12566E-01   -0.55042E-02  5760   0.757E-01 0.543E-01
CGA: 109    -0.222971573588E+03   -0.45120E-02   -0.35656E-02  5760   0.431E-01 0.286E-01
CGA: 110    -0.222977898440E+03   -0.63249E-02   -0.65380E-02  5760   0.518E-01 0.552E-03
CGA: 111    -0.222981984820E+03   -0.40864E-02   -0.34799E-02  5760   0.558E-01 0.372E-05
CGA: 112    -0.222985894432E+03   -0.39096E-02   -0.42118E-02  5760   0.489E-01 0.113E-01
CGA: 113    -0.222990161686E+03   -0.42673E-02   -0.38266E-02  5760   0.335E-01 0.280E-02
CGA: 114    -0.222992776597E+03   -0.26149E-02   -0.22423E-02  5760   0.319E-01 0.506E-02
CGA: 115    -0.222995788357E+03   -0.30118E-02   -0.30271E-02  5760   0.442E-01 0.212E-02
CGA: 116    -0.222998467594E+03   -0.26792E-02   -0.24115E-02  5760   0.213E-01 0.415E-03
CGA: 117    -0.222999996817E+03   -0.15292E-02   -0.14983E-02  5760   0.346E-01 0.321E-02
CGA: 118    -0.223004302573E+03   -0.43058E-02   -0.43332E-02  5760   0.316E-01 0.322E-02
CGA: 119    -0.223005778331E+03   -0.14758E-02   -0.14356E-02  5760   0.188E-01 0.398E-02
CGA: 120    -0.223007758204E+03   -0.19799E-02   -0.20465E-02  5760   0.274E-01 0.107E-02
CGA: 121    -0.223009411746E+03   -0.16535E-02   -0.14105E-02  5760   0.133E-01-0.291E-03
CGA: 122    -0.223010845442E+03   -0.14337E-02   -0.14317E-02  5760   0.212E-01 0.656E-03
CGA: 123    -0.223012076296E+03   -0.12309E-02   -0.11153E-02  5760   0.732E-02 0.550E-03
CGA: 124    -0.223012841550E+03   -0.76525E-03   -0.76746E-03  5760   0.118E-01 0.806E-03
CGA: 125    -0.223013739948E+03   -0.89840E-03   -0.87424E-03  5760   0.481E-02 0.320E-03
CGA: 126    -0.223014148585E+03   -0.40864E-03   -0.40127E-03  5760   0.386E-02 0.327E-03
CGA: 127    -0.223014602233E+03   -0.45365E-03   -0.45496E-03  5760   0.477E-02-0.261E-03
CGA: 128    -0.223014968988E+03   -0.36675E-03   -0.34488E-03  5760   0.445E-02 0.158E-03
CGA: 129    -0.223015486697E+03   -0.51771E-03   -0.52114E-03  5760   0.338E-02-0.218E-03
CGA: 130    -0.223015703956E+03   -0.21726E-03   -0.20596E-03  5760   0.316E-02 0.277E-03
CGA: 131    -0.223016152889E+03   -0.44893E-03   -0.44707E-03  5760   0.322E-02 0.183E-03
CGA: 132    -0.223016449324E+03   -0.29644E-03   -0.29505E-03  5760   0.422E-02 0.120E-03
SDA: 133    -0.223016921187E+03   -0.47186E-03   -0.47316E-03  5760   0.389E-02-0.210E-03
CGA: 134    -0.223017210834E+03   -0.28965E-03   -0.27049E-03  5760   0.172E-02 0.354E-03
CGA: 135    -0.223017417728E+03   -0.20689E-03   -0.21018E-03  5760   0.115E-02-0.140E-03
CGA: 136    -0.223017546870E+03   -0.12914E-03   -0.13140E-03  5760   0.186E-02 0.338E-04
CGA: 137    -0.223017746264E+03   -0.19939E-03   -0.19946E-03  5760   0.114E-02-0.356E-04
CGA: 138    -0.223017950834E+03   -0.20457E-03   -0.21365E-03  5760   0.153E-02 0.353E-04
CGA: 139    -0.223018120770E+03   -0.16994E-03   -0.16981E-03  5760   0.123E-02 0.520E-05
CGA: 140    -0.223018378855E+03   -0.25809E-03   -0.26215E-03  5760   0.236E-02-0.352E-04
CGA: 141    -0.223018583355E+03   -0.20450E-03   -0.19351E-03  5760   0.180E-02-0.447E-04
CGA: 142    -0.223018797705E+03   -0.21435E-03   -0.21680E-03  5760   0.121E-02 0.114E-04
CGA: 143    -0.223018978741E+03   -0.18104E-03   -0.19080E-03  5760   0.172E-02 0.129E-03
CGA: 144    -0.223019199440E+03   -0.22070E-03   -0.22078E-03  5760   0.131E-02 0.798E-04
CGA: 145    -0.223019394487E+03   -0.19505E-03   -0.19592E-03  5760   0.244E-02 0.397E-04
CGA: 146    -0.223019683604E+03   -0.28912E-03   -0.28867E-03  5760   0.168E-02-0.258E-03
CGA: 147    -0.223019913509E+03   -0.22990E-03   -0.26192E-03  5760   0.306E-02-0.101E-03
CGA: 148    -0.223020247585E+03   -0.33408E-03   -0.33474E-03  5760   0.272E-02 0.423E-03
CGA: 149    -0.223020653486E+03   -0.40590E-03   -0.40143E-03  5760   0.253E-02 0.301E-03
CGA: 150    -0.223020933759E+03   -0.28027E-03   -0.25884E-03  5760   0.230E-02-0.146E-03
CGA: 151    -0.223021364560E+03   -0.43080E-03   -0.49775E-03  5760   0.352E-02-0.314E-03
CGA: 152    -0.223021596068E+03   -0.23151E-03   -0.21936E-03  5760   0.279E-02 0.121E-03
CGA: 153    -0.223022125437E+03   -0.52937E-03   -0.53021E-03  5760   0.199E-02 0.127E-03
CGA: 154    -0.223022483194E+03   -0.35776E-03   -0.34861E-03  5760   0.332E-02 0.200E-03
CGA: 155    -0.223022816927E+03   -0.33373E-03   -0.31483E-03  5760   0.300E-02-0.236E-05
CGA: 156    -0.223023260997E+03   -0.44407E-03   -0.45809E-03  5760   0.298E-02-0.149E-03
CGA: 157    -0.223023519251E+03   -0.25825E-03   -0.24892E-03  5760   0.211E-02 0.882E-04
CGA: 158    -0.223023910249E+03   -0.39100E-03   -0.40408E-03  5760   0.153E-02-0.123E-03
CGA: 159    -0.223024102616E+03   -0.19237E-03   -0.19282E-03  5760   0.184E-02 0.434E-04
CGA: 160    -0.223024263376E+03   -0.16076E-03   -0.15159E-03  5760   0.115E-02 0.488E-04
CGA: 161    -0.223024405152E+03   -0.14178E-03   -0.14122E-03  5760   0.808E-03 0.419E-04
CGA: 162    -0.223024480614E+03   -0.75462E-04   -0.72922E-04  5760   0.505E-03 0.273E-04
CGA: 163    -0.223024558480E+03   -0.77866E-04   -0.82070E-04  5760   0.533E-03-0.338E-04
SDA: 164    -0.223024597634E+03   -0.39155E-04   -0.37264E-04  5760   0.382E-03 0.139E-04
CGA: 165    -0.223024624229E+03   -0.26595E-04   -0.24728E-04  5760   0.295E-03 0.332E-04
CGA: 166    -0.223024660456E+03   -0.36227E-04   -0.36019E-04  5760   0.148E-03-0.771E-05
CGA: 167    -0.223024695482E+03   -0.35026E-04   -0.38050E-04  5760   0.406E-03 0.221E-05
CGA: 168    -0.223024729438E+03   -0.33956E-04   -0.30378E-04  5760   0.215E-03 0.984E-05
CGA: 169    -0.223024781594E+03   -0.52156E-04   -0.54891E-04  5760   0.580E-03 0.474E-05
CGA: 170    -0.223024831546E+03   -0.49952E-04   -0.46288E-04  5760   0.295E-03 0.730E-05
CGA: 171    -0.223024937919E+03   -0.10637E-03   -0.11123E-03  5760   0.643E-03-0.994E-06
CGA: 172    -0.223024984881E+03   -0.46962E-04   -0.43089E-04  5760   0.489E-03 0.473E-04
CGA: 173    -0.223025082282E+03   -0.97401E-04   -0.10089E-03  5760   0.344E-03-0.227E-04
CGA: 174    -0.223025151496E+03   -0.69214E-04   -0.69422E-04  5760   0.828E-03 0.179E-04
CGA: 175    -0.223025231548E+03   -0.80052E-04   -0.74111E-04  5760   0.539E-03 0.170E-05
CGA: 176    -0.223025331563E+03   -0.10001E-03   -0.10498E-03  5760   0.107E-02 0.762E-05
CGA: 177    -0.223025422785E+03   -0.91222E-04   -0.80479E-04  5760   0.427E-03 0.430E-04
CGA: 178    -0.223025512736E+03   -0.89951E-04   -0.92726E-04  5760   0.569E-03-0.652E-05
CGA: 179    -0.223025559617E+03   -0.46881E-04   -0.43293E-04  5760   0.533E-03 0.476E-04
CGA: 180    -0.223025680298E+03   -0.12068E-03   -0.12387E-03  5760   0.431E-03-0.284E-04
CGA: 181    -0.223025723251E+03   -0.42953E-04   -0.40873E-04  5760   0.478E-03 0.246E-04
CGA: 182    -0.223025779891E+03   -0.56640E-04   -0.55532E-04  5760   0.280E-03 0.379E-05
CGA: 183    -0.223025811808E+03   -0.31917E-04   -0.31128E-04  5760   0.373E-03 0.172E-04
CGA: 184    -0.223025866313E+03   -0.54505E-04   -0.54498E-04  5760   0.289E-03-0.127E-04
CGA: 185    -0.223025899781E+03   -0.33468E-04   -0.32562E-04  5760   0.370E-03 0.669E-05
CGA: 186    -0.223025940034E+03   -0.40252E-04   -0.39247E-04  5760   0.218E-03-0.115E-05
CGA: 187    -0.223025965236E+03   -0.25203E-04   -0.24418E-04  5760   0.259E-03 0.105E-04
CGA: 188    -0.223026000383E+03   -0.35147E-04   -0.35086E-04  5760   0.208E-03-0.102E-05
CGA: 189    -0.223026025144E+03   -0.24761E-04   -0.24396E-04  5760   0.222E-03 0.646E-05
CGA: 190    -0.223026044540E+03   -0.19396E-04   -0.17859E-04  5760   0.919E-04 0.800E-05
CGA: 191    -0.223026058343E+03   -0.13803E-04   -0.14014E-04  5760   0.127E-03 0.353E-06
CGA: 192    -0.223026070508E+03   -0.12166E-04   -0.11674E-04  5760   0.796E-04 0.122E-05
CGA: 193    -0.223026080942E+03   -0.10434E-04   -0.10445E-04  5760   0.837E-04 0.704E-06
CGA: 194    -0.223026087587E+03   -0.66446E-05   -0.62608E-05  5760   0.412E-04 0.180E-05
SDA: 195    -0.223026096496E+03   -0.89094E-05   -0.93373E-05  5760   0.548E-04-0.137E-05
CGA: 196    -0.223026099362E+03   -0.28659E-05   -0.24719E-05  5760   0.253E-04 0.624E-05
CGA: 197    -0.223026104529E+03   -0.51668E-05   -0.52139E-05  5760   0.194E-04-0.644E-06
CGA: 198    -0.223026108821E+03   -0.42921E-05   -0.43810E-05  5760   0.539E-04 0.100E-05
CGA: 199    -0.223026113146E+03   -0.43249E-05   -0.39903E-05  5760   0.219E-04 0.142E-05
CGA: 200    -0.223026116441E+03   -0.32948E-05   -0.33431E-05  5760   0.448E-04 0.169E-05
CGA: 201    -0.223026122479E+03   -0.60389E-05   -0.60038E-05  5760   0.287E-04-0.239E-05
CGA: 202    -0.223026129828E+03   -0.73482E-05   -0.82638E-05  5760   0.461E-04-0.216E-05
CGA: 203    -0.223026133497E+03   -0.36691E-05   -0.32974E-05  5760   0.379E-04 0.366E-05
CGA: 204    -0.223026140311E+03   -0.68147E-05   -0.69094E-05  5760   0.484E-04-0.396E-06
CGA: 205    -0.223026143768E+03   -0.34569E-05   -0.30256E-05  5760   0.249E-04 0.240E-05
CGA: 206    -0.223026151817E+03   -0.80488E-05   -0.82153E-05  5760   0.287E-04-0.877E-06
CGA: 207    -0.223026154629E+03   -0.28117E-05   -0.27098E-05  5760   0.400E-04 0.251E-05
CGA: 208    -0.223026159638E+03   -0.50093E-05   -0.49415E-05  5760   0.206E-04 0.441E-06
CGA: 209    -0.223026162045E+03   -0.24074E-05   -0.23410E-05  5760   0.303E-04 0.206E-05
CGA: 210    -0.223026167714E+03   -0.56687E-05   -0.59050E-05  5760   0.241E-04-0.207E-05
CGA: 211    -0.223026170149E+03   -0.24351E-05   -0.23472E-05  5760   0.275E-04 0.144E-05
CGA: 212    -0.223026173205E+03   -0.30553E-05   -0.29355E-05  5760   0.161E-04 0.362E-06
CGA: 213    -0.223026174887E+03   -0.16820E-05   -0.16039E-05  5760   0.154E-04 0.559E-06
CGA: 214    -0.223026177614E+03   -0.27270E-05   -0.27829E-05  5760   0.151E-04-0.188E-06
CGA: 215    -0.223026179030E+03   -0.14160E-05   -0.13452E-05  5760   0.135E-04 0.992E-06
CGA: 216    -0.223026180824E+03   -0.17944E-05   -0.17696E-05  5760   0.117E-04 0.687E-06
CGA: 217    -0.223026181929E+03   -0.11049E-05   -0.10788E-05  5760   0.721E-05 0.601E-06
CGA: 218    -0.223026183212E+03   -0.12833E-05   -0.13640E-05  5760   0.102E-04 0.118E-06
CGA: 219    -0.223026184012E+03   -0.80017E-06   -0.74718E-06  5760   0.681E-05 0.370E-06
CGA: 220    -0.223026185397E+03   -0.13848E-05   -0.14361E-05  5760   0.795E-05-0.308E-06
CGA: 221    -0.223026186037E+03   -0.63950E-06   -0.56438E-06  5760   0.436E-05 0.377E-06
   1 F= -.23171386E+03 E0= -.23170738E+03  d E =-.129636E-01  mag=     6.0000
