 vasp.5.4.4.18Apr17-6-g9f103f2a35 (build Nov 22 2021 14:44:17) complex          
  
 executed on             LinuxIFC date 2022.08.06  11:36:41
 running on   64 total cores
 distrk:  each k-point on   64 cores,    1 groups
 distr:  one band on NCORES_PER_BAND=   4 cores,   16 groups


--------------------------------------------------------------------------------------------------------


 INCAR:
 POTCAR:    PAW_PBE Li 17Jan2003                  
 POTCAR:    PAW_PBE Co 02Aug2007                  
 POTCAR:    PAW_PBE O 08Apr2002                   
 POTCAR:    PAW_PBE Li 17Jan2003                  
   VRHFIN =Li: s1p0                                                             
   LEXCH  = PE                                                                  
   EATOM  =     5.3001 eV,    0.3895 Ry                                         
                                                                                
   TITEL  = PAW_PBE Li 17Jan2003                                                
   LULTRA =        F    use ultrasoft PP ?                                      
   IUNSCR =        1    unscreen: 0-lin 1-nonlin 2-no                           
   RPACOR =    1.500    partial core radius                                     
   POMASS =    7.010; ZVAL   =    1.000    mass and valenz                      
   RCORE  =    2.050    outmost cutoff radius                                   
   RWIGS  =    2.600; RWIGS  =    1.376    wigner-seitz radius (au A)           
   ENMAX  =  140.000; ENMIN  =  100.000 eV                                      
   ICORE  =        2    local potential                                         
   LCOR   =        T    correct aug charges                                     
   LPAW   =        T    paw PP                                                  
   EAUG   =  331.638                                                            
   DEXC   =    0.000                                                            
   RMAX   =    2.098    core radius for proj-oper                               
   RAUG   =    1.300    factor for augmentation sphere                          
   RDEP   =    2.094    radius for radial grids                                 
   RDEPT  =    1.810    core radius for aug-charge                              
                                                                                
   Atomic configuration                                                         
    4 entries                                                                   
     n  l   j            E        occ.                                          
     1  0  0.50       -51.8549   2.0000                                         
     2  0  0.50        -2.8742   1.0000                                         
     2  1  0.50        -1.3606   0.0000                                         
     3  2  1.50        -1.3606   0.0000                                         
   Description                                                                  
     l       E           TYP  RCUT    TYP  RCUT                                 
     0     -2.8742052     23  2.050                                             
     0     27.2116520     23  2.050                                             
     1     -1.3605826     23  2.050                                             
     2     -1.3605826     23  2.050                                             
  local pseudopotential read in
  partial core-charges read in
  partial kinetic energy density read in
  atomic valenz-charges read in
  non local Contribution for L=           0  read in
    real space projection operators read in
  non local Contribution for L=           0  read in
    real space projection operators read in
  non local Contribution for L=           1  read in
    real space projection operators read in
    PAW grid and wavefunctions read in
 
   number of l-projection  operators is LMAX  =           3
   number of lm-projection operators is LMMAX =           5
 
 POTCAR:    PAW_PBE Co 02Aug2007                  
   VRHFIN =Co: d8 s1                                                            
   LEXCH  = PE                                                                  
   EATOM  =   813.3670 eV,   59.7808 Ry                                         
                                                                                
   TITEL  = PAW_PBE Co 02Aug2007                                                
   LULTRA =        F    use ultrasoft PP ?                                      
   IUNSCR =        1    unscreen: 0-lin 1-nonlin 2-no                           
   RPACOR =    2.000    partial core radius                                     
   POMASS =   58.933; ZVAL   =    9.000    mass and valenz                      
   RCORE  =    2.300    outmost cutoff radius                                   
   RWIGS  =    2.460; RWIGS  =    1.302    wigner-seitz radius (au A)           
   ENMAX  =  267.968; ENMIN  =  200.976 eV                                      
   RCLOC  =    1.203    cutoff for local pot                                    
   LCOR   =        T    correct aug charges                                     
   LPAW   =        T    paw PP                                                  
   EAUG   =  477.818                                                            
   DEXC   =    0.000                                                            
   RMAX   =    2.360    core radius for proj-oper                               
   RAUG   =    1.300    factor for augmentation sphere                          
   RDEP   =    2.393    radius for radial grids                                 
   RDEPT  =    1.864    core radius for aug-charge                              
                                                                                
   Atomic configuration                                                         
    9 entries                                                                   
     n  l   j            E        occ.                                          
     1  0  0.50     -7587.6674   2.0000                                         
     2  0  0.50      -893.6084   2.0000                                         
     2  1  1.50      -764.5805   6.0000                                         
     3  0  0.50       -97.5973   2.0000                                         
     3  1  1.50       -60.9648   6.0000                                         
     3  2  2.50        -4.2382   8.0000                                         
     4  0  0.50        -4.3746   1.0000                                         
     4  1  1.50        -4.0817   0.0000                                         
     4  3  2.50        -1.3606   0.0000                                         
   Description                                                                  
     l       E           TYP  RCUT    TYP  RCUT                                 
     2     -4.2382362     23  2.300                                             
     2     -5.5988188     23  2.300                                             
     0     -4.3745797     23  2.300                                             
     0      5.7660125     23  2.300                                             
     1     -2.7211652     23  2.300                                             
     1     16.9860234     23  2.300                                             
  local pseudopotential read in
  partial core-charges read in
  partial kinetic energy density read in
  atomic valenz-charges read in
  non local Contribution for L=           2  read in
    real space projection operators read in
  non local Contribution for L=           2  read in
    real space projection operators read in
  non local Contribution for L=           0  read in
    real space projection operators read in
  non local Contribution for L=           0  read in
    real space projection operators read in
  non local Contribution for L=           1  read in
    real space projection operators read in
  non local Contribution for L=           1  read in
    real space projection operators read in
    PAW grid and wavefunctions read in
 
   number of l-projection  operators is LMAX  =           6
   number of lm-projection operators is LMMAX =          18
 
 POTCAR:    PAW_PBE O 08Apr2002                   
   VRHFIN =O: s2p4                                                              
   LEXCH  = PE                                                                  
   EATOM  =   432.3788 eV,   31.7789 Ry                                         
                                                                                
   TITEL  = PAW_PBE O 08Apr2002                                                 
   LULTRA =        F    use ultrasoft PP ?                                      
   IUNSCR =        1    unscreen: 0-lin 1-nonlin 2-no                           
   RPACOR =    1.200    partial core radius                                     
   POMASS =   16.000; ZVAL   =    6.000    mass and valenz                      
   RCORE  =    1.520    outmost cutoff radius                                   
   RWIGS  =    1.550; RWIGS  =    0.820    wigner-seitz radius (au A)           
   ENMAX  =  400.000; ENMIN  =  300.000 eV                                      
   ICORE  =        2    local potential                                         
   LCOR   =        T    correct aug charges                                     
   LPAW   =        T    paw PP                                                  
   EAUG   =  605.392                                                            
   DEXC   =    0.000                                                            
   RMAX   =    1.553    core radius for proj-oper                               
   RAUG   =    1.300    factor for augmentation sphere                          
   RDEP   =    1.550    radius for radial grids                                 
   RDEPT  =    1.329    core radius for aug-charge                              
                                                                                
   Atomic configuration                                                         
    4 entries                                                                   
     n  l   j            E        occ.                                          
     1  0  0.50      -514.6923   2.0000                                         
     2  0  0.50       -23.9615   2.0000                                         
     2  1  0.50        -9.0305   4.0000                                         
     3  2  1.50        -9.5241   0.0000                                         
   Description                                                                  
     l       E           TYP  RCUT    TYP  RCUT                                 
     0    -23.9615318     23  1.200                                             
     0     -9.5240782     23  1.200                                             
     1     -9.0304911     23  1.520                                             
     1      8.1634956     23  1.520                                             
     2     -9.5240782      7  1.500                                             
  local pseudopotential read in
  partial core-charges read in
  partial kinetic energy density read in
  kinetic energy density of atom read in
  atomic valenz-charges read in
  non local Contribution for L=           0  read in
    real space projection operators read in
  non local Contribution for L=           0  read in
    real space projection operators read in
  non local Contribution for L=           1  read in
    real space projection operators read in
  non local Contribution for L=           1  read in
    real space projection operators read in
    PAW grid and wavefunctions read in
 
   number of l-projection  operators is LMAX  =           4
   number of lm-projection operators is LMMAX =           8
 
 Optimization of the real space projectors (new method)

 maximal supplied QI-value         = 18.33
 optimisation between [QCUT,QGAM] = [ 12.46, 24.93] = [ 43.51,174.03] Ry 
 Optimized for a Real-space Cutoff    1.13 Angstroem

   l    n(q)    QCUT    max X(q) W(low)/X(q) W(high)/X(q)  e(spline) 
   0      8    12.465    33.825    0.12E-03    0.29E-03    0.99E-07
   0      8    12.465     8.944    0.86E-04    0.22E-03    0.72E-07
   1      8    12.465     4.214    0.27E-03    0.11E-03    0.82E-07
 Optimization of the real space projectors (new method)

 maximal supplied QI-value         = 16.25
 optimisation between [QCUT,QGAM] = [ 12.51, 25.03] = [ 43.85,175.40] Ry 
 Optimized for a Real-space Cutoff    1.31 Angstroem

   l    n(q)    QCUT    max X(q) W(low)/X(q) W(high)/X(q)  e(spline) 
   2      9    12.514    65.824    0.30E-03    0.46E-03    0.43E-06
   2      9    12.514    61.429    0.31E-03    0.46E-03    0.44E-06
   0     10    12.514    56.174    0.90E-04    0.33E-03    0.30E-06
   0     10    12.514    31.263    0.81E-04    0.30E-03    0.28E-06
   1      9    12.514    19.828    0.38E-03    0.65E-04    0.24E-06
   1      9    12.514    15.139    0.32E-03    0.60E-04    0.20E-06
 Optimization of the real space projectors (new method)

 maximal supplied QI-value         = 24.76
 optimisation between [QCUT,QGAM] = [ 12.38, 25.00] = [ 42.90,175.06] Ry 
 Optimized for a Real-space Cutoff    1.13 Angstroem

   l    n(q)    QCUT    max X(q) W(low)/X(q) W(high)/X(q)  e(spline) 
   0      8    12.378    20.381    0.16E-03    0.54E-05    0.27E-06
   0      8    12.378    15.268    0.17E-03    0.61E-05    0.29E-06
   1      8    12.378     5.964    0.38E-03    0.23E-03    0.28E-06
   1      8    12.378     5.382    0.33E-03    0.20E-03    0.25E-06
  PAW_PBE Li 17Jan2003                  :
 energy of atom  1       EATOM=   -5.3001
 kinetic energy error for atom=    0.0000 (will be added to EATOM!!)
  PAW_PBE Co 02Aug2007                  :
 energy of atom  2       EATOM= -813.3670
 kinetic energy error for atom=    0.0018 (will be added to EATOM!!)
  PAW_PBE O 08Apr2002                   :
 energy of atom  3       EATOM= -432.3788
 kinetic energy error for atom=    0.0168 (will be added to EATOM!!)
 
 
 POSCAR: Li6 Co12 O24                            
  positions in cartesian coordinates
  No initial velocities read in
 exchange correlation table for  LEXCH =        8
   RHO(1)=    0.500       N(1)  =     2000
   RHO(2)=  100.500       N(2)  =     4000
 


--------------------------------------------------------------------------------------------------------


 ion  position               nearest neighbor table
   1  0.025  0.996  0.006-  23 1.81  25 2.04  38 2.11  36 2.15  26 2.15  35 2.29   2 2.52   7 2.60
                             8 2.80  18 2.87  10 3.04  15 3.07   2 3.11
   2  0.473  0.996  0.004-  23 1.83  36 1.91  25 2.02  24 2.17  37 2.34  38 2.36   1 2.52   9 2.67
                            16 2.82   8 2.91  10 2.94  15 2.97   1 3.11
   3  0.766  0.082  0.334-  21 1.98  34 2.00  19 2.18  33 2.32  31 2.36   4 2.38  20 2.47  10 2.76
                            13 2.89  11 2.91   9 3.11  12 3.13   4 3.19
   4  0.856  0.702  0.335-  32 1.97  19 2.11  34 2.21  22 2.32  20 2.32   3 2.38  33 2.50  11 2.80
                            10 2.87   8 2.89  12 3.04  14 3.17   9 3.18   3 3.19
   5  0.156  0.346  0.686-  39 1.85  40 2.03  28 2.08  42 2.26  29 2.29  27 2.47  17 2.60  15 2.66
                             6 2.70  16 2.77   6 2.84  12 2.96  14 3.12  11 3.14
   6  0.137  0.848  0.667-  39 2.00  30 2.05  27 2.07  40 2.11  41 2.22  28 2.22   5 2.70  11 2.73
                             5 2.84  18 2.87  12 2.91  16 2.99  13 3.00  15 3.01
   7  0.153  0.322  0.150-  24 1.75  25 1.87  19 1.96  20 1.97  23 2.00  22 2.02   1 2.60   9 2.69
                            10 2.73   8 2.76   8 2.79  10 2.87   9 2.94
   8  0.166  0.831  0.171-  21 1.84  20 1.89  19 1.89  23 1.90  26 1.93  24 2.00   7 2.76   9 2.76
                             7 2.79  10 2.79   1 2.80  10 2.84   9 2.85   4 2.89   2 2.91
   9  0.679  0.330  0.153-  26 1.77  22 1.88  21 1.91  20 1.92  25 1.92  23 1.98   2 2.67   7 2.69
                            10 2.71   8 2.76  10 2.82   8 2.85   7 2.94   3 3.11   4 3.18
  10  0.648  0.804  0.167-  26 1.82  24 1.82  22 1.85  19 1.90  21 1.90  25 2.05   9 2.71   7 2.73
                             3 2.76   8 2.79   9 2.82   8 2.84   4 2.87   7 2.87   2 2.94   1 3.04
  11  0.994  0.992  0.504-  27 1.79  32 1.87  34 1.88  31 1.90  29 1.93  30 2.05  12 2.68   6 2.73
                            14 2.76  13 2.79   4 2.80  14 2.83  12 2.83  13 2.84   3 2.91   5 3.14
  12  0.976  0.470  0.509-  28 1.80  29 1.87  33 1.88  31 1.93  32 1.94  30 2.04  11 2.68  14 2.73
                            13 2.77  13 2.81  11 2.83  14 2.90   6 2.91   5 2.96   4 3.04   3 3.13
  13  0.486  0.967  0.504-  34 1.80  33 1.85  29 1.88  27 1.95  32 1.96  28 2.00  14 2.71  12 2.77
                            11 2.79  14 2.80  12 2.81  11 2.84   3 2.89   6 3.00
  14  0.496  0.479  0.511-  30 1.76  27 1.81  33 1.87  34 1.95  31 1.98  28 2.02  13 2.71  12 2.73
                            11 2.76  13 2.80  11 2.83  12 2.90   5 3.12   4 3.17
  15  0.360  0.222  0.834-  35 1.85  39 1.89  37 1.90  42 1.96  41 1.97  36 2.17   5 2.66  18 2.69
                            16 2.71  17 2.73  16 2.80  18 2.90  17 2.91   2 2.97   6 3.01   1 3.07
  16  0.377  0.722  0.833-  36 1.85  40 1.86  42 1.87  38 1.91  41 1.92  35 2.09  17 2.60  15 2.71
                             5 2.77  18 2.79  15 2.80   2 2.82  18 2.85   6 2.99  17 2.99
  17  0.831  0.198  0.823-  37 1.78  41 1.80  40 1.88  35 1.95  38 1.98  39 1.98   5 2.60  16 2.60
                            18 2.64  15 2.73  18 2.88  15 2.91  16 2.99
  18  0.855  0.688  0.835-  42 1.73  40 1.81  38 1.87  37 1.88  36 1.94  39 2.01  17 2.64  15 2.69
                            16 2.79  16 2.85   1 2.87   6 2.87  17 2.88  15 2.90
  19  0.992  0.001  0.231-   8 1.89  10 1.90   7 1.96   4 2.11   3 2.18
  20  0.000  0.487  0.232-   8 1.89   9 1.92   7 1.97   4 2.32   3 2.47
  21  0.508  0.008  0.228-   8 1.84  10 1.90   9 1.91   3 1.98
  22  0.503  0.467  0.227-  10 1.85   9 1.88   7 2.02   4 2.32
  23  0.319  0.125  0.085-   1 1.81   2 1.83   8 1.90   9 1.98   7 2.00
  24  0.330  0.648  0.097-   7 1.75  10 1.82   8 2.00   2 2.17
  25  0.822  0.140  0.082-   7 1.87   9 1.92   2 2.02   1 2.04  10 2.05
  26  0.822  0.662  0.102-   9 1.77  10 1.82   8 1.93   1 2.15
  27  0.314  0.147  0.567-  11 1.79  14 1.81  13 1.95   6 2.07   5 2.47
  28  0.287  0.626  0.580-  12 1.80  13 2.00  14 2.02   5 2.08   6 2.22
  29  0.813  0.141  0.576-  12 1.87  13 1.88  11 1.93   5 2.29
  30  0.795  0.644  0.582-  14 1.76  12 2.04  11 2.05   6 2.05
  31  0.154  0.324  0.433-  11 1.90  12 1.93  14 1.98   3 2.36
  32  0.132  0.805  0.436-  11 1.87  12 1.94  13 1.96   4 1.97
  33  0.640  0.301  0.442-  13 1.85  14 1.87  12 1.88   3 2.32   4 2.50
  34  0.653  0.820  0.439-  13 1.80  11 1.88  14 1.95   3 2.00   4 2.21
  35  0.164  0.343  0.901-  15 1.85  17 1.95  16 2.09   1 2.29
  36  0.193  0.834  0.910-  16 1.85   2 1.91  18 1.94   1 2.15  15 2.17
  37  0.701  0.352  0.899-  17 1.78  18 1.88  15 1.90   2 2.34
  38  0.713  0.870  0.903-  18 1.87  16 1.91  17 1.98   1 2.11   2 2.36
  39  0.032  0.038  0.761-   5 1.85  15 1.89  17 1.98   6 2.00  18 2.01
  40  0.036  0.553  0.772-  18 1.81  16 1.86  17 1.88   5 2.03   6 2.11
  41  0.513  0.044  0.757-  17 1.80  16 1.92  15 1.97   6 2.22
  42  0.558  0.573  0.768-  18 1.73  16 1.87  15 1.96   5 2.26
 

IMPORTANT INFORMATION: All symmetrisations will be switched off!
NOSYMM: (Re-)initialisation of all symmetry stuff for point group C_1.

 
 

Automatic generation of k-mesh.
 generate k-points for:    6    6    2
Space group operators:
 irot       det(A)        alpha          n_x          n_y          n_z        tau_x        tau_y        tau_z
    1     1.000000     0.000000     1.000000     0.000000     0.000000     0.000000     0.000000     0.000000
 
 Subroutine IBZKPT returns following result:
 ===========================================
 
 Found     36 irreducible k-points:
 
 Following reciprocal coordinates:
            Coordinates               Weight
  0.083333  0.083333  0.250000      2.000000
  0.250000  0.083333  0.250000      2.000000
  0.416667  0.083333  0.250000      2.000000
 -0.416667  0.083333  0.250000      2.000000
 -0.250000  0.083333  0.250000      2.000000
 -0.083333  0.083333  0.250000      2.000000
  0.083333  0.250000  0.250000      2.000000
  0.250000  0.250000  0.250000      2.000000
  0.416667  0.250000  0.250000      2.000000
 -0.416667  0.250000  0.250000      2.000000
 -0.250000  0.250000  0.250000      2.000000
 -0.083333  0.250000  0.250000      2.000000
  0.083333  0.416667  0.250000      2.000000
  0.250000  0.416667  0.250000      2.000000
  0.416667  0.416667  0.250000      2.000000
 -0.416667  0.416667  0.250000      2.000000
 -0.250000  0.416667  0.250000      2.000000
 -0.083333  0.416667  0.250000      2.000000
  0.083333 -0.416667  0.250000      2.000000
  0.250000 -0.416667  0.250000      2.000000
  0.416667 -0.416667  0.250000      2.000000
 -0.416667 -0.416667  0.250000      2.000000
 -0.250000 -0.416667  0.250000      2.000000
 -0.083333 -0.416667  0.250000      2.000000
  0.083333 -0.250000  0.250000      2.000000
  0.250000 -0.250000  0.250000      2.000000
  0.416667 -0.250000  0.250000      2.000000
 -0.416667 -0.250000  0.250000      2.000000
 -0.250000 -0.250000  0.250000      2.000000
 -0.083333 -0.250000  0.250000      2.000000
  0.083333 -0.083333  0.250000      2.000000
  0.250000 -0.083333  0.250000      2.000000
  0.416667 -0.083333  0.250000      2.000000
 -0.416667 -0.083333  0.250000      2.000000
 -0.250000 -0.083333  0.250000      2.000000
 -0.083333 -0.083333  0.250000      2.000000
 
 Following cartesian coordinates:
            Coordinates               Weight
  0.014808  0.025944  0.018113      2.000000
  0.044423  0.042924  0.019447      2.000000
  0.074038  0.059905  0.020781      2.000000
 -0.074038 -0.024999  0.014111      2.000000
 -0.044423 -0.008018  0.015445      2.000000
 -0.014808  0.008963  0.016779      2.000000
  0.014808  0.060850  0.018799      2.000000
  0.044423  0.077831  0.020133      2.000000
  0.074038  0.094811  0.021467      2.000000
 -0.074038  0.009907  0.014796      2.000000
 -0.044423  0.026888  0.016131      2.000000
 -0.014808  0.043869  0.017465      2.000000
  0.014808  0.095756  0.019485      2.000000
  0.044423  0.112737  0.020819      2.000000
  0.074038  0.129718  0.022153      2.000000
 -0.074038  0.044813  0.015482      2.000000
 -0.044423  0.061794  0.016816      2.000000
 -0.014808  0.078775  0.018150      2.000000
  0.014808 -0.078775  0.016055      2.000000
  0.044423 -0.061794  0.017390      2.000000
  0.074038 -0.044813  0.018724      2.000000
 -0.074038 -0.129718  0.012053      2.000000
 -0.044423 -0.112737  0.013387      2.000000
 -0.014808 -0.095756  0.014721      2.000000
  0.014808 -0.043869  0.016741      2.000000
  0.044423 -0.026888  0.018075      2.000000
  0.074038 -0.009907  0.019409      2.000000
 -0.074038 -0.094811  0.012739      2.000000
 -0.044423 -0.077831  0.014073      2.000000
 -0.014808 -0.060850  0.015407      2.000000
  0.014808 -0.008963  0.017427      2.000000
  0.044423  0.008018  0.018761      2.000000
  0.074038  0.024999  0.020095      2.000000
 -0.074038 -0.059905  0.013425      2.000000
 -0.044423 -0.042924  0.014759      2.000000
 -0.014808 -0.025944  0.016093      2.000000
 


--------------------------------------------------------------------------------------------------------




 Dimension of arrays:
   k-points           NKPTS =     36   k-points in BZ     NKDIM =     36   number of bands    NBANDS=    160
   number of dos      NEDOS =    301   number of ions     NIONS =     42
   non local maximal  LDIM  =      6   non local SUM 2l+1 LMDIM =     18
   total plane-waves  NPLWV = 116640
   max r-space proj   IRMAX =   2825   max aug-charges    IRDMAX=  11910
   dimension x,y,z NGX =    36 NGY =   36 NGZ =   90
   dimension x,y,z NGXF=    72 NGYF=   72 NGZF=  180
   support grid    NGXF=    72 NGYF=   72 NGZF=  180
   ions per type =               6  12  24
   NGX,Y,Z   is equivalent  to a cutoff of  10.63, 10.87, 10.23 a.u.
   NGXF,Y,Z  is equivalent  to a cutoff of  21.27, 21.75, 20.46 a.u.

 SYSTEM =  LiCoO2                                  
 POSCAR =  Li6 Co12 O24                            

 Startparameter for this run:
   NWRITE =      2    write-flag & timer
   PREC   = normal    normal or accurate (medium, high low for compatibility)
   ISTART =      0    job   : 0-new  1-cont  2-samecut
   ICHARG =      2    charge: 1-file 2-atom 10-const
   ISPIN  =      2    spin polarized calculation?
   LNONCOLLINEAR =      F non collinear calculations
   LSORBIT =      F    spin-orbit coupling
   INIWAV =      1    electr: 0-lowe 1-rand  2-diag
   LASPH  =      F    aspherical Exc in radial PAW
   METAGGA=      F    non-selfconsistent MetaGGA calc.

 Electronic Relaxation 1
   ENCUT  =  600.0 eV  44.10 Ry    6.64 a.u.  11.24 10.99 29.22*2*pi/ulx,y,z
   ENINI  =  600.0     initial cutoff
   ENAUG  =  605.4 eV  augmentation charge cutoff
   NELM   =    600;   NELMIN=  2; NELMDL= -5     # of ELM steps 
   EDIFF  = 0.1E-05   stopping-criterion for ELM
   LREAL  =      T    real-space projection
   NLSPLINE    = F    spline interpolate recip. space projectors
   LCOMPAT=      F    compatible to vasp.4.4
   GGA_COMPAT  = T    GGA compatible to vasp.4.4-vasp.4.6
   LMAXPAW     = -100 max onsite density
   LMAXMIX     =    2 max onsite mixed and CHGCAR
   VOSKOWN=      0    Vosko Wilk Nusair interpolation
   ROPT   =   -0.00050  -0.00050  -0.00050
 Ionic relaxation
   EDIFFG = 0.1E-04   stopping-criterion for IOM
   NSW    =      0    number of steps for IOM
   NBLOCK =      1;   KBLOCK =      1    inner block; outer block 
   IBRION =     -1    ionic relax: 0-MD 1-quasi-New 2-CG
   NFREE  =      0    steps in history (QN), initial steepest desc. (CG)
   ISIF   =      2    stress and relaxation
   IWAVPR =     10    prediction:  0-non 1-charg 2-wave 3-comb
   ISYM   =      0    0-nonsym 1-usesym 2-fastsym
   LCORR  =      T    Harris-Foulkes like correction to forces

   POTIM  = 0.5000    time-step for ionic-motion
   TEIN   =    0.0    initial temperature
   TEBEG  =    0.0;   TEEND  =   0.0 temperature during run
   SMASS  =  -3.00    Nose mass-parameter (am)
   estimated Nose-frequenzy (Omega)   =  0.10E-29 period in steps =****** mass=  -0.724E-27a.u.
   SCALEE = 1.0000    scale energy and forces
   NPACO  =    256;   APACO  = 16.0  distance and # of slots for P.C.
   PSTRESS=    0.0 pullay stress

  Mass of Ions in am
   POMASS =   7.01 58.93 16.00
  Ionic Valenz
   ZVAL   =   1.00  9.00  6.00
  Atomic Wigner-Seitz radii
   RWIGS  =  -1.00 -1.00 -1.00
  virtual crystal weights 
   VCA    =   1.00  1.00  1.00
   NELECT =     258.0000    total number of electrons
   NUPDOWN=       6.0000    fix difference up-down

 DOS related values:
   EMIN   =  10.00;   EMAX   =-10.00  energy-range for DOS
   EFERMI =   0.00
   ISMEAR =     0;   SIGMA  =   0.05  broadening in eV -4-tet -1-fermi 0-gaus

 Electronic relaxation 2 (details)
   IALGO  =     58    algorithm
   LDIAG  =      T    sub-space diagonalisation (order eigenvalues)
   LSUBROT=      F    optimize rotation matrix (better conditioning)
   TURBO    =      0    0=normal 1=particle mesh
   IRESTART =      0    0=no restart 2=restart with 2 vectors
   NREBOOT  =      0    no. of reboots
   NMIN     =      0    reboot dimension
   EREF     =   0.00    reference energy to select bands
   IMIX   =      4    mixing-type and parameters
     AMIX     =   0.40;   BMIX     =  1.00
     AMIX_MAG =   1.60;   BMIX_MAG =  1.00
     AMIN     =   0.10
     WC   =   100.;   INIMIX=   1;  MIXPRE=   1;  MAXMIX= -45

 Intra band minimization:
   WEIMIN = 0.0000     energy-eigenvalue tresh-hold
   EBREAK =  0.16E-08  absolut break condition
   DEPER  =   0.30     relativ break condition  

   TIME   =   0.40     timestep for ELM

  volume/ion in A,a.u.               =       9.35        63.11
  Fermi-wavevector in a.u.,A,eV,Ry     =   1.423088  2.689246 27.554232  2.025179
  Thomas-Fermi vector in A             =   2.543723
 
 Write flags
   LWAVE        =      F    write WAVECAR
   LDOWNSAMPLE  =      F    k-point downsampling of WAVECAR
   LCHARG       =      F    write CHGCAR
   LVTOT        =      F    write LOCPOT, total local potential
   LVHAR        =      F    write LOCPOT, Hartree potential only
   LELF         =      F    write electronic localiz. function (ELF)
   LORBIT       =     11    0 simple, 1 ext, 2 COOP (PROOUT), +10 PAW based schemes


 Dipole corrections
   LMONO  =      F    monopole corrections only (constant potential shift)
   LDIPOL =      F    correct potential (dipole corrections)
   IDIPOL =      0    1-x, 2-y, 3-z, 4-all directions 
   EPSILON=  1.0000000 bulk dielectric constant

 LDA+U is selected, type is set to LDAUTYPE =  2
   angular momentum for each species LDAUL =    -1    2   -1
   U (eV)           for each species LDAUU =   0.0  5.1  0.0
   J (eV)           for each species LDAUJ =   0.0  0.0  0.0
 Exchange correlation treatment:
   GGA     =    --    GGA type
   LEXCH   =     8    internal setting for exchange type
   VOSKOWN=      0    Vosko Wilk Nusair interpolation
   LHFCALC =     F    Hartree Fock is set to
   LHFONE  =     F    Hartree Fock one center treatment
   AEXX    =    0.0000 exact exchange contribution

 Linear response parameters
   LEPSILON=     F    determine dielectric tensor
   LRPA    =     F    only Hartree local field effects (RPA)
   LNABLA  =     F    use nabla operator in PAW spheres
   LVEL    =     F    velocity operator in full k-point grid
   LINTERFAST=   F  fast interpolation
   KINTER  =     0    interpolate to denser k-point grid
   CSHIFT  =0.1000    complex shift for real part using Kramers Kronig
   OMEGAMAX=  -1.0    maximum frequency
   DEG_THRESHOLD= 0.2000000E-02 threshold for treating states as degnerate
   RTIME   =   -0.100 relaxation time in fs
  (WPLASMAI=    0.000 imaginary part of plasma frequency in eV, 0.658/RTIME)
   DFIELD  = 0.0000000 0.0000000 0.0000000 field for delta impulse in time
 
 Orbital magnetization related:
   ORBITALMAG=     F  switch on orbital magnetization
   LCHIMAG   =     F  perturbation theory with respect to B field
   DQ        =  0.001000  dq finite difference perturbation B field
   LLRAUG    =     F  two centre corrections for induced B field



--------------------------------------------------------------------------------------------------------


 Static calculation
 charge density and potential will be updated during run
 spin polarized calculation
 Conjugate gradient for all bands (Freysoldt, et al. PRB 79, 241103 (2009))
 preconditioned conjugated gradient                                        
 perform sub-space diagonalisation
    before iterative eigenvector-optimisation
 modified Broyden-mixing scheme, WC =      100.0
 initial mixing is a Kerker type mixing with AMIX =  0.4000 and BMIX =      1.0000
 Hartree-type preconditioning will be used
 using additional bands           31
 real space projection scheme for non local part
 use partial core corrections
 no Harris-corrections to forces 
 use gradient corrections 
 use of overlap-Matrix (Vanderbilt PP)
 Gauss-broadening in eV      SIGMA  =   0.05


--------------------------------------------------------------------------------------------------------


  energy-cutoff  :      600.00
  volume of cell :      392.78
      direct lattice vectors                 reciprocal lattice vectors
     5.627731323  0.000000000  0.000000000     0.177691496  0.101885023  0.008004719
    -2.737727642  4.774704933  0.000000000     0.000000000  0.209437026  0.004115032
    -0.493812293 -0.287203014 14.617368698     0.000000000  0.000000000  0.068411766

  length of vectors
     5.627731323  5.503904054 14.628527055     0.204985125  0.209477448  0.068411766


 
 k-points in units of 2pi/SCALE and weight: read from INCAR                         
   0.01480762  0.02594350  0.01811292       0.028
   0.04442287  0.04292434  0.01944704       0.028
   0.07403812  0.05990518  0.02078116       0.028
  -0.07403812 -0.02499901  0.01411056       0.028
  -0.04442287 -0.00801817  0.01544468       0.028
  -0.01480762  0.00896267  0.01677880       0.028
   0.01480762  0.06084968  0.01879876       0.028
   0.04442287  0.07783051  0.02013288       0.028
   0.07403812  0.09481135  0.02146700       0.028
  -0.07403812  0.00990716  0.01479640       0.028
  -0.04442287  0.02688800  0.01613052       0.028
  -0.01480762  0.04386884  0.01746464       0.028
   0.01480762  0.09575585  0.01948460       0.028
   0.04442287  0.11273668  0.02081872       0.028
   0.07403812  0.12971752  0.02215284       0.028
  -0.07403812  0.04481333  0.01548224       0.028
  -0.04442287  0.06179417  0.01681636       0.028
  -0.01480762  0.07877501  0.01815048       0.028
   0.01480762 -0.07877501  0.01605540       0.028
   0.04442287 -0.06179417  0.01738952       0.028
   0.07403812 -0.04481333  0.01872364       0.028
  -0.07403812 -0.12971752  0.01205304       0.028
  -0.04442287 -0.11273668  0.01338716       0.028
  -0.01480762 -0.09575585  0.01472128       0.028
   0.01480762 -0.04386884  0.01674124       0.028
   0.04442287 -0.02688800  0.01807536       0.028
   0.07403812 -0.00990716  0.01940948       0.028
  -0.07403812 -0.09481135  0.01273888       0.028
  -0.04442287 -0.07783051  0.01407300       0.028
  -0.01480762 -0.06084968  0.01540712       0.028
   0.01480762 -0.00896267  0.01742708       0.028
   0.04442287  0.00801817  0.01876120       0.028
   0.07403812  0.02499901  0.02009532       0.028
  -0.07403812 -0.05990518  0.01342472       0.028
  -0.04442287 -0.04292434  0.01475884       0.028
  -0.01480762 -0.02594350  0.01609296       0.028
 
 k-points in reciprocal lattice and weights: read from INCAR                         
   0.08333333  0.08333333  0.25000000       0.028
   0.25000000  0.08333333  0.25000000       0.028
   0.41666667  0.08333333  0.25000000       0.028
  -0.41666667  0.08333333  0.25000000       0.028
  -0.25000000  0.08333333  0.25000000       0.028
  -0.08333333  0.08333333  0.25000000       0.028
   0.08333333  0.25000000  0.25000000       0.028
   0.25000000  0.25000000  0.25000000       0.028
   0.41666667  0.25000000  0.25000000       0.028
  -0.41666667  0.25000000  0.25000000       0.028
  -0.25000000  0.25000000  0.25000000       0.028
  -0.08333333  0.25000000  0.25000000       0.028
   0.08333333  0.41666667  0.25000000       0.028
   0.25000000  0.41666667  0.25000000       0.028
   0.41666667  0.41666667  0.25000000       0.028
  -0.41666667  0.41666667  0.25000000       0.028
  -0.25000000  0.41666667  0.25000000       0.028
  -0.08333333  0.41666667  0.25000000       0.028
   0.08333333 -0.41666667  0.25000000       0.028
   0.25000000 -0.41666667  0.25000000       0.028
   0.41666667 -0.41666667  0.25000000       0.028
  -0.41666667 -0.41666667  0.25000000       0.028
  -0.25000000 -0.41666667  0.25000000       0.028
  -0.08333333 -0.41666667  0.25000000       0.028
   0.08333333 -0.25000000  0.25000000       0.028
   0.25000000 -0.25000000  0.25000000       0.028
   0.41666667 -0.25000000  0.25000000       0.028
  -0.41666667 -0.25000000  0.25000000       0.028
  -0.25000000 -0.25000000  0.25000000       0.028
  -0.08333333 -0.25000000  0.25000000       0.028
   0.08333333 -0.08333333  0.25000000       0.028
   0.25000000 -0.08333333  0.25000000       0.028
   0.41666667 -0.08333333  0.25000000       0.028
  -0.41666667 -0.08333333  0.25000000       0.028
  -0.25000000 -0.08333333  0.25000000       0.028
  -0.08333333 -0.08333333  0.25000000       0.028
 
 position of ions in fractional coordinates (direct lattice) 
   0.02460184  0.99575518  0.00618853
   0.47267385  0.99587250  0.00448302
   0.76589395  0.08151639  0.33362023
   0.85627889  0.70200989  0.33544271
   0.15553302  0.34550615  0.68644773
   0.13674284  0.84845919  0.66671440
   0.15310019  0.32205800  0.14969179
   0.16603872  0.83141415  0.17108893
   0.67896075  0.32967570  0.15276348
   0.64817784  0.80425451  0.16694797
   0.99364623  0.99221732  0.50359884
   0.97644937  0.46987628  0.50859701
   0.48614024  0.96654043  0.50373840
   0.49578248  0.47903274  0.51071915
   0.36014452  0.22180542  0.83427193
   0.37694639  0.72198546  0.83271212
   0.83117554  0.19752621  0.82300448
   0.85514899  0.68833650  0.83538014
   0.99240848  0.00144192  0.23114215
   0.00049957  0.48676343  0.23224563
   0.50790643  0.00818612  0.22846657
   0.50281333  0.46688679  0.22686641
   0.31899830  0.12545741  0.08531290
   0.32954338  0.64782612  0.09748676
   0.82151729  0.14032021  0.08195456
   0.82195475  0.66245955  0.10163115
   0.31428628  0.14662184  0.56721561
   0.28654329  0.62563842  0.57965560
   0.81349705  0.14115854  0.57562205
   0.79522328  0.64407324  0.58185232
   0.15388588  0.32383333  0.43348637
   0.13226358  0.80520679  0.43629330
   0.64008730  0.30098338  0.44190647
   0.65255203  0.82030208  0.43920285
   0.16384699  0.34291704  0.90071344
   0.19279222  0.83429184  0.90969590
   0.70115625  0.35163848  0.89946829
   0.71284228  0.87039152  0.90323780
   0.03211728  0.03803661  0.76114659
   0.03607269  0.55328886  0.77175725
   0.51270837  0.04445691  0.75667245
   0.55753106  0.57280558  0.76812454
 
 position of ions in cartesian coordinates  (Angst):
  -2.59070992  4.75265980  0.09046000
  -0.06856000  4.75370979  0.06553000
   3.92232990  0.29339999  4.87664986
   2.73134995  3.25554991  4.90328979
  -0.40957999  1.45254004 10.03405952
  -1.88252997  3.85965991  9.74561024
  -0.09402000  1.49474001  2.18810010
  -1.42624998  3.92061996  2.50086999
   2.84300995  1.53023005  2.23300004
   1.36350000  3.79212999  2.44034004
   2.62686992  4.59290981  7.36128998
   3.95764995  2.09745002  7.43435001
  -0.15900999  4.47027016  7.36332989
   1.22646999  2.14055991  7.46537018
   1.00758004  0.81945002 12.19486046
  -0.26644999  3.20811009 12.17206001
   3.73044991  0.70675999 12.03015995
   2.51554990  3.04667997 12.21105957
   5.46691990 -0.05950000  3.37869000
  -1.44449997  2.25745010  3.39481997
   2.72312999 -0.02653000  3.33958006
   1.43946004  2.16408992  3.31619000
   1.40963995  0.57451999  1.24705005
   0.03287000  3.06518006  1.42499995
   4.19864988  0.64644998  1.19796002
   2.76191998  3.13386011  1.48557997
   1.08721006  0.53716999  8.29119968
  -0.38648000  2.82076001  8.47303963
   3.90743995  0.50866997  8.41407967
   2.42467999  2.90814996  8.50514984
  -0.23459999  1.42171001  6.33643007
  -1.67553997  3.71932006  6.37746000
   2.56000996  1.31018996  6.45950985
   1.20974004  3.79056001  6.41999006
  -0.46151000  1.37864006 13.16606045
  -1.64830005  3.72222996 13.29736042
   2.53906012  1.42063999 13.14785957
   1.18276000  3.89645004 13.20296001
  -0.29925001 -0.03699000 11.12596035
  -1.69284999  2.42014003 11.28106022
   2.39001989 -0.00505000 11.06056023
   1.19014001  2.51436996 11.22795963
 


--------------------------------------------------------------------------------------------------------


 k-point  1 :   0.0833 0.0833 0.2500  plane waves:   13109
 k-point  2 :   0.2500 0.0833 0.2500  plane waves:   13085
 k-point  3 :   0.4167 0.0833 0.2500  plane waves:   13121
 k-point  4 :  -0.4167 0.0833 0.2500  plane waves:   13091
 k-point  5 :  -0.2500 0.0833 0.2500  plane waves:   13069
 k-point  6 :  -0.0833 0.0833 0.2500  plane waves:   13071
 k-point  7 :   0.0833 0.2500 0.2500  plane waves:   13126
 k-point  8 :   0.2500 0.2500 0.2500  plane waves:   13117
 k-point  9 :   0.4167 0.2500 0.2500  plane waves:   13115
 k-point 10 :  -0.4167 0.2500 0.2500  plane waves:   13091
 k-point 11 :  -0.2500 0.2500 0.2500  plane waves:   13105
 k-point 12 :  -0.0833 0.2500 0.2500  plane waves:   13124
 k-point 13 :   0.0833 0.4167 0.2500  plane waves:   13123
 k-point 14 :   0.2500 0.4167 0.2500  plane waves:   13123
 k-point 15 :   0.4167 0.4167 0.2500  plane waves:   13110
 k-point 16 :  -0.4167 0.4167 0.2500  plane waves:   13109
 k-point 17 :  -0.2500 0.4167 0.2500  plane waves:   13118
 k-point 18 :  -0.0833 0.4167 0.2500  plane waves:   13127
 k-point 19 :   0.0833-0.4167 0.2500  plane waves:   13131
 k-point 20 :   0.2500-0.4167 0.2500  plane waves:   13116
 k-point 21 :   0.4167-0.4167 0.2500  plane waves:   13110
 k-point 22 :  -0.4167-0.4167 0.2500  plane waves:   13129
 k-point 23 :  -0.2500-0.4167 0.2500  plane waves:   13113
 k-point 24 :  -0.0833-0.4167 0.2500  plane waves:   13114
 k-point 25 :   0.0833-0.2500 0.2500  plane waves:   13113
 k-point 26 :   0.2500-0.2500 0.2500  plane waves:   13115
 k-point 27 :   0.4167-0.2500 0.2500  plane waves:   13106
 k-point 28 :  -0.4167-0.2500 0.2500  plane waves:   13119
 k-point 29 :  -0.2500-0.2500 0.2500  plane waves:   13102
 k-point 30 :  -0.0833-0.2500 0.2500  plane waves:   13127
 k-point 31 :   0.0833-0.0833 0.2500  plane waves:   13103
 k-point 32 :   0.2500-0.0833 0.2500  plane waves:   13069
 k-point 33 :   0.4167-0.0833 0.2500  plane waves:   13105
 k-point 34 :  -0.4167-0.0833 0.2500  plane waves:   13114
 k-point 35 :  -0.2500-0.0833 0.2500  plane waves:   13084
 k-point 36 :  -0.0833-0.0833 0.2500  plane waves:   13076

 maximum and minimum number of plane-waves per node :      3303     3245

 maximum number of plane-waves:     13131
 maximum index in each direction: 
   IXMAX=   11   IYMAX=   11   IZMAX=   28
   IXMIN=  -11   IYMIN=  -11   IZMIN=  -29


 real space projection operators:
  total allocation   :       7539.67 KBytes
  max/ min on nodes  :       1888.70       1882.08


 parallel 3D FFT for wavefunctions:
    minimum data exchange during FFTs selected (reduces bandwidth)
 parallel 3D FFT for charge:
    minimum data exchange during FFTs selected (reduces bandwidth)


 total amount of memory used by VASP MPI-rank0   159316. kBytes
=======================================================================

   base      :      30000. kBytes
   nonlr-proj:       4310. kBytes
   fftplans  :       1688. kBytes
   grid      :       4644. kBytes
   one-center:        342. kBytes
   wavefun   :     118332. kBytes
 
     INWAV:  cpu time    0.0000: real time    0.0003
 Broyden mixing: mesh for mixing (old mesh)
   NGX = 23   NGY = 21   NGZ = 59
  (NGX  = 72   NGY  = 72   NGZ  =180)
  gives a total of  28497 points

 initial charge density was supplied:
 charge density of overlapping atoms calculated
 number of electron     258.0000000 magnetization       6.0000000
 keeping initial charge density in first step


--------------------------------------------------------------------------------------------------------


 Maximum index for non-local projection operator          691
 Maximum index for augmentation-charges         1006 (set IRDMAX)


--------------------------------------------------------------------------------------------------------


 First call to EWALD:  gamma=   0.242
 Maximum number of real-space cells 4x 4x 2
 Maximum number of reciprocal cells 2x 2x 5

    FEWALD:  cpu time    0.0056: real time    0.0056


--------------------------------------- Iteration      1(   1)  ---------------------------------------


    POTLOK:  cpu time    0.0698: real time    0.0827
    SETDIJ:  cpu time    0.0207: real time    0.0220
    TRIAL :  cpu time   20.5915: real time   20.7511
    CORREC:  cpu time    0.0040: real time    0.0040
    --------------------------------------------
      LOOP:  cpu time   20.8874: real time   21.0627

 eigenvalue-minimisations  : 23040
 total energy-change (2. order) : 0.3488505E+04  (-0.1393129E+05)
 number of electron     258.0000000 magnetization       6.0000000
 augmentation part      258.0000000 magnetization       6.0000000

 Free energy of the ion-electron system (eV)
  ---------------------------------------------------
  alpha Z        PSCENC =       746.38965740
  Ewald energy   TEWEN  =    -13667.50817111
  -Hartree energ DENC   =     -7349.18780024
  -exchange      EXHF   =         0.00000000
  -V(xc)+E(xc)   XCENC  =       843.33267750
  PAW double counting   =     17015.18481625   -17491.61297812
  entropy T*S    EENTRO =        -0.00756182
  eigenvalues    EBANDS =      3223.04309662
  atomic energy  EATOM  =     20168.87094289
  ---------------------------------------------------
  free energy    TOTEN  =      3488.50467937 eV

  energy without entropy =     3488.51224118  energy(sigma->0) =     3488.50846028


--------------------------------------------------------------------------------------------------------




--------------------------------------- Iteration      1(   2)  ---------------------------------------


    TRIAL :  cpu time   21.7585: real time   22.0235
    CORREC:  cpu time    0.0044: real time    0.0045
    --------------------------------------------
      LOOP:  cpu time   21.7634: real time   22.0329

 eigenvalue-minimisations  : 24976
 total energy-change (2. order) :-0.3080366E+04  (-0.2836733E+04)
 number of electron     258.0000000 magnetization       6.0000000
 augmentation part      258.0000000 magnetization       6.0000000

 Free energy of the ion-electron system (eV)
  ---------------------------------------------------
  alpha Z        PSCENC =       746.38965740
  Ewald energy   TEWEN  =    -13667.50817111
  -Hartree energ DENC   =     -7349.18780024
  -exchange      EXHF   =         0.00000000
  -V(xc)+E(xc)   XCENC  =       843.33267750
  PAW double counting   =     17015.18481625   -17491.61297812
  entropy T*S    EENTRO =        -0.02390314
  eigenvalues    EBANDS =       142.69305092
  atomic energy  EATOM  =     20168.87094289
  ---------------------------------------------------
  free energy    TOTEN  =       408.13829234 eV

  energy without entropy =      408.16219548  energy(sigma->0) =      408.15024391


--------------------------------------------------------------------------------------------------------




--------------------------------------- Iteration      1(   3)  ---------------------------------------


    TRIAL :  cpu time   22.1803: real time   22.4844
    CORREC:  cpu time    0.0043: real time    0.0043
    --------------------------------------------
      LOOP:  cpu time   22.1849: real time   22.4932

 eigenvalue-minimisations  : 25984
 total energy-change (2. order) :-0.6272027E+03  (-0.5735465E+03)
 number of electron     258.0000000 magnetization       6.0000000
 augmentation part      258.0000000 magnetization       6.0000000

 Free energy of the ion-electron system (eV)
  ---------------------------------------------------
  alpha Z        PSCENC =       746.38965740
  Ewald energy   TEWEN  =    -13667.50817111
  -Hartree energ DENC   =     -7349.18780024
  -exchange      EXHF   =         0.00000000
  -V(xc)+E(xc)   XCENC  =       843.33267750
  PAW double counting   =     17015.18481625   -17491.61297812
  entropy T*S    EENTRO =        -0.04061461
  eigenvalues    EBANDS =      -484.49295257
  atomic energy  EATOM  =     20168.87094289
  ---------------------------------------------------
  free energy    TOTEN  =      -219.06442262 eV

  energy without entropy =     -219.02380801  energy(sigma->0) =     -219.04411531


--------------------------------------------------------------------------------------------------------




--------------------------------------- Iteration      1(   4)  ---------------------------------------


    TRIAL :  cpu time   21.9334: real time   22.0744
    CORREC:  cpu time    0.0033: real time    0.0033
    --------------------------------------------
      LOOP:  cpu time   21.9408: real time   22.0818

 eigenvalue-minimisations  : 25248
 total energy-change (2. order) :-0.4993892E+02  (-0.4884106E+02)
 number of electron     258.0000000 magnetization       6.0000000
 augmentation part      258.0000000 magnetization       6.0000000

 Free energy of the ion-electron system (eV)
  ---------------------------------------------------
  alpha Z        PSCENC =       746.38965740
  Ewald energy   TEWEN  =    -13667.50817111
  -Hartree energ DENC   =     -7349.18780024
  -exchange      EXHF   =         0.00000000
  -V(xc)+E(xc)   XCENC  =       843.33267750
  PAW double counting   =     17015.18481625   -17491.61297812
  entropy T*S    EENTRO =        -0.04465463
  eigenvalues    EBANDS =      -534.42783112
  atomic energy  EATOM  =     20168.87094289
  ---------------------------------------------------
  free energy    TOTEN  =      -269.00334119 eV

  energy without entropy =     -268.95868656  energy(sigma->0) =     -268.98101387


--------------------------------------------------------------------------------------------------------




--------------------------------------- Iteration      1(   5)  ---------------------------------------


    TRIAL :  cpu time   23.9148: real time   24.1271
    CORREC:  cpu time    0.0037: real time    0.0037
    CHARGE:  cpu time    0.4219: real time    0.4246
    --------------------------------------------
      LOOP:  cpu time   24.3446: real time   24.5596

 eigenvalue-minimisations  : 28480
 total energy-change (2. order) :-0.1715194E+01  (-0.1712114E+01)
 number of electron     257.9999958 magnetization       5.9999997
 augmentation part       68.0777817 magnetization       4.3554340

 Free energy of the ion-electron system (eV)
  ---------------------------------------------------
  alpha Z        PSCENC =       746.38965740
  Ewald energy   TEWEN  =    -13667.50817111
  -Hartree energ DENC   =     -7349.18780024
  -exchange      EXHF   =         0.00000000
  -V(xc)+E(xc)   XCENC  =       843.33267750
  PAW double counting   =     17015.18481625   -17491.61297812
  entropy T*S    EENTRO =        -0.04493892
  eigenvalues    EBANDS =      -536.14274051
  atomic energy  EATOM  =     20168.87094289
  ---------------------------------------------------
  free energy    TOTEN  =      -270.71853486 eV

  energy without entropy =     -270.67359594  energy(sigma->0) =     -270.69606540


--------------------------------------------------------------------------------------------------------




--------------------------------------- Iteration      1(   6)  ---------------------------------------


    POTLOK:  cpu time    0.0463: real time    0.0464
    SETDIJ:  cpu time    0.0125: real time    0.0127
    TRIAL :  cpu time   11.5884: real time   11.6842
    CORREC:  cpu time    4.0020: real time    4.0290
    CHARGE:  cpu time    0.5377: real time    0.5403
    --------------------------------------------
      LOOP:  cpu time   16.1912: real time   16.3172

 eigenvalue-minimisations  :     0
 total energy-change (2. order) : 0.3472884E+03  (-0.2198902E+03)
 number of electron     257.9999962 magnetization       5.9999993
 augmentation part       72.7143759 magnetization       4.4999714

 Free energy of the ion-electron system (eV)
  ---------------------------------------------------
  alpha Z        PSCENC =       746.38965740
  Ewald energy   TEWEN  =    -13667.50817111
  -Hartree energ DENC   =     -6990.50794791
  -exchange      EXHF   =         0.00000000
  -V(xc)+E(xc)   XCENC  =       877.04451498
  PAW double counting   =     23878.24271030   -24087.45392035
  entropy T*S    EENTRO =        -0.03938209
  eigenvalues    EBANDS =      -848.46293598
  atomic energy  EATOM  =     20168.87094289
  ---------------------------------------------------
  free energy    TOTEN  =        76.56991130 eV

  energy without entropy =       76.60929339  energy(sigma->0) =       76.58960234


--------------------------------------------------------------------------------------------------------




--------------------------------------- Iteration      1(   7)  ---------------------------------------


    POTLOK:  cpu time    0.0456: real time    0.0459
    SETDIJ:  cpu time    0.0126: real time    0.0126
    TRIAL :  cpu time   11.2747: real time   11.3808
    CORREC:  cpu time    4.1450: real time    4.1733
    CHARGE:  cpu time    0.4234: real time    0.4258
    --------------------------------------------
      LOOP:  cpu time   15.9055: real time   16.0426

 eigenvalue-minimisations  :     0
 total energy-change (2. order) :-0.1710359E+03  (-0.6572797E+02)
 number of electron     257.9999958 magnetization       5.9999998
 augmentation part       74.0898630 magnetization       4.4233320

 Free energy of the ion-electron system (eV)
  ---------------------------------------------------
  alpha Z        PSCENC =       746.38965740
  Ewald energy   TEWEN  =    -13667.50817111
  -Hartree energ DENC   =     -7091.73609429
  -exchange      EXHF   =         0.00000000
  -V(xc)+E(xc)   XCENC  =       862.84893601
  PAW double counting   =     24250.90004668   -24646.02745655
  entropy T*S    EENTRO =        -0.03504443
  eigenvalues    EBANDS =      -718.16443126
  atomic energy  EATOM  =     20168.87094289
  ---------------------------------------------------
  free energy    TOTEN  =       -94.46595233 eV

  energy without entropy =      -94.43090790  energy(sigma->0) =      -94.44843012


--------------------------------------------------------------------------------------------------------




--------------------------------------- Iteration      1(   8)  ---------------------------------------


    POTLOK:  cpu time    0.0454: real time    0.0457
    SETDIJ:  cpu time    0.0126: real time    0.0126
    TRIAL :  cpu time   11.2066: real time   11.2990
    CORREC:  cpu time    4.1782: real time    4.2047
    CHARGE:  cpu time    0.4195: real time    0.4217
    --------------------------------------------
      LOOP:  cpu time   15.8664: real time   15.9880

 eigenvalue-minimisations  :     0
 total energy-change (2. order) :-0.6734924E+02  (-0.3855794E+02)
 number of electron     257.9999954 magnetization       6.0000002
 augmentation part       75.2759598 magnetization       4.3340199

 Free energy of the ion-electron system (eV)
  ---------------------------------------------------
  alpha Z        PSCENC =       746.38965740
  Ewald energy   TEWEN  =    -13667.50817111
  -Hartree energ DENC   =     -7063.05499794
  -exchange      EXHF   =         0.00000000
  -V(xc)+E(xc)   XCENC  =       857.38667330
  PAW double counting   =     24230.38956300   -24681.84361501
  entropy T*S    EENTRO =        -0.03436755
  eigenvalues    EBANDS =      -752.41020479
  atomic energy  EATOM  =     20168.87094289
  ---------------------------------------------------
  free energy    TOTEN  =      -161.81519669 eV

  energy without entropy =     -161.78082914  energy(sigma->0) =     -161.79801292


--------------------------------------------------------------------------------------------------------




--------------------------------------- Iteration      1(   9)  ---------------------------------------


    POTLOK:  cpu time    0.0456: real time    0.0458
    SETDIJ:  cpu time    0.0125: real time    0.0127
    TRIAL :  cpu time   11.2053: real time   11.2933
    CORREC:  cpu time    4.1440: real time    4.1679
    CHARGE:  cpu time    0.4210: real time    0.4230
    --------------------------------------------
      LOOP:  cpu time   15.8327: real time   15.9469

 eigenvalue-minimisations  :     0
 total energy-change (2. order) :-0.6652027E+01  (-0.9631919E+02)
 number of electron     257.9999964 magnetization       5.9999993
 augmentation part       75.3835337 magnetization       4.2658276

 Free energy of the ion-electron system (eV)
  ---------------------------------------------------
  alpha Z        PSCENC =       746.38965740
  Ewald energy   TEWEN  =    -13667.50817111
  -Hartree energ DENC   =     -7183.15900546
  -exchange      EXHF   =         0.00000000
  -V(xc)+E(xc)   XCENC  =       854.22026919
  PAW double counting   =     24329.38613254   -24829.88472741
  entropy T*S    EENTRO =        -0.03002942
  eigenvalues    EBANDS =      -586.74795443
  atomic energy  EATOM  =     20168.87094289
  ---------------------------------------------------
  free energy    TOTEN  =      -168.46722394 eV

  energy without entropy =     -168.43719452  energy(sigma->0) =     -168.45220923


--------------------------------------------------------------------------------------------------------




--------------------------------------- Iteration      1(  10)  ---------------------------------------


    POTLOK:  cpu time    0.0456: real time    0.0459
    SETDIJ:  cpu time    0.0127: real time    0.0128
    TRIAL :  cpu time   12.1331: real time   12.2441
    CORREC:  cpu time    4.3171: real time    4.3398
    CHARGE:  cpu time    0.4213: real time    0.4231
    --------------------------------------------
      LOOP:  cpu time   16.9339: real time   17.0698

 eigenvalue-minimisations  :     0
 total energy-change (2. order) :-0.2642172E+00  (-0.4645285E+02)
 number of electron     257.9999958 magnetization       5.9999999
 augmentation part       75.4831970 magnetization       4.2700721

 Free energy of the ion-electron system (eV)
  ---------------------------------------------------
  alpha Z        PSCENC =       746.38965740
  Ewald energy   TEWEN  =    -13667.50817111
  -Hartree energ DENC   =     -7175.00822347
  -exchange      EXHF   =         0.00000000
  -V(xc)+E(xc)   XCENC  =       853.70947068
  PAW double counting   =     24352.41738741   -24856.37222793
  entropy T*S    EENTRO =        -0.02654986
  eigenvalues    EBANDS =      -591.20024756
  atomic energy  EATOM  =     20168.87094289
  ---------------------------------------------------
  free energy    TOTEN  =      -168.73144112 eV

  energy without entropy =     -168.70489126  energy(sigma->0) =     -168.71816619


--------------------------------------------------------------------------------------------------------




--------------------------------------- Iteration      1(  11)  ---------------------------------------


    POTLOK:  cpu time    0.0460: real time    0.0461
    SETDIJ:  cpu time    0.0126: real time    0.0127
    TRIAL :  cpu time   11.4330: real time   11.5114
    CORREC:  cpu time    3.9876: real time    4.0091
    CHARGE:  cpu time    0.4228: real time    0.4248
    --------------------------------------------
      LOOP:  cpu time   15.9060: real time   16.0082

 eigenvalue-minimisations  :     0
 total energy-change (2. order) :-0.1845665E+02  (-0.4601736E+02)
 number of electron     257.9999965 magnetization       5.9999993
 augmentation part       75.7151559 magnetization       4.1462015

 Free energy of the ion-electron system (eV)
  ---------------------------------------------------
  alpha Z        PSCENC =       746.38965740
  Ewald energy   TEWEN  =    -13667.50817111
  -Hartree energ DENC   =     -7213.12356371
  -exchange      EXHF   =         0.00000000
  -V(xc)+E(xc)   XCENC  =       852.84916707
  PAW double counting   =     24314.26819904   -24819.57949437
  entropy T*S    EENTRO =        -0.02491037
  eigenvalues    EBANDS =      -569.32827438
  atomic energy  EATOM  =     20168.87094289
  ---------------------------------------------------
  free energy    TOTEN  =      -187.18808703 eV

  energy without entropy =     -187.16317665  energy(sigma->0) =     -187.17563184


--------------------------------------------------------------------------------------------------------




--------------------------------------- Iteration      1(  12)  ---------------------------------------


    POTLOK:  cpu time    0.0504: real time    0.0507
    SETDIJ:  cpu time    0.0126: real time    0.0126
    TRIAL :  cpu time   11.5628: real time   11.6437
    CORREC:  cpu time    3.9949: real time    4.0171
    CHARGE:  cpu time    0.4214: real time    0.4232
    --------------------------------------------
      LOOP:  cpu time   16.0463: real time   16.1515

 eigenvalue-minimisations  :     0
 total energy-change (2. order) : 0.7380796E+00  (-0.2611922E+02)
 number of electron     257.9999961 magnetization       5.9999998
 augmentation part       75.6748553 magnetization       4.1481690

 Free energy of the ion-electron system (eV)
  ---------------------------------------------------
  alpha Z        PSCENC =       746.38965740
  Ewald energy   TEWEN  =    -13667.50817111
  -Hartree energ DENC   =     -7281.52323590
  -exchange      EXHF   =         0.00000000
  -V(xc)+E(xc)   XCENC  =       851.43166907
  PAW double counting   =     24311.92977031   -24820.81123312
  entropy T*S    EENTRO =        -0.02841527
  eigenvalues    EBANDS =      -495.20449656
  atomic energy  EATOM  =     20168.87094289
  ---------------------------------------------------
  free energy    TOTEN  =      -186.45000739 eV

  energy without entropy =     -186.42159212  energy(sigma->0) =     -186.43579976


--------------------------------------------------------------------------------------------------------




--------------------------------------- Iteration      1(  13)  ---------------------------------------


    POTLOK:  cpu time    0.0460: real time    0.0462
    SETDIJ:  cpu time    0.0127: real time    0.0128
    TRIAL :  cpu time   11.4306: real time   11.5084
    CORREC:  cpu time    3.9973: real time    4.0219
    CHARGE:  cpu time    0.4196: real time    0.4214
    --------------------------------------------
      LOOP:  cpu time   15.9103: real time   16.0147

 eigenvalue-minimisations  :     0
 total energy-change (2. order) :-0.2619294E+02  (-0.9332890E+00)
 number of electron     257.9999960 magnetization       5.9999998
 augmentation part       75.5995616 magnetization       4.1428675

 Free energy of the ion-electron system (eV)
  ---------------------------------------------------
  alpha Z        PSCENC =       746.38965740
  Ewald energy   TEWEN  =    -13667.50817111
  -Hartree energ DENC   =     -7252.77943810
  -exchange      EXHF   =         0.00000000
  -V(xc)+E(xc)   XCENC  =       851.15569611
  PAW double counting   =     24266.75407100   -24771.93009404
  entropy T*S    EENTRO =        -0.02845328
  eigenvalues    EBANDS =      -553.56719232
  atomic energy  EATOM  =     20168.87094289
  ---------------------------------------------------
  free energy    TOTEN  =      -212.64294344 eV

  energy without entropy =     -212.61449016  energy(sigma->0) =     -212.62871680


--------------------------------------------------------------------------------------------------------




--------------------------------------- Iteration      1(  14)  ---------------------------------------


    POTLOK:  cpu time    0.0454: real time    0.0456
    SETDIJ:  cpu time    0.0127: real time    0.0127
    TRIAL :  cpu time   11.4675: real time   11.5473
    CORREC:  cpu time    4.0121: real time    4.0343
    CHARGE:  cpu time    0.4179: real time    0.4197
    --------------------------------------------
      LOOP:  cpu time   15.9598: real time   16.0638

 eigenvalue-minimisations  :     0
 total energy-change (2. order) :-0.6840079E+00  (-0.1855038E+01)
 number of electron     257.9999961 magnetization       5.9999998
 augmentation part       75.3002610 magnetization       4.0855761

 Free energy of the ion-electron system (eV)
  ---------------------------------------------------
  alpha Z        PSCENC =       746.38965740
  Ewald energy   TEWEN  =    -13667.50817111
  -Hartree energ DENC   =     -7254.32661047
  -exchange      EXHF   =         0.00000000
  -V(xc)+E(xc)   XCENC  =       851.15068184
  PAW double counting   =     24223.36653616   -24723.37283335
  entropy T*S    EENTRO =        -0.02834500
  eigenvalues    EBANDS =      -557.86870141
  atomic energy  EATOM  =     20168.87094289
  ---------------------------------------------------
  free energy    TOTEN  =      -213.32695134 eV

  energy without entropy =     -213.29860634  energy(sigma->0) =     -213.31277884


--------------------------------------------------------------------------------------------------------




--------------------------------------- Iteration      1(  15)  ---------------------------------------


    POTLOK:  cpu time    0.0453: real time    0.0454
    SETDIJ:  cpu time    0.0126: real time    0.0127
    TRIAL :  cpu time   11.4046: real time   11.4791
    CORREC:  cpu time    3.9858: real time    4.0046
    CHARGE:  cpu time    0.4183: real time    0.4200
    --------------------------------------------
      LOOP:  cpu time   15.8706: real time   15.9659

 eigenvalue-minimisations  :     0
 total energy-change (2. order) :-0.1865168E+01  (-0.2337382E+01)
 number of electron     257.9999962 magnetization       5.9999997
 augmentation part       75.1252352 magnetization       4.0020725

 Free energy of the ion-electron system (eV)
  ---------------------------------------------------
  alpha Z        PSCENC =       746.38965740
  Ewald energy   TEWEN  =    -13667.50817111
  -Hartree energ DENC   =     -7262.46009499
  -exchange      EXHF   =         0.00000000
  -V(xc)+E(xc)   XCENC  =       851.06078197
  PAW double counting   =     24058.17853787   -24535.77410174
  entropy T*S    EENTRO =        -0.02609891
  eigenvalues    EBANDS =      -573.92132686
  atomic energy  EATOM  =     20168.87094289
  ---------------------------------------------------
  free energy    TOTEN  =      -215.19211958 eV

  energy without entropy =     -215.16602067  energy(sigma->0) =     -215.17907012


--------------------------------------------------------------------------------------------------------




--------------------------------------- Iteration      1(  16)  ---------------------------------------


    POTLOK:  cpu time    0.0488: real time    0.0490
    SETDIJ:  cpu time    0.0126: real time    0.0126
    TRIAL :  cpu time   11.5698: real time   11.6431
    CORREC:  cpu time    4.0083: real time    4.0298
    CHARGE:  cpu time    0.4198: real time    0.4220
    --------------------------------------------
      LOOP:  cpu time   16.0599: real time   16.1572

 eigenvalue-minimisations  :     0
 total energy-change (2. order) :-0.1375502E+01  (-0.1898930E+01)
 number of electron     257.9999961 magnetization       5.9999998
 augmentation part       75.1146903 magnetization       3.8869811

 Free energy of the ion-electron system (eV)
  ---------------------------------------------------
  alpha Z        PSCENC =       746.38965740
  Ewald energy   TEWEN  =    -13667.50817111
  -Hartree energ DENC   =     -7265.16276764
  -exchange      EXHF   =         0.00000000
  -V(xc)+E(xc)   XCENC  =       850.93557204
  PAW double counting   =     23949.83978619   -24408.63424752
  entropy T*S    EENTRO =        -0.02511959
  eigenvalues    EBANDS =      -591.27229527
  atomic energy  EATOM  =     20168.87094289
  ---------------------------------------------------
  free energy    TOTEN  =      -216.56762194 eV

  energy without entropy =     -216.54250235  energy(sigma->0) =     -216.55506214


--------------------------------------------------------------------------------------------------------




--------------------------------------- Iteration      1(  17)  ---------------------------------------


    POTLOK:  cpu time    0.0454: real time    0.0455
    SETDIJ:  cpu time    0.0126: real time    0.0126
    TRIAL :  cpu time   11.4000: real time   11.4507
    CORREC:  cpu time    4.0410: real time    4.0497
    CHARGE:  cpu time    0.4325: real time    0.4334
    --------------------------------------------
      LOOP:  cpu time   15.9358: real time   15.9963

 eigenvalue-minimisations  :     0
 total energy-change (2. order) :-0.1143364E+01  (-0.8820893E+00)
 number of electron     257.9999961 magnetization       5.9999999
 augmentation part       75.2577083 magnetization       3.8216579

 Free energy of the ion-electron system (eV)
  ---------------------------------------------------
  alpha Z        PSCENC =       746.38965740
  Ewald energy   TEWEN  =    -13667.50817111
  -Hartree energ DENC   =     -7278.27982533
  -exchange      EXHF   =         0.00000000
  -V(xc)+E(xc)   XCENC  =       850.85948826
  PAW double counting   =     23895.69484263   -24339.32175503
  entropy T*S    EENTRO =        -0.02508183
  eigenvalues    EBANDS =      -594.39104620
  atomic energy  EATOM  =     20168.87094289
  ---------------------------------------------------
  free energy    TOTEN  =      -217.71098608 eV

  energy without entropy =     -217.68590425  energy(sigma->0) =     -217.69844516


--------------------------------------------------------------------------------------------------------




--------------------------------------- Iteration      1(  18)  ---------------------------------------


    POTLOK:  cpu time    0.0453: real time    0.0454
    SETDIJ:  cpu time    0.0126: real time    0.0126
    TRIAL :  cpu time   11.4815: real time   11.5051
    CORREC:  cpu time    4.0210: real time    4.0280
    CHARGE:  cpu time    0.4235: real time    0.4242
    --------------------------------------------
      LOOP:  cpu time   15.9879: real time   16.0194

 eigenvalue-minimisations  :     0
 total energy-change (2. order) :-0.7474604E+00  (-0.2805636E+00)
 number of electron     257.9999961 magnetization       5.9999998
 augmentation part       75.4682624 magnetization       3.7898088

 Free energy of the ion-electron system (eV)
  ---------------------------------------------------
  alpha Z        PSCENC =       746.38965740
  Ewald energy   TEWEN  =    -13667.50817111
  -Hartree energ DENC   =     -7302.95694563
  -exchange      EXHF   =         0.00000000
  -V(xc)+E(xc)   XCENC  =       850.98222726
  PAW double counting   =     23898.90762656   -24340.64616511
  entropy T*S    EENTRO =        -0.02368240
  eigenvalues    EBANDS =      -572.47253688
  atomic energy  EATOM  =     20168.87094289
  ---------------------------------------------------
  free energy    TOTEN  =      -218.45844646 eV

  energy without entropy =     -218.43476405  energy(sigma->0) =     -218.44660525


--------------------------------------------------------------------------------------------------------




--------------------------------------- Iteration      1(  19)  ---------------------------------------


    POTLOK:  cpu time    0.0457: real time    0.0457
    SETDIJ:  cpu time    0.0127: real time    0.0127
    TRIAL :  cpu time   11.4405: real time   11.4641
    CORREC:  cpu time    4.0137: real time    4.0257
    CHARGE:  cpu time    0.4187: real time    0.4205
    --------------------------------------------
      LOOP:  cpu time   15.9353: real time   15.9728

 eigenvalue-minimisations  :     0
 total energy-change (2. order) :-0.2360319E+00  (-0.3973335E+00)
 number of electron     257.9999961 magnetization       5.9999998
 augmentation part       75.9935561 magnetization       3.7356481

 Free energy of the ion-electron system (eV)
  ---------------------------------------------------
  alpha Z        PSCENC =       746.38965740
  Ewald energy   TEWEN  =    -13667.50817111
  -Hartree energ DENC   =     -7320.42235920
  -exchange      EXHF   =         0.00000000
  -V(xc)+E(xc)   XCENC  =       851.28683142
  PAW double counting   =     23914.05339618   -24361.08141601
  entropy T*S    EENTRO =        -0.02258891
  eigenvalues    EBANDS =      -550.25967750
  atomic energy  EATOM  =     20168.87094289
  ---------------------------------------------------
  free energy    TOTEN  =      -218.69447834 eV

  energy without entropy =     -218.67188943  energy(sigma->0) =     -218.68318388


--------------------------------------------------------------------------------------------------------




--------------------------------------- Iteration      1(  20)  ---------------------------------------


    POTLOK:  cpu time    0.0455: real time    0.0456
    SETDIJ:  cpu time    0.0126: real time    0.0127
    TRIAL :  cpu time   11.4431: real time   11.5187
    CORREC:  cpu time    3.9861: real time    4.0088
    CHARGE:  cpu time    0.5191: real time    0.5212
    --------------------------------------------
      LOOP:  cpu time   16.0104: real time   16.1110

 eigenvalue-minimisations  :     0
 total energy-change (2. order) :-0.3973463E+00  (-0.1457624E+00)
 number of electron     257.9999961 magnetization       5.9999999
 augmentation part       76.1209374 magnetization       3.7282526

 Free energy of the ion-electron system (eV)
  ---------------------------------------------------
  alpha Z        PSCENC =       746.38965740
  Ewald energy   TEWEN  =    -13667.50817111
  -Hartree energ DENC   =     -7345.37640833
  -exchange      EXHF   =         0.00000000
  -V(xc)+E(xc)   XCENC  =       852.20504576
  PAW double counting   =     23953.50385910   -24415.88244517
  entropy T*S    EENTRO =        -0.02343749
  eigenvalues    EBANDS =      -511.27171625
  atomic energy  EATOM  =     20168.87094289
  ---------------------------------------------------
  free energy    TOTEN  =      -219.09182462 eV

  energy without entropy =     -219.06838713  energy(sigma->0) =     -219.08010587


--------------------------------------------------------------------------------------------------------




--------------------------------------- Iteration      1(  21)  ---------------------------------------


    POTLOK:  cpu time    0.0452: real time    0.0453
    SETDIJ:  cpu time    0.0126: real time    0.0127
    TRIAL :  cpu time   11.2362: real time   11.3145
    CORREC:  cpu time    4.1722: real time    4.1933
    CHARGE:  cpu time    0.4179: real time    0.4202
    --------------------------------------------
      LOOP:  cpu time   15.8881: real time   15.9900

 eigenvalue-minimisations  :     0
 total energy-change (2. order) :-0.1442278E+00  (-0.3590708E+00)
 number of electron     257.9999960 magnetization       5.9999999
 augmentation part       76.2565612 magnetization       3.7350899

 Free energy of the ion-electron system (eV)
  ---------------------------------------------------
  alpha Z        PSCENC =       746.38965740
  Ewald energy   TEWEN  =    -13667.50817111
  -Hartree energ DENC   =     -7345.58062023
  -exchange      EXHF   =         0.00000000
  -V(xc)+E(xc)   XCENC  =       852.57651916
  PAW double counting   =     23958.16727220   -24423.96091057
  entropy T*S    EENTRO =        -0.02235424
  eigenvalues    EBANDS =      -508.16730471
  atomic energy  EATOM  =     20168.87094289
  ---------------------------------------------------
  free energy    TOTEN  =      -219.23605246 eV

  energy without entropy =     -219.21369822  energy(sigma->0) =     -219.22487534


--------------------------------------------------------------------------------------------------------




--------------------------------------- Iteration      1(  22)  ---------------------------------------


    POTLOK:  cpu time    0.0536: real time    0.0539
    SETDIJ:  cpu time    0.0126: real time    0.0126
    TRIAL :  cpu time   11.2853: real time   11.3276
    CORREC:  cpu time    4.1348: real time    4.1409
    CHARGE:  cpu time    0.4186: real time    0.4191
    --------------------------------------------
      LOOP:  cpu time   15.9076: real time   15.9567

 eigenvalue-minimisations  :     0
 total energy-change (2. order) :-0.3590823E+00  (-0.7348826E-01)
 number of electron     257.9999960 magnetization       5.9999999
 augmentation part       76.2340769 magnetization       3.7393477

 Free energy of the ion-electron system (eV)
  ---------------------------------------------------
  alpha Z        PSCENC =       746.38965740
  Ewald energy   TEWEN  =    -13667.50817111
  -Hartree energ DENC   =     -7331.50910930
  -exchange      EXHF   =         0.00000000
  -V(xc)+E(xc)   XCENC  =       853.49108430
  PAW double counting   =     23944.57043878   -24412.54889431
  entropy T*S    EENTRO =        -0.02104564
  eigenvalues    EBANDS =      -521.32872913
  atomic energy  EATOM  =     20168.87094289
  ---------------------------------------------------
  free energy    TOTEN  =      -219.59513472 eV

  energy without entropy =     -219.57408908  energy(sigma->0) =     -219.58461190


--------------------------------------------------------------------------------------------------------




--------------------------------------- Iteration      1(  23)  ---------------------------------------


    POTLOK:  cpu time    0.0457: real time    0.0457
    SETDIJ:  cpu time    0.0126: real time    0.0127
    TRIAL :  cpu time   11.2592: real time   11.2923
    CORREC:  cpu time    4.2091: real time    4.2211
    CHARGE:  cpu time    0.4211: real time    0.4224
    --------------------------------------------
      LOOP:  cpu time   15.9519: real time   15.9984

 eigenvalue-minimisations  :     0
 total energy-change (2. order) :-0.6393407E-01  (-0.7950375E-01)
 number of electron     257.9999960 magnetization       5.9999999
 augmentation part       76.1357084 magnetization       3.7541439

 Free energy of the ion-electron system (eV)
  ---------------------------------------------------
  alpha Z        PSCENC =       746.38965740
  Ewald energy   TEWEN  =    -13667.50817111
  -Hartree energ DENC   =     -7327.10053885
  -exchange      EXHF   =         0.00000000
  -V(xc)+E(xc)   XCENC  =       853.50684948
  PAW double counting   =     23938.92648356   -24406.11261360
  entropy T*S    EENTRO =        -0.02014988
  eigenvalues    EBANDS =      -526.61063290
  atomic energy  EATOM  =     20168.87094289
  ---------------------------------------------------
  free energy    TOTEN  =      -219.65906879 eV

  energy without entropy =     -219.63891891  energy(sigma->0) =     -219.64899385


--------------------------------------------------------------------------------------------------------




--------------------------------------- Iteration      1(  24)  ---------------------------------------


    POTLOK:  cpu time    0.0567: real time    0.0570
    SETDIJ:  cpu time    0.0135: real time    0.0135
    TRIAL :  cpu time   11.4294: real time   11.4694
    CORREC:  cpu time    4.0180: real time    4.0302
    CHARGE:  cpu time    0.4194: real time    0.4207
    --------------------------------------------
      LOOP:  cpu time   15.9411: real time   15.9949

 eigenvalue-minimisations  :     0
 total energy-change (2. order) :-0.7799442E-01  (-0.9358894E-01)
 number of electron     257.9999960 magnetization       6.0000000
 augmentation part       76.0147991 magnetization       3.7772072

 Free energy of the ion-electron system (eV)
  ---------------------------------------------------
  alpha Z        PSCENC =       746.38965740
  Ewald energy   TEWEN  =    -13667.50817111
  -Hartree energ DENC   =     -7316.56123805
  -exchange      EXHF   =         0.00000000
  -V(xc)+E(xc)   XCENC  =       853.21721953
  PAW double counting   =     23929.16651371   -24394.02862076
  entropy T*S    EENTRO =        -0.01861768
  eigenvalues    EBANDS =      -539.26321693
  atomic energy  EATOM  =     20168.87094289
  ---------------------------------------------------
  free energy    TOTEN  =      -219.73706321 eV

  energy without entropy =     -219.71844553  energy(sigma->0) =     -219.72775437


--------------------------------------------------------------------------------------------------------




--------------------------------------- Iteration      1(  25)  ---------------------------------------


    POTLOK:  cpu time    0.0452: real time    0.0453
    SETDIJ:  cpu time    0.0125: real time    0.0126
    TRIAL :  cpu time   11.4186: real time   11.4545
    CORREC:  cpu time    3.9829: real time    3.9933
    CHARGE:  cpu time    0.4166: real time    0.4174
    --------------------------------------------
      LOOP:  cpu time   15.8801: real time   15.9275

 eigenvalue-minimisations  :     0
 total energy-change (2. order) :-0.9274627E-01  (-0.1182693E+00)
 number of electron     257.9999959 magnetization       6.0000000
[...]
   20        1.572   3.381   0.000   4.953
   21        1.570   3.428   0.000   4.998
   22        1.581   3.361   0.000   4.942
   23        1.561   3.465   0.000   5.027
   24        1.574   3.434   0.000   5.009
   25        1.568   3.417   0.000   4.985
   26        1.575   3.444   0.000   5.020
   27        1.566   3.469   0.000   5.035
   28        1.564   3.430   0.000   4.994
   29        1.578   3.385   0.000   4.963
   30        1.578   3.371   0.000   4.949
   31        1.579   3.348   0.000   4.927
   32        1.569   3.410   0.000   4.979
   33        1.567   3.438   0.000   5.005
   34        1.559   3.479   0.000   5.038
   35        1.579   3.352   0.000   4.931
   36        1.566   3.419   0.000   4.985
   37        1.580   3.400   0.000   4.980
   38        1.572   3.402   0.000   4.974
   39        1.563   3.440   0.000   5.002
   40        1.564   3.480   0.000   5.044
   41        1.575   3.402   0.000   4.977
   42        1.576   3.430   0.000   5.005
--------------------------------------------------
tot         43.659  91.717  87.803 223.179
 


 magnetization (x)
 
# of ion       s       p       d       tot
------------------------------------------
    1        0.000  -0.001   0.000  -0.001
    2        0.000  -0.001   0.000  -0.001
    3        0.001  -0.000   0.000   0.001
    4        0.001   0.000   0.000   0.001
    5       -0.000  -0.002   0.000  -0.002
    6        0.001  -0.001   0.000  -0.000
    7        0.003   0.004   0.008   0.014
    8        0.004   0.005  -0.014  -0.005
    9        0.011   0.014   1.342   1.368
   10        0.012   0.014   1.283   1.309
   11        0.012   0.014   1.354   1.381
   12        0.012   0.014   1.367   1.393
   13        0.004   0.005  -0.010  -0.002
   14        0.003   0.004  -0.031  -0.024
   15        0.005   0.006  -0.034  -0.024
   16        0.005   0.006   0.016   0.027
   17        0.009   0.015   1.283   1.306
   18        0.008   0.010   1.178   1.196
   19        0.000  -0.032   0.000  -0.032
   20       -0.001  -0.120   0.000  -0.121
   21        0.000  -0.081   0.000  -0.081
   22        0.001  -0.138   0.000  -0.137
   23        0.001  -0.036   0.000  -0.035
   24        0.001  -0.049   0.000  -0.048
   25        0.001  -0.077   0.000  -0.077
   26        0.000  -0.061   0.000  -0.061
   27        0.000  -0.044   0.000  -0.044
   28        0.000  -0.047   0.000  -0.047
   29        0.000  -0.108   0.000  -0.108
   30        0.000  -0.166   0.000  -0.166
   31        0.001  -0.133   0.000  -0.132
   32        0.000  -0.089   0.000  -0.088
   33        0.000  -0.032   0.000  -0.032
   34       -0.000  -0.035   0.000  -0.035
   35       -0.000  -0.096   0.000  -0.096
   36        0.000  -0.029   0.000  -0.029
   37        0.000  -0.103   0.000  -0.103
   38        0.000  -0.103   0.000  -0.102
   39       -0.000  -0.069   0.000  -0.069
   40        0.000  -0.056   0.000  -0.056
   41        0.000   0.008   0.000   0.009
   42        0.002   0.002   0.000   0.004
--------------------------------------------------
tot          0.097  -1.587   7.741   6.251
 
    FORLOC:  cpu time    0.0086: real time    0.0086
    FORNL :  cpu time    3.9581: real time    3.9594
    STRESS:  cpu time   11.7780: real time   11.7824
    FORCOR:  cpu time    0.0491: real time    0.0491
    OFIELD:  cpu time    0.0003: real time    0.0003

  DFT-D2 method for vdW energy calculation
  -------------------------------------------------------------------

  Parameters of vdW forcefield:
         C6(Jnm^6/mol)     R0(A)
   -----------------------------
   Li       1.610          0.825
   Co      10.800          1.562
   O        0.700          1.342

  IVDW =   1
  VDW_RADIUS =    50.000 A
  VDW_S6 =     0.750
  VDW_SR =     1.000
  VDW_D =    20.000
  LVDW_EWALD = F

  Number of pair interactions contributing to vdW energy: 1204021
  Edisp (eV):   -9.41940
    FORVDW:  cpu time    0.1765: real time    0.1775

  FORCE on cell =-STRESS in cart. coord.  units (eV):
  Direction    XX          YY          ZZ          XY          YZ          ZX
  --------------------------------------------------------------------------------------
  Alpha Z   746.38966   746.38966   746.38966
  Ewald   -1197.55085 -1531.86989-10938.15692    97.41028   106.61954    47.87729
  Hartree  4922.76557  4794.95628 -2413.76822    31.83639    50.16639    15.26374
  E(xc)   -1285.40898 -1285.73264 -1287.01600     0.23606    -0.13503     0.02816
  Local   -8666.11561 -8220.68737  8359.10293  -118.28795  -156.47900   -55.38471
  n-local  -586.35058  -594.31450  -598.22716     3.44411     3.45564     3.59864
  augment  2015.80596  2020.96003  2004.93051    -6.04098     0.40571    -4.72528
  Kinetic  4061.63080  4088.60320  4131.48732   -13.28586     5.93974     0.01744
  Fock        0.00000     0.00000     0.00000     0.00000     0.00000     0.00000
  vdW        -6.39374    -6.67084   -13.12486     0.48673    -0.28472     0.10673
  -------------------------------------------------------------------------------------
  Total       4.77223    11.63393    -8.38276    -4.20123     9.68827     6.78200
  in kB      19.46627    47.45566   -34.19388   -17.13713    39.51915    27.66428
  external pressure =       10.91 kB  Pullay stress =        0.00 kB


 VOLUME and BASIS-vectors are now :
 -----------------------------------------------------------------------------
  energy-cutoff  :      600.00
  volume of cell :      392.78
      direct lattice vectors                 reciprocal lattice vectors
     5.627731323  0.000000000  0.000000000     0.177691496  0.101885023  0.008004719
    -2.737727642  4.774704933  0.000000000     0.000000000  0.209437026  0.004115032
    -0.493812293 -0.287203014 14.617368698     0.000000000  0.000000000  0.068411766

  length of vectors
     5.627731323  5.503904054 14.628527055     0.204985125  0.209477448  0.068411766


 FORCES acting on ions:
    Electron-Ion                     Ewald-Force                    Non-Local-Force
 -----------------------------------------------------------------------------------------------
   0.195E+01 0.316E+01 0.709E+01   -.185E+01 -.286E+01 -.724E+01   -.811E+00 -.528E+00 -.104E+01
   -.530E+01 0.113E+01 0.444E+01   0.476E+01 -.130E+01 -.431E+01   0.142E+01 -.207E+00 -.765E+00
   -.513E+00 -.369E+01 0.446E-01   0.270E-01 0.383E+01 -.336E-01   0.219E+00 0.856E+00 0.170E+00
   0.269E+01 0.480E+01 0.314E+01   -.197E+01 -.484E+01 -.279E+01   -.383E+00 -.700E+00 -.406E+00
   -.314E+01 -.222E+01 0.212E+02   0.296E+01 0.210E+01 -.214E+02   0.303E+00 0.641E+00 -.889E+00
   -.251E+01 0.122E+00 0.464E+01   0.238E+01 -.433E-01 -.459E+01   0.472E+00 -.196E+00 -.569E-01
   -.219E+02 0.208E+02 -.506E+02   0.226E+02 -.218E+02 0.523E+02   0.909E+00 -.100E+01 0.163E+01
   -.786E+01 0.444E+01 -.167E+03   0.821E+01 -.438E+01 0.167E+03   -.962E-01 -.993E+00 -.194E+01
   -.155E+01 0.317E+02 -.252E+02   0.623E+00 -.333E+02 0.263E+02   -.930E-01 -.712E+00 0.140E+00
   0.200E+02 -.321E+02 -.153E+03   -.201E+02 0.332E+02 0.152E+03   0.126E+00 0.109E+01 -.907E-01
   0.326E+01 0.286E+02 0.112E+03   -.385E+01 -.291E+02 -.113E+03   -.740E+00 -.716E+00 0.494E+00
   0.152E+02 -.325E+02 0.103E+03   -.153E+02 0.330E+02 -.104E+03   -.902E+00 0.126E+00 -.943E-01
   0.344E+02 0.434E+02 0.992E+02   -.362E+02 -.429E+02 -.984E+02   -.107E+01 -.191E+00 0.868E+00
   0.404E+02 -.300E+02 0.105E+03   -.421E+02 0.296E+02 -.106E+03   -.169E+01 0.640E+00 -.125E+01
   0.184E+02 0.223E+02 -.392E+02   -.193E+02 -.237E+02 0.394E+02   0.141E+01 -.933E+00 -.472E+00
   -.734E+01 0.239E+02 -.255E+02   0.628E+01 -.248E+02 0.270E+02   0.649E+00 -.852E+00 -.944E-01
   -.583E+02 0.254E+02 0.815E+02   0.616E+02 -.259E+02 -.803E+02   0.749E+00 -.798E-02 0.304E+00
   -.172E+02 -.548E+02 -.535E+02   0.186E+02 0.574E+02 0.551E+02   0.121E+00 0.398E+00 0.133E+00
   -.232E+01 -.292E+02 -.395E+03   0.402E+01 0.368E+02 0.411E+03   -.206E+01 -.812E+01 -.159E+02
   -.194E+02 0.141E+02 -.405E+03   0.231E+02 -.175E+02 0.426E+03   -.415E+01 0.316E+01 -.217E+02
   -.297E+01 -.866E+01 -.399E+03   0.353E+00 0.116E+02 0.418E+03   0.372E+01 -.316E+01 -.192E+02
   0.297E+02 0.317E+02 -.407E+03   -.342E+02 -.401E+02 0.429E+03   0.406E+01 0.898E+01 -.221E+02
   -.148E+01 -.144E+02 0.256E+03   0.199E+01 0.160E+02 -.269E+03   -.808E+00 -.155E+00 0.147E+02
   0.168E+02 -.246E+02 0.279E+03   -.198E+02 0.290E+02 -.303E+03   0.234E+01 -.265E+01 0.230E+02
   0.763E+01 0.171E+02 0.263E+03   -.793E+01 -.199E+02 -.281E+03   -.523E+00 0.283E+01 0.197E+02
   -.179E+02 -.173E+02 0.285E+03   0.203E+02 0.217E+02 -.309E+03   -.161E+01 -.400E+01 0.223E+02
   -.167E+02 0.200E+02 -.272E+03   0.220E+02 -.203E+02 0.291E+03   -.464E+01 -.528E+00 -.181E+02
   -.197E+02 -.221E+02 -.263E+03   0.248E+02 0.254E+02 0.281E+03   -.393E+01 -.257E+01 -.179E+02
   0.465E+01 0.136E+02 -.284E+03   -.691E+01 -.171E+02 0.308E+03   0.329E+01 0.383E+01 -.236E+02
   -.275E+02 -.238E+02 -.271E+03   0.279E+02 0.255E+02 0.293E+03   0.237E+01 -.617E+00 -.223E+02
   -.135E+02 -.262E+02 0.414E+03   0.174E+02 0.312E+02 -.436E+03   -.438E+01 -.566E+01 0.223E+02
   -.158E+02 0.954E+01 0.398E+03   0.211E+02 -.910E+01 -.416E+03   -.516E+01 -.819E+00 0.188E+02
   0.788E+01 -.127E+02 0.420E+03   -.108E+02 0.130E+02 -.441E+03   0.381E+01 0.428E+00 0.204E+02
   -.398E+01 0.321E+02 0.410E+03   0.302E+01 -.377E+02 -.427E+03   0.235E+01 0.477E+01 0.156E+02
   -.504E+01 -.135E+02 -.329E+03   0.216E+00 0.168E+02 0.350E+03   0.529E+01 -.235E+01 -.216E+02
   0.115E+02 -.255E+02 -.332E+03   -.127E+02 0.236E+02 0.347E+03   -.257E-01 0.382E+01 -.165E+02
   0.252E+02 0.263E+01 -.374E+03   -.248E+02 -.258E+01 0.400E+03   -.177E+01 0.759E+00 -.262E+02
   -.638E+00 -.401E+00 -.347E+03   0.153E+00 0.239E+01 0.368E+03   -.130E+00 -.146E+01 -.207E+02
   -.253E+01 0.146E+01 0.308E+03   0.117E+01 -.580E+01 -.322E+03   0.873E+00 0.397E+01 0.148E+02
   -.253E+02 0.645E+00 0.330E+03   0.265E+02 0.118E+01 -.348E+03   -.116E+01 -.286E+01 0.159E+02
   0.307E+02 0.558E+01 0.350E+03   -.341E+02 -.582E+01 -.375E+03   0.292E+01 0.665E-01 0.250E+02
   0.288E+02 0.226E+02 0.348E+03   -.303E+02 -.225E+02 -.374E+03   -.130E+00 -.204E+01 0.248E+02
 -----------------------------------------------------------------------------------------------
   -.109E+01 0.768E+01 0.119E+02   -.124E-12 0.355E-13 0.796E-12   0.114E+01 -.768E+01 -.119E+02
 
 
 POSITION                                       TOTAL-FORCE (eV/Angst)
 -----------------------------------------------------------------------------------
     -2.59071      4.75266      0.09046        -0.416420     -0.094035     -0.996917
     -0.06856      4.75371      0.06553         0.608437     -0.287247     -0.606180
      3.92233      0.29340      4.87665        -0.167509      0.903375      0.236234
      2.73135      3.25555      4.90329         0.259299     -0.663484     -0.041755
     -0.40958      1.45254     10.03406         0.181921      0.317788     -0.970468
     -1.88253      3.85966      9.74561         0.317354     -0.083429     -0.024842
     -0.09402      1.49474      2.18810         1.421782     -1.742388      2.949570
     -1.42625      3.92062      2.50087         0.179360     -0.801864     -1.649227
      2.84301      1.53023      2.23300        -0.951443     -2.052817      1.268002
      1.36350      3.79213      2.44034         0.114139      1.950494     -0.754578
      2.62687      4.59291      7.36129        -1.155772     -1.106522      0.157742
      3.95765      2.09745      7.43435        -0.828856      0.495495     -0.376067
     -0.15901      4.47027      7.36333        -2.488886      0.490952      1.442055
      1.22647      2.14056      7.46537        -2.916426      0.099387     -1.746116
      1.00758      0.81945     12.19486         0.396213     -2.093642     -0.367045
     -0.26645      3.20811     12.17206        -0.478415     -1.528019      1.274189
      3.73045      0.70676     12.03016         3.627873     -0.376346      1.512516
      2.51555      3.04668     12.21106         1.270857      2.658313      1.503881
      5.46692     -0.05950      3.37869        -0.307431     -0.467893      0.204805
     -1.44450      2.25745      3.39482        -0.412434     -0.242275     -0.617296
      2.72313     -0.02653      3.33958         1.042680     -0.227172      0.144350
      1.43946      2.16409      3.31619        -0.351086      0.642104     -0.063600
      1.40964      0.57452      1.24705        -0.308562      1.465308      1.387182
      0.03287      3.06518      1.42500        -0.686392      1.647750     -0.738390
      4.19865      0.64645      1.19796        -0.834624      0.126566      1.083402
      2.76192      3.13386      1.48558         0.847661      0.279625     -0.998637
      1.08721      0.53717      8.29120         0.599134     -0.752221      1.654228
     -0.38648      2.82076      8.47304         1.144541      0.813214     -0.228166
      3.90744      0.50867      8.41408         1.019526      0.392893     -0.327808
      2.42468      2.90815      8.50515         2.671806      0.958090     -0.436731
     -0.23460      1.42171      6.33643        -0.480550     -0.689598      0.772264
     -1.67554      3.71932      6.37746         0.212784     -0.344577      0.373014
      2.56001      1.31019      6.45951         0.866402      0.703869     -0.922971
      1.20974      3.79056      6.41999         1.346083     -0.900195     -0.984815
     -0.46151      1.37864     13.16606         0.517104      0.965945     -0.402059
     -1.64830      3.72223     13.29736        -1.149498      1.832983     -0.951332
      2.53906      1.42064     13.14786        -1.365687      0.783266      0.378123
      1.18276      3.89645     13.20296        -0.728630      0.475936     -0.587516
     -0.29925     -0.03699     11.12596        -0.551131     -0.349509      0.718840
     -1.69285      2.42014     11.28106        -0.025194     -1.069015     -1.953768
      2.39002     -0.00505     11.06056        -0.426029     -0.149864      0.644554
      1.19014      2.51437     11.22796        -1.613979     -1.981245     -0.958665
 -----------------------------------------------------------------------------------
    total drift:                                0.049791      0.007453      0.028970


--------------------------------------------------------------------------------------------------------



  FREE ENERGIE OF THE ION-ELECTRON SYSTEM (eV)
  ---------------------------------------------------
  free  energy   TOTEN  =      -231.98174246 eV

  energy  without entropy=     -231.98174246  energy(sigma->0) =     -231.98174246
 


--------------------------------------------------------------------------------------------------------


    POTLOK:  cpu time    0.0651: real time    0.0651


--------------------------------------------------------------------------------------------------------


     LOOP+:  cpu time 3050.4961: real time 3065.9139
    4ORBIT:  cpu time    0.0000: real time    0.0000
 


 total charge     
 
# of ion       s       p       d       tot
------------------------------------------
    1        0.097   0.206   0.000   0.303
    2        0.103   0.221   0.000   0.324
    3        0.079   0.155   0.000   0.233
    4        0.073   0.143   0.000   0.216
    5        0.090   0.188   0.000   0.277
    6        0.085   0.175   0.000   0.260
    7        0.432   0.667   7.359   8.458
    8        0.436   0.683   7.381   8.500
    9        0.463   0.740   7.230   8.433
   10        0.476   0.767   7.271   8.514
   11        0.469   0.750   7.250   8.469
   12        0.461   0.736   7.229   8.426
   13        0.438   0.686   7.383   8.506
   14        0.451   0.713   7.407   8.571
   15        0.418   0.632   7.353   8.403
   16        0.436   0.686   7.394   8.516
   17        0.468   0.751   7.267   8.485
   18        0.485   0.800   7.280   8.566
   19        1.563   3.435   0.000   4.998
   20        1.572   3.381   0.000   4.953
   21        1.570   3.428   0.000   4.998
   22        1.581   3.361   0.000   4.942
   23        1.561   3.465   0.000   5.027
   24        1.574   3.434   0.000   5.009
   25        1.568   3.417   0.000   4.985
   26        1.575   3.444   0.000   5.020
   27        1.566   3.469   0.000   5.035
   28        1.564   3.430   0.000   4.994
   29        1.578   3.385   0.000   4.963
   30        1.578   3.371   0.000   4.949
   31        1.579   3.348   0.000   4.927
   32        1.569   3.410   0.000   4.979
   33        1.567   3.438   0.000   5.005
   34        1.559   3.479   0.000   5.038
   35        1.579   3.352   0.000   4.931
   36        1.566   3.419   0.000   4.985
   37        1.580   3.400   0.000   4.980
   38        1.572   3.402   0.000   4.974
   39        1.563   3.440   0.000   5.002
   40        1.564   3.480   0.000   5.044
   41        1.575   3.402   0.000   4.977
   42        1.576   3.430   0.000   5.005
--------------------------------------------------
tot         43.659  91.717  87.803 223.179
 


 magnetization (x)
 
# of ion       s       p       d       tot
------------------------------------------
    1        0.000  -0.001   0.000  -0.001
    2        0.000  -0.001   0.000  -0.001
    3        0.001  -0.000   0.000   0.001
    4        0.001   0.000   0.000   0.001
    5       -0.000  -0.002   0.000  -0.002
    6        0.001  -0.001   0.000  -0.000
    7        0.003   0.004   0.008   0.014
    8        0.004   0.005  -0.014  -0.005
    9        0.011   0.014   1.342   1.368
   10        0.012   0.014   1.283   1.309
   11        0.012   0.014   1.354   1.381
   12        0.012   0.014   1.367   1.393
   13        0.004   0.005  -0.010  -0.002
   14        0.003   0.004  -0.031  -0.024
   15        0.005   0.006  -0.034  -0.024
   16        0.005   0.006   0.016   0.027
   17        0.009   0.015   1.283   1.306
   18        0.008   0.010   1.178   1.196
   19        0.000  -0.032   0.000  -0.032
   20       -0.001  -0.120   0.000  -0.121
   21        0.000  -0.081   0.000  -0.081
   22        0.001  -0.138   0.000  -0.137
   23        0.001  -0.036   0.000  -0.035
   24        0.001  -0.049   0.000  -0.048
   25        0.001  -0.077   0.000  -0.077
   26        0.000  -0.061   0.000  -0.061
   27        0.000  -0.044   0.000  -0.044
   28        0.000  -0.047   0.000  -0.047
   29        0.000  -0.108   0.000  -0.108
   30        0.000  -0.166   0.000  -0.166
   31        0.001  -0.133   0.000  -0.132
   32        0.000  -0.089   0.000  -0.088
   33        0.000  -0.032   0.000  -0.032
   34       -0.000  -0.035   0.000  -0.035
   35       -0.000  -0.096   0.000  -0.096
   36        0.000  -0.029   0.000  -0.029
   37        0.000  -0.103   0.000  -0.103
   38        0.000  -0.103   0.000  -0.102
   39       -0.000  -0.069   0.000  -0.069
   40        0.000  -0.056   0.000  -0.056
   41        0.000   0.008   0.000   0.009
   42        0.002   0.002   0.000   0.004
--------------------------------------------------
tot          0.097  -1.587   7.741   6.251
 

 total amount of memory used by VASP MPI-rank0   159316. kBytes
=======================================================================

   base      :      30000. kBytes
   nonlr-proj:       4310. kBytes
   fftplans  :       1688. kBytes
   grid      :       4644. kBytes
   one-center:        342. kBytes
   wavefun   :     118332. kBytes
 
  
  
 General timing and accounting informations for this job:
 ========================================================
  
                  Total CPU time used (sec):     3075.899
                            User time (sec):     2872.254
                          System time (sec):      203.645
                         Elapsed time (sec):     3091.805
  
                   Maximum memory used (kb):      854964.
                   Average memory used (kb):           0.
  
                          Minor page faults:        70918
                          Major page faults:           74
                 Voluntary context switches:          627
