       N       E                     dE             d eps       ncg     rms          ort
DAV:   1     0.351884465412E+04    0.35188E+04   -0.13978E+05  5760   0.222E+03
DAV:   2     0.408465446449E+03   -0.31104E+04   -0.28718E+04  5760   0.545E+02
DAV:   3    -0.220181864904E+03   -0.62865E+03   -0.56698E+03  5760   0.256E+02
DAV:   4    -0.270978018879E+03   -0.50796E+02   -0.49883E+02  5760   0.752E+01
DAV:   5    -0.272681456714E+03   -0.17034E+01   -0.17006E+01  5760   0.136E+01
SDA:   6     0.149638895477E+03    0.42232E+03   -0.17006E+01  5760   0.482E+04 0.000E+00
CGA:   7     0.297549421433E+02   -0.11988E+03   -0.19430E+03  5760   0.565E+04-0.223E+04
CGA:   8    -0.563941961445E+02   -0.86149E+02   -0.10821E+03  5760   0.416E+04 0.775E+03
CGA:   9    -0.173921611683E+03   -0.11753E+03   -0.10149E+03  5760   0.478E+03 0.766E+03
CGA:  10    -0.188186686083E+03   -0.14265E+02   -0.20385E+02  5760   0.404E+03-0.914E+02
CGA:  11    -0.195088847475E+03   -0.69022E+01   -0.13215E+02  5760   0.272E+03-0.950E+02
CGA:  12    -0.201372507365E+03   -0.62837E+01   -0.76237E+01  5760   0.205E+03-0.199E+02
CGA:  13    -0.209847269241E+03   -0.84748E+01   -0.87537E+01  5760   0.193E+03-0.148E+02
CGA:  14    -0.212777403748E+03   -0.29301E+01   -0.59650E+01  5760   0.116E+03-0.559E+02
CGA:  15    -0.215356888684E+03   -0.25795E+01   -0.28488E+01  5760   0.553E+02-0.340E+01
CGA:  16    -0.216734786588E+03   -0.13779E+01   -0.21113E+01  5760   0.433E+02-0.166E+02
CGA:  17    -0.217479622307E+03   -0.74484E+00   -0.96896E+00  5760   0.182E+02-0.535E+01
CGA:  18    -0.218100302728E+03   -0.62068E+00   -0.72999E+00  5760   0.171E+02-0.164E+01
CGA:  19    -0.218869589371E+03   -0.76929E+00   -0.80980E+00  5760   0.929E+01-0.420E+00
CGA:  20    -0.219255656846E+03   -0.38607E+00   -0.43777E+00  5760   0.694E+01-0.567E+00
CGA:  21    -0.219617432962E+03   -0.36178E+00   -0.37879E+00  5760   0.285E+01-0.139E+00
CGA:  22    -0.219759829410E+03   -0.14240E+00   -0.14685E+00  5760   0.211E+01-0.447E-01
CGA:  23    -0.219917831394E+03   -0.15800E+00   -0.16064E+00  5760   0.144E+01 0.726E-02
CGA:  24    -0.220066177296E+03   -0.14835E+00   -0.15000E+00  5760   0.217E+01 0.120E+00
CGA:  25    -0.220298179911E+03   -0.23200E+00   -0.23247E+00  5760   0.148E+01 0.184E-01
CGA:  26    -0.220459702746E+03   -0.16152E+00   -0.16155E+00  5760   0.182E+01 0.105E-01
CGA:  27    -0.220685664365E+03   -0.22596E+00   -0.22309E+00  5760   0.128E+01 0.133E+00
CGA:  28    -0.220883487651E+03   -0.19782E+00   -0.20273E+00  5760   0.212E+01-0.967E-01
CGA:  29    -0.221068524314E+03   -0.18504E+00   -0.18504E+00  5760   0.117E+01 0.264E-02
CGA:  30    -0.221250618318E+03   -0.18209E+00   -0.17761E+00  5760   0.168E+01 0.753E-01
CGA:  31    -0.221384570157E+03   -0.13395E+00   -0.12450E+00  5760   0.105E+01-0.183E-01
CGA:  32    -0.221526130302E+03   -0.14156E+00   -0.13804E+00  5760   0.731E+00 0.964E-01
CGA:  33    -0.221598165797E+03   -0.72035E-01   -0.73166E-01  5760   0.729E+00 0.162E-01
CGA:  34    -0.221676941818E+03   -0.78776E-01   -0.79069E-01  5760   0.403E+00 0.294E-01
CGA:  35    -0.221750324569E+03   -0.73383E-01   -0.72936E-01  5760   0.555E+00 0.563E-02
CGA:  36    -0.221791371274E+03   -0.41047E-01   -0.42310E-01  5760   0.258E+00-0.633E-03
SDA:  37    -0.221841188219E+03   -0.49817E-01   -0.49862E-01  5760   0.248E+00-0.535E-03
CGA:  38    -0.221863781409E+03   -0.22593E-01   -0.22081E-01  5760   0.144E+00-0.367E-02
CGA:  39    -0.221884141909E+03   -0.20361E-01   -0.20222E-01  5760   0.116E+00 0.345E-02
CGA:  40    -0.221920023249E+03   -0.35881E-01   -0.36094E-01  5760   0.104E+00-0.123E-02
CGA:  41    -0.221939260681E+03   -0.19237E-01   -0.19234E-01  5760   0.112E+00-0.640E-05
CGA:  42    -0.221964639259E+03   -0.25379E-01   -0.24639E-01  5760   0.162E+00 0.638E-02
CGA:  43    -0.221988797593E+03   -0.24158E-01   -0.24146E-01  5760   0.979E-01 0.951E-03
CGA:  44    -0.222021282770E+03   -0.32485E-01   -0.33797E-01  5760   0.112E+00-0.760E-02
CGA:  45    -0.222047596995E+03   -0.26314E-01   -0.26123E-01  5760   0.908E-01 0.138E-02
CGA:  46    -0.222077065529E+03   -0.29469E-01   -0.28644E-01  5760   0.983E-01 0.281E-02
CGA:  47    -0.222093104887E+03   -0.16039E-01   -0.16046E-01  5760   0.154E+00-0.291E-02
CGA:  48    -0.222109588006E+03   -0.16483E-01   -0.16328E-01  5760   0.962E-01 0.120E-02
CGA:  49    -0.222126196639E+03   -0.16609E-01   -0.16495E-01  5760   0.114E+00-0.560E-03
CGA:  50    -0.222133792184E+03   -0.75955E-02   -0.74781E-02  5760   0.537E-01 0.349E-02
CGA:  51    -0.222147346756E+03   -0.13555E-01   -0.12636E-01  5760   0.379E-01 0.719E-02
CGA:  52    -0.222154659325E+03   -0.73126E-02   -0.73438E-02  5760   0.771E-01-0.515E-02
CGA:  53    -0.222160352243E+03   -0.56929E-02   -0.53209E-02  5760   0.419E-01 0.221E-02
CGA:  54    -0.222167638182E+03   -0.72859E-02   -0.71981E-02  5760   0.655E-01 0.323E-02
CGA:  55    -0.222172736752E+03   -0.50986E-02   -0.48648E-02  5760   0.427E-01-0.101E-01
CGA:  56    -0.222179679074E+03   -0.69423E-02   -0.70432E-02  5760   0.816E-01-0.198E-02
CGA:  57    -0.222183716739E+03   -0.40377E-02   -0.47007E-02  5760   0.370E-01-0.651E-02
CGA:  58    -0.222190312524E+03   -0.65958E-02   -0.65762E-02  5760   0.375E-01 0.227E-03
CGA:  59    -0.222193226808E+03   -0.29143E-02   -0.28675E-02  5760   0.340E-01-0.380E-03
CGA:  60    -0.222198000848E+03   -0.47740E-02   -0.47817E-02  5760   0.268E-01 0.294E-02
CGA:  61    -0.222199809001E+03   -0.18082E-02   -0.22312E-02  5760   0.230E-01 0.221E-03
CGA:  62    -0.222203826615E+03   -0.40176E-02   -0.40118E-02  5760   0.155E-01-0.134E-02
CGA:  63    -0.222206685797E+03   -0.28592E-02   -0.29788E-02  5760   0.223E-01 0.361E-05
CGA:  64    -0.222208120462E+03   -0.14347E-02   -0.17230E-02  5760   0.139E-01 0.510E-03
CGA:  65    -0.222210702105E+03   -0.25816E-02   -0.25477E-02  5760   0.101E-01-0.908E-03
CGA:  66    -0.222211891982E+03   -0.11899E-02   -0.11653E-02  5760   0.167E-01-0.270E-03
CGA:  67    -0.222213938871E+03   -0.20469E-02   -0.20612E-02  5760   0.904E-02 0.555E-03
SDA:  68    -0.222215401881E+03   -0.14630E-02   -0.14567E-02  5760   0.172E-01-0.789E-04
CGA:  69    -0.222216379166E+03   -0.97729E-03   -0.94712E-03  5760   0.672E-02 0.267E-03
CGA:  70    -0.222218636630E+03   -0.22575E-02   -0.21460E-02  5760   0.830E-02 0.303E-03
CGA:  71    -0.222220321317E+03   -0.16847E-02   -0.16430E-02  5760   0.128E-01 0.936E-03
CGA:  72    -0.222221586803E+03   -0.12655E-02   -0.13139E-02  5760   0.859E-02-0.995E-03
CGA:  73    -0.222223735900E+03   -0.21491E-02   -0.21864E-02  5760   0.564E-02-0.176E-03
CGA:  74    -0.222225020945E+03   -0.12850E-02   -0.12761E-02  5760   0.632E-02 0.597E-04
CGA:  75    -0.222225608645E+03   -0.58770E-03   -0.57869E-03  5760   0.578E-02-0.164E-03
CGA:  76    -0.222226435399E+03   -0.82675E-03   -0.83203E-03  5760   0.261E-02 0.372E-03
CGA:  77    -0.222226858781E+03   -0.42338E-03   -0.42338E-03  5760   0.670E-02-0.136E-03
CGA:  78    -0.222227723169E+03   -0.86439E-03   -0.86505E-03  5760   0.421E-02-0.540E-05
CGA:  79    -0.222228126712E+03   -0.40354E-03   -0.39984E-03  5760   0.673E-02-0.418E-04
CGA:  80    -0.222228932591E+03   -0.80588E-03   -0.82686E-03  5760   0.553E-02 0.719E-03
CGA:  81    -0.222229257393E+03   -0.32480E-03   -0.38626E-03  5760   0.415E-02-0.298E-03
CGA:  82    -0.222230116540E+03   -0.85915E-03   -0.87298E-03  5760   0.574E-02-0.561E-03
CGA:  83    -0.222230408839E+03   -0.29230E-03   -0.27142E-03  5760   0.261E-02 0.700E-04
CGA:  84    -0.222230957694E+03   -0.54885E-03   -0.54688E-03  5760   0.586E-02 0.254E-04
CGA:  85    -0.222231317237E+03   -0.35954E-03   -0.38002E-03  5760   0.260E-02-0.192E-04
CGA:  86    -0.222231766265E+03   -0.44903E-03   -0.44654E-03  5760   0.517E-02-0.455E-04
CGA:  87    -0.222232160006E+03   -0.39374E-03   -0.39074E-03  5760   0.325E-02 0.643E-05
CGA:  88    -0.222232916945E+03   -0.75694E-03   -0.75436E-03  5760   0.994E-02-0.295E-04
CGA:  89    -0.222233610673E+03   -0.69373E-03   -0.71494E-03  5760   0.422E-02-0.390E-04
CGA:  90    -0.222234324823E+03   -0.71415E-03   -0.71144E-03  5760   0.103E-01-0.826E-04
CGA:  91    -0.222235205211E+03   -0.88039E-03   -0.89247E-03  5760   0.609E-02 0.260E-03
CGA:  92    -0.222235881694E+03   -0.67648E-03   -0.70152E-03  5760   0.925E-02 0.885E-04
CGA:  93    -0.222236814067E+03   -0.93237E-03   -0.91747E-03  5760   0.409E-02-0.796E-03
CGA:  94    -0.222237317841E+03   -0.50377E-03   -0.50415E-03  5760   0.529E-02 0.904E-04
CGA:  95    -0.222237815331E+03   -0.49749E-03   -0.49650E-03  5760   0.211E-02-0.184E-04
CGA:  96    -0.222238252440E+03   -0.43711E-03   -0.42655E-03  5760   0.204E-02 0.949E-04
CGA:  97    -0.222238441471E+03   -0.18903E-03   -0.19026E-03  5760   0.150E-02 0.310E-04
CGA:  98    -0.222238733430E+03   -0.29196E-03   -0.28472E-03  5760   0.106E-02 0.105E-03
SDA:  99    -0.222238936494E+03   -0.20306E-03   -0.20190E-03  5760   0.161E-02 0.940E-05
CGA: 100    -0.222239034942E+03   -0.98448E-04   -0.10073E-03  5760   0.590E-03-0.237E-04
CGA: 101    -0.222239175921E+03   -0.14098E-03   -0.13388E-03  5760   0.435E-03 0.378E-04
CGA: 102    -0.222239326643E+03   -0.15072E-03   -0.14980E-03  5760   0.590E-03 0.651E-05
CGA: 103    -0.222239402681E+03   -0.76039E-04   -0.77268E-04  5760   0.661E-03 0.665E-04
CGA: 104    -0.222239487945E+03   -0.85264E-04   -0.89507E-04  5760   0.304E-03-0.631E-05
CGA: 105    -0.222239587481E+03   -0.99536E-04   -0.10519E-03  5760   0.658E-03-0.230E-04
CGA: 106    -0.222239641720E+03   -0.54238E-04   -0.54397E-04  5760   0.488E-03 0.112E-04
CGA: 107    -0.222239727817E+03   -0.86097E-04   -0.84888E-04  5760   0.320E-03 0.338E-04
CGA: 108    -0.222239769429E+03   -0.41613E-04   -0.41312E-04  5760   0.554E-03-0.221E-04
CGA: 109    -0.222239855743E+03   -0.86313E-04   -0.86319E-04  5760   0.423E-03-0.125E-06
CGA: 110    -0.222239887346E+03   -0.31604E-04   -0.31687E-04  5760   0.357E-03-0.163E-05
CGA: 111    -0.222239938151E+03   -0.50804E-04   -0.50944E-04  5760   0.311E-03 0.521E-05
CGA: 112    -0.222239965402E+03   -0.27252E-04   -0.26885E-04  5760   0.369E-03-0.103E-04
CGA: 113    -0.222240017022E+03   -0.51619E-04   -0.51691E-04  5760   0.410E-03 0.293E-04
CGA: 114    -0.222240041667E+03   -0.24645E-04   -0.26263E-04  5760   0.204E-03-0.187E-04
CGA: 115    -0.222240080816E+03   -0.39149E-04   -0.39782E-04  5760   0.376E-03-0.915E-05
CGA: 116    -0.222240103878E+03   -0.23062E-04   -0.22699E-04  5760   0.181E-03 0.817E-05
CGA: 117    -0.222240128972E+03   -0.25094E-04   -0.25218E-04  5760   0.272E-03 0.274E-04
CGA: 118    -0.222240148403E+03   -0.19431E-04   -0.21712E-04  5760   0.954E-04-0.111E-04
CGA: 119    -0.222240169094E+03   -0.20690E-04   -0.21522E-04  5760   0.264E-03-0.807E-05
CGA: 120    -0.222240188026E+03   -0.18932E-04   -0.18564E-04  5760   0.137E-03 0.137E-04
CGA: 121    -0.222240205822E+03   -0.17796E-04   -0.18233E-04  5760   0.232E-03 0.355E-04
CGA: 122    -0.222240230585E+03   -0.24763E-04   -0.27451E-04  5760   0.121E-03-0.175E-04
CGA: 123    -0.222240255241E+03   -0.24656E-04   -0.30378E-04  5760   0.381E-03-0.419E-04
CGA: 124    -0.222240270901E+03   -0.15659E-04   -0.13769E-04  5760   0.204E-03 0.168E-04
CGA: 125    -0.222240285454E+03   -0.14554E-04   -0.14888E-04  5760   0.256E-03 0.197E-04
CGA: 126    -0.222240306978E+03   -0.21523E-04   -0.23752E-04  5760   0.207E-03 0.106E-04
CGA: 127    -0.222240316554E+03   -0.95764E-05   -0.97367E-05  5760   0.950E-04-0.291E-04
CGA: 128    -0.222240324529E+03   -0.79747E-05   -0.77668E-05  5760   0.170E-03-0.679E-05
CGA: 129    -0.222240335004E+03   -0.10475E-04   -0.10557E-04  5760   0.877E-04-0.754E-06
SDA: 130    -0.222240340013E+03   -0.50093E-05   -0.49783E-05  5760   0.826E-04 0.157E-06
CGA: 131    -0.222240347058E+03   -0.70451E-05   -0.72940E-05  5760   0.506E-04-0.662E-06
CGA: 132    -0.222240353036E+03   -0.59782E-05   -0.59781E-05  5760   0.322E-04 0.349E-06
CGA: 133    -0.222240362170E+03   -0.91338E-05   -0.77753E-05  5760   0.208E-04 0.933E-05
CGA: 134    -0.222240373046E+03   -0.10876E-04   -0.94881E-05  5760   0.286E-04 0.430E-05
CGA: 135    -0.222240380000E+03   -0.69544E-05   -0.71347E-05  5760   0.690E-04 0.104E-05
CGA: 136    -0.222240385842E+03   -0.58417E-05   -0.64588E-05  5760   0.341E-04 0.820E-05
CGA: 137    -0.222240389790E+03   -0.39477E-05   -0.41166E-05  5760   0.504E-04-0.288E-05
CGA: 138    -0.222240394779E+03   -0.49887E-05   -0.47146E-05  5760   0.252E-04-0.102E-04
CGA: 139    -0.222240396780E+03   -0.20012E-05   -0.19923E-05  5760   0.293E-04 0.314E-06
CGA: 140    -0.222240399915E+03   -0.31354E-05   -0.31532E-05  5760   0.156E-04 0.963E-06
CGA: 141    -0.222240403471E+03   -0.35558E-05   -0.34238E-05  5760   0.310E-04-0.222E-06
CGA: 142    -0.222240406250E+03   -0.27791E-05   -0.26694E-05  5760   0.161E-04-0.213E-05
CGA: 143    -0.222240409780E+03   -0.35296E-05   -0.34760E-05  5760   0.165E-04 0.521E-06
CGA: 144    -0.222240412393E+03   -0.26129E-05   -0.25785E-05  5760   0.247E-04 0.261E-05
CGA: 145    -0.222240415532E+03   -0.31394E-05   -0.32510E-05  5760   0.135E-04 0.725E-06
CGA: 146    -0.222240419327E+03   -0.37947E-05   -0.41434E-05  5760   0.201E-04-0.991E-06
CGA: 147    -0.222240422886E+03   -0.35590E-05   -0.33388E-05  5760   0.184E-04 0.627E-05
CGA: 148    -0.222240425735E+03   -0.28490E-05   -0.29900E-05  5760   0.137E-04 0.523E-06
CGA: 149    -0.222240427825E+03   -0.20899E-05   -0.20946E-05  5760   0.137E-04-0.102E-05
CGA: 150    -0.222240429665E+03   -0.18401E-05   -0.18394E-05  5760   0.124E-04-0.550E-06
CGA: 151    -0.222240432369E+03   -0.27040E-05   -0.28652E-05  5760   0.165E-04-0.289E-06
CGA: 152    -0.222240434051E+03   -0.16820E-05   -0.18399E-05  5760   0.948E-05 0.446E-06
CGA: 153    -0.222240435445E+03   -0.13940E-05   -0.13914E-05  5760   0.701E-05-0.138E-05
CGA: 154    -0.222240436490E+03   -0.10456E-05   -0.10519E-05  5760   0.666E-05-0.195E-06
CGA: 155    -0.222240437603E+03   -0.11123E-05   -0.11070E-05  5760   0.583E-05-0.303E-06
CGA: 156    -0.222240438655E+03   -0.10524E-05   -0.10666E-05  5760   0.594E-05-0.333E-06
CGA: 157    -0.222240439570E+03   -0.91501E-06   -0.91224E-06  5760   0.688E-05 0.309E-06
   1 F= -.23275448E+03 E0= -.23275147E+03  d E =-.601861E-02  mag=     6.0000
