       N       E                     dE             d eps       ncg     rms          ort
DAV:   1     0.348859932152E+04    0.34886E+04   -0.13935E+05  5760   0.219E+03
DAV:   2     0.405589277634E+03   -0.30830E+04   -0.28407E+04  5760   0.534E+02
DAV:   3    -0.220184683570E+03   -0.62577E+03   -0.57063E+03  5760   0.254E+02
DAV:   4    -0.270185361499E+03   -0.50001E+02   -0.49038E+02  5760   0.740E+01
DAV:   5    -0.271909984088E+03   -0.17246E+01   -0.17218E+01  5760   0.136E+01
SDA:   6     0.143279116411E+03    0.41519E+03   -0.17218E+01  5760   0.990E+04 0.000E+00
CGA:   7     0.621457227481E+03    0.47818E+03   -0.53754E+03  5760   0.142E+06-0.354E+05
CGA:   8     0.504575337505E+04    0.44243E+04   -0.11268E+05  5760   0.437E+05-0.166E+05
CGA:   9     0.383873282405E+04   -0.12070E+04   -0.23631E+04  5760   0.414E+05-0.280E+05
CGA:  10     0.278071898268E+04   -0.10580E+04   -0.22589E+04  5760   0.271E+05-0.456E+05
CGA:  11     0.313071445493E+04    0.35000E+03   -0.11174E+04  5760   0.165E+06-0.149E+06
CGA:  12     0.663015836043E+04    0.34994E+04   -0.11775E+05  5760   0.236E+06-0.954E+05
CGA:  13     0.386521735088E+04   -0.27649E+04   -0.18221E+05  5760   0.498E+05 0.177E+05
CGA:  14     0.412513381503E+04    0.25992E+03   -0.29929E+04  5760   0.106E+06-0.344E+03
CGA:  15     0.867176906151E+04    0.45466E+04   -0.63602E+04  5760   0.942E+05-0.192E+05
CGA:  16     0.580862810966E+04   -0.28631E+04   -0.69416E+04  5760   0.711E+05 0.205E+05
CGA:  17     0.270517502264E+04   -0.31035E+04   -0.66643E+04  5760   0.212E+05 0.243E+05
CGA:  18     0.236787315254E+04   -0.33730E+03   -0.86656E+03  5760   0.161E+05 0.238E+05
CGA:  19     0.155301978859E+04   -0.81485E+03   -0.66363E+03  5760   0.301E+04 0.600E+04
CGA:  20     0.134070923277E+04   -0.21231E+03   -0.17758E+03  5760   0.216E+04 0.880E+03
CGA:  21     0.111185399017E+04   -0.22886E+03   -0.20198E+03  5760   0.407E+04 0.321E+03
CGA:  22     0.998762601177E+03   -0.11309E+03   -0.18223E+03  5760   0.628E+04 0.961E+03
CGA:  23     0.939643072444E+03   -0.59120E+02   -0.49056E+03  5760   0.106E+05 0.184E+04
CGA:  24     0.161686723949E+04    0.67722E+03   -0.51993E+03  5760   0.197E+05-0.274E+03
CGA:  25     0.463460856241E+04    0.30177E+04   -0.78151E+03  5760   0.639E+05 0.129E+05
CGA:  26     0.149505825376E+04   -0.31396E+04   -0.37299E+04  5760   0.150E+04-0.505E+03
CGA:  27     0.104792002587E+04   -0.44714E+03   -0.43904E+03  5760   0.274E+04 0.116E+03
CGA:  28     0.656485026759E+03   -0.39143E+03   -0.38641E+03  5760   0.115E+04 0.221E+03
CGA:  29     0.533889331143E+03   -0.12260E+03   -0.63668E+03  5760   0.426E+04-0.955E+03
CGA:  30     0.206845924860E+03   -0.32704E+03   -0.30604E+03  5760   0.609E+03 0.105E+03
CGA:  31     0.899121761864E+02   -0.11693E+03   -0.12287E+03  5760   0.318E+03-0.586E+02
CGA:  32     0.138016326634E+02   -0.76111E+02   -0.79177E+02  5760   0.865E+03-0.270E+02
CGA:  33    -0.503953747081E+02   -0.64197E+02   -0.44650E+02  5760   0.378E+03 0.263E+03
CGA:  34    -0.683998348480E+02   -0.18004E+02   -0.12707E+02  5760   0.154E+03 0.176E+03
CGA:  35    -0.808540684762E+02   -0.12454E+02   -0.10363E+02  5760   0.293E+03 0.364E+02
CGA:  36    -0.981672713567E+02   -0.17313E+02   -0.17571E+02  5760   0.816E+03-0.148E+02
CGA:  37    -0.104386870453E+03   -0.62196E+01   -0.72313E+01  5760   0.657E+03 0.574E+03
CGA:  38    -0.122649833302E+03   -0.18263E+02   -0.18169E+02  5760   0.783E+02 0.287E+01
CGA:  39    -0.134019313840E+03   -0.11369E+02   -0.11347E+02  5760   0.139E+03 0.661E+00
CGA:  40    -0.154624403684E+03   -0.20605E+02   -0.20674E+02  5760   0.242E+03-0.148E+01
CGA:  41    -0.168142113057E+03   -0.13518E+02   -0.13294E+02  5760   0.115E+03-0.100E+02
CGA:  42    -0.180141962217E+03   -0.12000E+02   -0.11922E+02  5760   0.105E+03-0.120E+02
CGA:  43    -0.185635706887E+03   -0.54937E+01   -0.51750E+01  5760   0.547E+02-0.571E+01
CGA:  44    -0.192818748023E+03   -0.71830E+01   -0.78407E+01  5760   0.123E+03-0.151E+02
CGA:  45    -0.197482349521E+03   -0.46636E+01   -0.42483E+01  5760   0.963E+02 0.381E+01
CGA:  46    -0.201445272105E+03   -0.39629E+01   -0.38328E+01  5760   0.762E+02 0.311E+01
CGA:  47    -0.204821806540E+03   -0.33765E+01   -0.33842E+01  5760   0.436E+02 0.320E+01
CGA:  48    -0.205982936383E+03   -0.11611E+01   -0.11095E+01  5760   0.238E+02 0.525E+01
CGA:  49    -0.207275090277E+03   -0.12922E+01   -0.12965E+01  5760   0.543E+02 0.826E+00
CGA:  50    -0.209536741487E+03   -0.22617E+01   -0.23141E+01  5760   0.726E+02 0.306E+01
CGA:  51    -0.210977409320E+03   -0.14407E+01   -0.17591E+01  5760   0.391E+02-0.266E+01
CGA:  52    -0.211839633779E+03   -0.86222E+00   -0.90818E+00  5760   0.302E+02 0.519E+01
CGA:  53    -0.212534590022E+03   -0.69496E+00   -0.73531E+00  5760   0.242E+02 0.480E+01
CGA:  54    -0.213274549959E+03   -0.73996E+00   -0.79520E+00  5760   0.257E+02 0.147E+01
CGA:  55    -0.213820207604E+03   -0.54566E+00   -0.60209E+00  5760   0.216E+02 0.120E+01
CGA:  56    -0.214253008746E+03   -0.43280E+00   -0.51187E+00  5760   0.187E+02-0.794E+00
CGA:  57    -0.214674946906E+03   -0.42194E+00   -0.44593E+00  5760   0.243E+02 0.392E+00
CGA:  58    -0.215408509676E+03   -0.73356E+00   -0.77424E+00  5760   0.313E+02 0.738E+00
CGA:  59    -0.215992277443E+03   -0.58377E+00   -0.62194E+00  5760   0.195E+02 0.151E+01
CGA:  60    -0.216388785503E+03   -0.39651E+00   -0.43575E+00  5760   0.175E+02 0.659E+00
CGA:  61    -0.216810561904E+03   -0.42178E+00   -0.44775E+00  5760   0.195E+02 0.108E+01
CGA:  62    -0.217199688034E+03   -0.38913E+00   -0.44539E+00  5760   0.134E+02 0.106E+00
CGA:  63    -0.217421449430E+03   -0.22176E+00   -0.28886E+00  5760   0.904E+01-0.948E+00
CGA:  64    -0.217668414087E+03   -0.24696E+00   -0.28201E+00  5760   0.106E+02 0.397E+00
CGA:  65    -0.218053668521E+03   -0.38525E+00   -0.39512E+00  5760   0.973E+01 0.721E+00
CGA:  66    -0.218422024701E+03   -0.36836E+00   -0.38622E+00  5760   0.939E+01 0.688E+00
CGA:  67    -0.218734375380E+03   -0.31235E+00   -0.33135E+00  5760   0.633E+01 0.575E+00
SDA:  68    -0.218957746444E+03   -0.22337E+00   -0.23654E+00  5760   0.511E+01 0.407E+00
CGA:  69    -0.219461350586E+03   -0.50360E+00   -0.51234E+00  5760   0.697E+01-0.157E+00
CGA:  70    -0.220209353917E+03   -0.74800E+00   -0.74137E+00  5760   0.371E+01 0.131E+00
CGA:  71    -0.220971379154E+03   -0.76203E+00   -0.74589E+00  5760   0.333E+01 0.130E+00
CGA:  72    -0.221205545096E+03   -0.23417E+00   -0.23427E+00  5760   0.231E+01-0.296E-01
CGA:  73    -0.221455875300E+03   -0.25033E+00   -0.25178E+00  5760   0.114E+01-0.295E-01
CGA:  74    -0.221668212376E+03   -0.21234E+00   -0.21400E+00  5760   0.134E+01-0.191E-01
CGA:  75    -0.221776534903E+03   -0.10832E+00   -0.10813E+00  5760   0.937E+00 0.114E-01
CGA:  76    -0.221926470038E+03   -0.14994E+00   -0.14636E+00  5760   0.993E+00 0.466E-01
CGA:  77    -0.222020158006E+03   -0.93688E-01   -0.94098E-01  5760   0.101E+01-0.212E-01
CGA:  78    -0.222216061585E+03   -0.19590E+00   -0.24386E+00  5760   0.152E+01-0.335E+00
CGA:  79    -0.222287477677E+03   -0.71416E-01   -0.71118E-01  5760   0.137E+01 0.290E-01
CGA:  80    -0.222335856856E+03   -0.48379E-01   -0.29394E-01  5760   0.123E+01-0.125E-01
CGA:  81    -0.222394535926E+03   -0.58679E-01   -0.22189E-01  5760   0.103E+01 0.172E+00
CGA:  82    -0.222459663182E+03   -0.65127E-01   -0.28484E-01  5760   0.951E+00 0.484E-01
CGA:  83    -0.222504838321E+03   -0.45175E-01   -0.23088E-01  5760   0.993E+00 0.287E+00
CGA:  84    -0.222550465381E+03   -0.45627E-01   -0.39887E-01  5760   0.152E+01 0.233E-01
CGA:  85    -0.222578904983E+03   -0.28440E-01   -0.30010E-01  5760   0.229E+01-0.470E+00
CGA:  86    -0.222599871343E+03   -0.20966E-01   -0.84290E-02  5760   0.232E+01 0.567E+00
CGA:  87    -0.222662640698E+03   -0.62769E-01   -0.35871E-01  5760   0.183E+01 0.688E+00
CGA:  88    -0.222736522455E+03   -0.73882E-01   -0.49632E-01  5760   0.132E+01 0.708E+00
CGA:  89    -0.222788279647E+03   -0.51757E-01   -0.46670E-01  5760   0.105E+01 0.541E+00
CGA:  90    -0.222823712486E+03   -0.35433E-01   -0.40758E-01  5760   0.984E+00 0.238E+00
CGA:  91    -0.222857864525E+03   -0.34152E-01   -0.38206E-01  5760   0.105E+01 0.169E+00
CGA:  92    -0.222893575897E+03   -0.35711E-01   -0.38701E-01  5760   0.109E+01-0.154E-02
CGA:  93    -0.222925487645E+03   -0.31912E-01   -0.33296E-01  5760   0.110E+01 0.383E-01
CGA:  94    -0.222957492472E+03   -0.32005E-01   -0.34711E-01  5760   0.943E+00 0.745E-01
CGA:  95    -0.222986145113E+03   -0.28653E-01   -0.30863E-01  5760   0.777E+00 0.612E-01
CGA:  96    -0.223013418499E+03   -0.27273E-01   -0.28610E-01  5760   0.717E+00 0.411E-01
CGA:  97    -0.223042806597E+03   -0.29388E-01   -0.29759E-01  5760   0.680E+00 0.138E-01
CGA:  98    -0.223070639374E+03   -0.27833E-01   -0.27916E-01  5760   0.654E+00 0.856E-02
SDA:  99    -0.223097317096E+03   -0.26678E-01   -0.26792E-01  5760   0.630E+00 0.152E-01
CGA: 100    -0.223193678652E+03   -0.96362E-01   -0.10407E+00  5760   0.548E+00-0.383E-01
CGA: 101    -0.223242449785E+03   -0.48771E-01   -0.55514E-01  5760   0.497E+00-0.311E-01
CGA: 102    -0.223251354522E+03   -0.89047E-02   -0.24310E-01  5760   0.149E+01-0.465E+00
CGA: 103    -0.223346586456E+03   -0.95232E-01   -0.93074E-01  5760   0.443E+00 0.694E-01
CGA: 104    -0.223396968439E+03   -0.50382E-01   -0.50948E-01  5760   0.140E+00-0.357E-01
CGA: 105    -0.223417252645E+03   -0.20284E-01   -0.21832E-01  5760   0.887E-01-0.131E-02
CGA: 106    -0.223424289423E+03   -0.70368E-02   -0.60682E-02  5760   0.278E-01 0.342E-03
CGA: 107    -0.223434168698E+03   -0.98793E-02   -0.10372E-01  5760   0.407E-01-0.143E-02
CGA: 108    -0.223442767669E+03   -0.85990E-02   -0.98735E-02  5760   0.788E-01-0.279E-02
CGA: 109    -0.223450447693E+03   -0.76800E-02   -0.74114E-02  5760   0.597E-01 0.411E-03
CGA: 110    -0.223465773405E+03   -0.15326E-01   -0.15674E-01  5760   0.281E-01-0.245E-02
CGA: 111    -0.223470235021E+03   -0.44616E-02   -0.45329E-02  5760   0.415E-01 0.245E-02
CGA: 112    -0.223475527315E+03   -0.52923E-02   -0.50798E-02  5760   0.185E-01-0.125E-02
CGA: 113    -0.223479073059E+03   -0.35457E-02   -0.37963E-02  5760   0.187E-01-0.101E-02
CGA: 114    -0.223481060088E+03   -0.19870E-02   -0.18825E-02  5760   0.111E-01 0.354E-03
CGA: 115    -0.223483247222E+03   -0.21871E-02   -0.23990E-02  5760   0.108E-01-0.998E-03
CGA: 116    -0.223484685255E+03   -0.14380E-02   -0.14601E-02  5760   0.119E-01-0.489E-04
CGA: 117    -0.223486636704E+03   -0.19514E-02   -0.20291E-02  5760   0.849E-02-0.798E-03
CGA: 118    -0.223488015128E+03   -0.13784E-02   -0.14349E-02  5760   0.885E-02-0.400E-05
CGA: 119    -0.223489142884E+03   -0.11278E-02   -0.10792E-02  5760   0.575E-02-0.214E-03
CGA: 120    -0.223490199376E+03   -0.10565E-02   -0.10953E-02  5760   0.520E-02-0.182E-03
CGA: 121    -0.223490900885E+03   -0.70151E-03   -0.69636E-03  5760   0.442E-02 0.168E-03
CGA: 122    -0.223491750404E+03   -0.84952E-03   -0.90711E-03  5760   0.612E-02-0.250E-03
CGA: 123    -0.223492845395E+03   -0.10950E-02   -0.11708E-02  5760   0.919E-02-0.356E-03
CGA: 124    -0.223494561142E+03   -0.17157E-02   -0.18211E-02  5760   0.104E-01-0.241E-03
CGA: 125    -0.223496070602E+03   -0.15095E-02   -0.15036E-02  5760   0.989E-02 0.146E-03
CGA: 126    -0.223497988935E+03   -0.19183E-02   -0.19991E-02  5760   0.122E-01-0.434E-03
CGA: 127    -0.223499812216E+03   -0.18233E-02   -0.18261E-02  5760   0.940E-02-0.596E-03
CGA: 128    -0.223501021029E+03   -0.12088E-02   -0.11607E-02  5760   0.550E-02-0.516E-04
CGA: 129    -0.223501871435E+03   -0.85041E-03   -0.85222E-03  5760   0.536E-02-0.545E-04
CGA: 130    -0.223502718122E+03   -0.84669E-03   -0.85270E-03  5760   0.418E-02-0.771E-04
CGA: 131    -0.223503336621E+03   -0.61850E-03   -0.61446E-03  5760   0.365E-02-0.760E-04
CGA: 132    -0.223503855631E+03   -0.51901E-03   -0.51450E-03  5760   0.280E-02-0.120E-04
SDA: 133    -0.223504426536E+03   -0.57090E-03   -0.59855E-03  5760   0.344E-02-0.539E-04
CGA: 134    -0.223504688722E+03   -0.26219E-03   -0.21636E-03  5760   0.142E-02 0.421E-03
CGA: 135    -0.223505040201E+03   -0.35148E-03   -0.35739E-03  5760   0.114E-02-0.643E-04
CGA: 136    -0.223505285364E+03   -0.24516E-03   -0.24408E-03  5760   0.158E-02 0.103E-03
CGA: 137    -0.223505460613E+03   -0.17525E-03   -0.16684E-03  5760   0.110E-02 0.951E-04
CGA: 138    -0.223505745668E+03   -0.28505E-03   -0.29690E-03  5760   0.789E-03-0.751E-04
CGA: 139    -0.223506011181E+03   -0.26551E-03   -0.27385E-03  5760   0.114E-02-0.186E-04
CGA: 140    -0.223506173929E+03   -0.16275E-03   -0.16027E-03  5760   0.127E-02 0.103E-03
CGA: 141    -0.223506354467E+03   -0.18054E-03   -0.17601E-03  5760   0.610E-03-0.454E-05
CGA: 142    -0.223506501318E+03   -0.14685E-03   -0.15603E-03  5760   0.751E-03-0.257E-04
CGA: 143    -0.223506584824E+03   -0.83506E-04   -0.76944E-04  5760   0.523E-03 0.235E-04
CGA: 144    -0.223506683465E+03   -0.98641E-04   -0.99210E-04  5760   0.280E-03-0.129E-04
CGA: 145    -0.223506751572E+03   -0.68107E-04   -0.69875E-04  5760   0.313E-03-0.195E-05
CGA: 146    -0.223506792341E+03   -0.40769E-04   -0.38916E-04  5760   0.379E-03 0.153E-04
CGA: 147    -0.223506894357E+03   -0.10202E-03   -0.10373E-03  5760   0.282E-03-0.572E-05
CGA: 148    -0.223506965271E+03   -0.70914E-04   -0.71206E-04  5760   0.305E-03-0.364E-05
CGA: 149    -0.223507023308E+03   -0.58037E-04   -0.58938E-04  5760   0.558E-03 0.177E-04
CGA: 150    -0.223507097744E+03   -0.74436E-04   -0.72174E-04  5760   0.210E-03 0.138E-05
CGA: 151    -0.223507153582E+03   -0.55838E-04   -0.55719E-04  5760   0.192E-03 0.616E-05
CGA: 152    -0.223507202752E+03   -0.49170E-04   -0.50076E-04  5760   0.294E-03 0.265E-05
CGA: 153    -0.223507235369E+03   -0.32617E-04   -0.28269E-04  5760   0.165E-03 0.115E-04
CGA: 154    -0.223507281479E+03   -0.46110E-04   -0.46569E-04  5760   0.140E-03-0.210E-05
CGA: 155    -0.223507321951E+03   -0.40472E-04   -0.40349E-04  5760   0.125E-03 0.296E-05
CGA: 156    -0.223507357264E+03   -0.35313E-04   -0.36084E-04  5760   0.209E-03 0.849E-06
CGA: 157    -0.223507378842E+03   -0.21578E-04   -0.18580E-04  5760   0.108E-03 0.124E-04
CGA: 158    -0.223507408200E+03   -0.29357E-04   -0.29503E-04  5760   0.891E-04-0.104E-05
CGA: 159    -0.223507434408E+03   -0.26208E-04   -0.26057E-04  5760   0.108E-03 0.281E-05
CGA: 160    -0.223507449289E+03   -0.14882E-04   -0.14155E-04  5760   0.128E-03 0.827E-05
CGA: 161    -0.223507475991E+03   -0.26702E-04   -0.26661E-04  5760   0.103E-03-0.674E-05
CGA: 162    -0.223507505448E+03   -0.29456E-04   -0.29847E-04  5760   0.145E-03 0.392E-06
CGA: 163    -0.223507522721E+03   -0.17273E-04   -0.16158E-04  5760   0.104E-03 0.110E-04
SDA: 164    -0.223507544050E+03   -0.21329E-04   -0.21267E-04  5760   0.850E-04-0.929E-06
CGA: 165    -0.223507553151E+03   -0.91006E-05   -0.82767E-05  5760   0.588E-04 0.803E-05
CGA: 166    -0.223507562117E+03   -0.89661E-05   -0.84964E-05  5760   0.375E-04-0.169E-05
CGA: 167    -0.223507572886E+03   -0.10769E-04   -0.10815E-04  5760   0.286E-04 0.267E-06
CGA: 168    -0.223507577526E+03   -0.46400E-05   -0.45573E-05  5760   0.335E-04 0.278E-05
CGA: 169    -0.223507582166E+03   -0.46402E-05   -0.44121E-05  5760   0.178E-04 0.882E-06
CGA: 170    -0.223507587000E+03   -0.48343E-05   -0.50108E-05  5760   0.215E-04-0.110E-05
CGA: 171    -0.223507589602E+03   -0.26019E-05   -0.24313E-05  5760   0.182E-04 0.145E-05
CGA: 172    -0.223507593386E+03   -0.37839E-05   -0.37935E-05  5760   0.156E-04 0.310E-06
CGA: 173    -0.223507596645E+03   -0.32587E-05   -0.32606E-05  5760   0.176E-04 0.947E-06
CGA: 174    -0.223507599081E+03   -0.24362E-05   -0.22645E-05  5760   0.119E-04 0.660E-06
CGA: 175    -0.223507601583E+03   -0.25024E-05   -0.25509E-05  5760   0.134E-04-0.921E-06
CGA: 176    -0.223507603365E+03   -0.17813E-05   -0.17007E-05  5760   0.107E-04 0.130E-06
CGA: 177    -0.223507605243E+03   -0.18786E-05   -0.18762E-05  5760   0.778E-05 0.720E-06
CGA: 178    -0.223507606758E+03   -0.15143E-05   -0.15139E-05  5760   0.923E-05 0.578E-06
CGA: 179    -0.223507608298E+03   -0.15408E-05   -0.14994E-05  5760   0.887E-05 0.562E-07
CGA: 180    -0.223507610198E+03   -0.18996E-05   -0.19681E-05  5760   0.107E-04-0.103E-05
CGA: 181    -0.223507611620E+03   -0.14222E-05   -0.13667E-05  5760   0.969E-05 0.495E-07
CGA: 182    -0.223507613363E+03   -0.17427E-05   -0.17419E-05  5760   0.733E-05 0.315E-06
CGA: 183    -0.223507614779E+03   -0.14164E-05   -0.14194E-05  5760   0.796E-05 0.411E-06
CGA: 184    -0.223507615925E+03   -0.11460E-05   -0.10868E-05  5760   0.634E-05-0.118E-06
CGA: 185    -0.223507617205E+03   -0.12792E-05   -0.13037E-05  5760   0.591E-05-0.455E-06
CGA: 186    -0.223507618151E+03   -0.94625E-06   -0.93977E-06  5760   0.618E-05 0.107E-06
   1 F= -.23307573E+03 E0= -.23307171E+03  d E =-.803899E-02  mag=     6.0000
