 vasp.5.4.4.18Apr17-6-g9f103f2a35 (build Nov 22 2021 14:44:17) complex          
  
 executed on             LinuxIFC date 2022.08.08  11:41:32
 running on   64 total cores
 distrk:  each k-point on   64 cores,    1 groups
 distr:  one band on NCORES_PER_BAND=   4 cores,   16 groups


--------------------------------------------------------------------------------------------------------


 INCAR:
 POTCAR:    PAW_PBE Li 17Jan2003                  
 POTCAR:    PAW_PBE Co 02Aug2007                  
 POTCAR:    PAW_PBE O 08Apr2002                   
 POTCAR:    PAW_PBE Li 17Jan2003                  
   VRHFIN =Li: s1p0                                                             
   LEXCH  = PE                                                                  
   EATOM  =     5.3001 eV,    0.3895 Ry                                         
                                                                                
   TITEL  = PAW_PBE Li 17Jan2003                                                
   LULTRA =        F    use ultrasoft PP ?                                      
   IUNSCR =        1    unscreen: 0-lin 1-nonlin 2-no                           
   RPACOR =    1.500    partial core radius                                     
   POMASS =    7.010; ZVAL   =    1.000    mass and valenz                      
   RCORE  =    2.050    outmost cutoff radius                                   
   RWIGS  =    2.600; RWIGS  =    1.376    wigner-seitz radius (au A)           
   ENMAX  =  140.000; ENMIN  =  100.000 eV                                      
   ICORE  =        2    local potential                                         
   LCOR   =        T    correct aug charges                                     
   LPAW   =        T    paw PP                                                  
   EAUG   =  331.638                                                            
   DEXC   =    0.000                                                            
   RMAX   =    2.098    core radius for proj-oper                               
   RAUG   =    1.300    factor for augmentation sphere                          
   RDEP   =    2.094    radius for radial grids                                 
   RDEPT  =    1.810    core radius for aug-charge                              
                                                                                
   Atomic configuration                                                         
    4 entries                                                                   
     n  l   j            E        occ.                                          
     1  0  0.50       -51.8549   2.0000                                         
     2  0  0.50        -2.8742   1.0000                                         
     2  1  0.50        -1.3606   0.0000                                         
     3  2  1.50        -1.3606   0.0000                                         
   Description                                                                  
     l       E           TYP  RCUT    TYP  RCUT                                 
     0     -2.8742052     23  2.050                                             
     0     27.2116520     23  2.050                                             
     1     -1.3605826     23  2.050                                             
     2     -1.3605826     23  2.050                                             
  local pseudopotential read in
  partial core-charges read in
  partial kinetic energy density read in
  atomic valenz-charges read in
  non local Contribution for L=           0  read in
    real space projection operators read in
  non local Contribution for L=           0  read in
    real space projection operators read in
  non local Contribution for L=           1  read in
    real space projection operators read in
    PAW grid and wavefunctions read in
 
   number of l-projection  operators is LMAX  =           3
   number of lm-projection operators is LMMAX =           5
 
 POTCAR:    PAW_PBE Co 02Aug2007                  
   VRHFIN =Co: d8 s1                                                            
   LEXCH  = PE                                                                  
   EATOM  =   813.3670 eV,   59.7808 Ry                                         
                                                                                
   TITEL  = PAW_PBE Co 02Aug2007                                                
   LULTRA =        F    use ultrasoft PP ?                                      
   IUNSCR =        1    unscreen: 0-lin 1-nonlin 2-no                           
   RPACOR =    2.000    partial core radius                                     
   POMASS =   58.933; ZVAL   =    9.000    mass and valenz                      
   RCORE  =    2.300    outmost cutoff radius                                   
   RWIGS  =    2.460; RWIGS  =    1.302    wigner-seitz radius (au A)           
   ENMAX  =  267.968; ENMIN  =  200.976 eV                                      
   RCLOC  =    1.203    cutoff for local pot                                    
   LCOR   =        T    correct aug charges                                     
   LPAW   =        T    paw PP                                                  
   EAUG   =  477.818                                                            
   DEXC   =    0.000                                                            
   RMAX   =    2.360    core radius for proj-oper                               
   RAUG   =    1.300    factor for augmentation sphere                          
   RDEP   =    2.393    radius for radial grids                                 
   RDEPT  =    1.864    core radius for aug-charge                              
                                                                                
   Atomic configuration                                                         
    9 entries                                                                   
     n  l   j            E        occ.                                          
     1  0  0.50     -7587.6674   2.0000                                         
     2  0  0.50      -893.6084   2.0000                                         
     2  1  1.50      -764.5805   6.0000                                         
     3  0  0.50       -97.5973   2.0000                                         
     3  1  1.50       -60.9648   6.0000                                         
     3  2  2.50        -4.2382   8.0000                                         
     4  0  0.50        -4.3746   1.0000                                         
     4  1  1.50        -4.0817   0.0000                                         
     4  3  2.50        -1.3606   0.0000                                         
   Description                                                                  
     l       E           TYP  RCUT    TYP  RCUT                                 
     2     -4.2382362     23  2.300                                             
     2     -5.5988188     23  2.300                                             
     0     -4.3745797     23  2.300                                             
     0      5.7660125     23  2.300                                             
     1     -2.7211652     23  2.300                                             
     1     16.9860234     23  2.300                                             
  local pseudopotential read in
  partial core-charges read in
  partial kinetic energy density read in
  atomic valenz-charges read in
  non local Contribution for L=           2  read in
    real space projection operators read in
  non local Contribution for L=           2  read in
    real space projection operators read in
  non local Contribution for L=           0  read in
    real space projection operators read in
  non local Contribution for L=           0  read in
    real space projection operators read in
  non local Contribution for L=           1  read in
    real space projection operators read in
  non local Contribution for L=           1  read in
    real space projection operators read in
    PAW grid and wavefunctions read in
 
   number of l-projection  operators is LMAX  =           6
   number of lm-projection operators is LMMAX =          18
 
 POTCAR:    PAW_PBE O 08Apr2002                   
   VRHFIN =O: s2p4                                                              
   LEXCH  = PE                                                                  
   EATOM  =   432.3788 eV,   31.7789 Ry                                         
                                                                                
   TITEL  = PAW_PBE O 08Apr2002                                                 
   LULTRA =        F    use ultrasoft PP ?                                      
   IUNSCR =        1    unscreen: 0-lin 1-nonlin 2-no                           
   RPACOR =    1.200    partial core radius                                     
   POMASS =   16.000; ZVAL   =    6.000    mass and valenz                      
   RCORE  =    1.520    outmost cutoff radius                                   
   RWIGS  =    1.550; RWIGS  =    0.820    wigner-seitz radius (au A)           
   ENMAX  =  400.000; ENMIN  =  300.000 eV                                      
   ICORE  =        2    local potential                                         
   LCOR   =        T    correct aug charges                                     
   LPAW   =        T    paw PP                                                  
   EAUG   =  605.392                                                            
   DEXC   =    0.000                                                            
   RMAX   =    1.553    core radius for proj-oper                               
   RAUG   =    1.300    factor for augmentation sphere                          
   RDEP   =    1.550    radius for radial grids                                 
   RDEPT  =    1.329    core radius for aug-charge                              
                                                                                
   Atomic configuration                                                         
    4 entries                                                                   
     n  l   j            E        occ.                                          
     1  0  0.50      -514.6923   2.0000                                         
     2  0  0.50       -23.9615   2.0000                                         
     2  1  0.50        -9.0305   4.0000                                         
     3  2  1.50        -9.5241   0.0000                                         
   Description                                                                  
     l       E           TYP  RCUT    TYP  RCUT                                 
     0    -23.9615318     23  1.200                                             
     0     -9.5240782     23  1.200                                             
     1     -9.0304911     23  1.520                                             
     1      8.1634956     23  1.520                                             
     2     -9.5240782      7  1.500                                             
  local pseudopotential read in
  partial core-charges read in
  partial kinetic energy density read in
  kinetic energy density of atom read in
  atomic valenz-charges read in
  non local Contribution for L=           0  read in
    real space projection operators read in
  non local Contribution for L=           0  read in
    real space projection operators read in
  non local Contribution for L=           1  read in
    real space projection operators read in
  non local Contribution for L=           1  read in
    real space projection operators read in
    PAW grid and wavefunctions read in
 
   number of l-projection  operators is LMAX  =           4
   number of lm-projection operators is LMMAX =           8
 
 Optimization of the real space projectors (new method)

 maximal supplied QI-value         = 18.33
 optimisation between [QCUT,QGAM] = [ 12.46, 24.93] = [ 43.51,174.03] Ry 
 Optimized for a Real-space Cutoff    1.13 Angstroem

   l    n(q)    QCUT    max X(q) W(low)/X(q) W(high)/X(q)  e(spline) 
   0      8    12.465    33.825    0.12E-03    0.29E-03    0.99E-07
   0      8    12.465     8.944    0.86E-04    0.22E-03    0.72E-07
   1      8    12.465     4.214    0.27E-03    0.11E-03    0.82E-07
 Optimization of the real space projectors (new method)

 maximal supplied QI-value         = 16.25
 optimisation between [QCUT,QGAM] = [ 12.51, 25.03] = [ 43.85,175.40] Ry 
 Optimized for a Real-space Cutoff    1.31 Angstroem

   l    n(q)    QCUT    max X(q) W(low)/X(q) W(high)/X(q)  e(spline) 
   2      9    12.514    65.824    0.30E-03    0.46E-03    0.43E-06
   2      9    12.514    61.429    0.31E-03    0.46E-03    0.44E-06
   0     10    12.514    56.174    0.90E-04    0.33E-03    0.30E-06
   0     10    12.514    31.263    0.81E-04    0.30E-03    0.28E-06
   1      9    12.514    19.828    0.38E-03    0.65E-04    0.24E-06
   1      9    12.514    15.139    0.32E-03    0.60E-04    0.20E-06
 Optimization of the real space projectors (new method)

 maximal supplied QI-value         = 24.76
 optimisation between [QCUT,QGAM] = [ 12.38, 25.00] = [ 42.90,175.06] Ry 
 Optimized for a Real-space Cutoff    1.13 Angstroem

   l    n(q)    QCUT    max X(q) W(low)/X(q) W(high)/X(q)  e(spline) 
   0      8    12.378    20.381    0.16E-03    0.54E-05    0.27E-06
   0      8    12.378    15.268    0.17E-03    0.61E-05    0.29E-06
   1      8    12.378     5.964    0.38E-03    0.23E-03    0.28E-06
   1      8    12.378     5.382    0.33E-03    0.20E-03    0.25E-06
  PAW_PBE Li 17Jan2003                  :
 energy of atom  1       EATOM=   -5.3001
 kinetic energy error for atom=    0.0000 (will be added to EATOM!!)
  PAW_PBE Co 02Aug2007                  :
 energy of atom  2       EATOM= -813.3670
 kinetic energy error for atom=    0.0018 (will be added to EATOM!!)
  PAW_PBE O 08Apr2002                   :
 energy of atom  3       EATOM= -432.3788
 kinetic energy error for atom=    0.0168 (will be added to EATOM!!)
 
 
 POSCAR: Li6 Co12 O24                            
  positions in cartesian coordinates
  No initial velocities read in
 exchange correlation table for  LEXCH =        8
   RHO(1)=    0.500       N(1)  =     2000
   RHO(2)=  100.500       N(2)  =     4000
 


--------------------------------------------------------------------------------------------------------


 ion  position               nearest neighbor table
   1  0.063  0.970  0.012-  26 1.81  36 1.95  23 1.98  35 2.16  25 2.34  38 2.53   8 2.58   3 2.69
                            15 2.76  10 2.77   2 2.84   2 2.85   7 2.90   3 2.92  18 2.98
   2  0.593  0.026  0.997-  38 1.95  37 1.97  25 2.04  23 2.18  24 2.21  36 2.36  17 2.52   3 2.76
                             9 2.79   3 2.84   1 2.84   1 2.85  10 2.85  15 2.98  16 3.00   8 3.01
   3  0.559  0.516  0.998-  38 1.87  26 1.97  23 2.03  37 2.05  24 2.18  35 2.27  18 2.69   1 2.69
                             2 2.76   9 2.76   2 2.84   7 2.88  15 2.89  10 2.90  16 2.92   1 2.92
   4  0.879  0.787  0.320-  19 1.89  32 2.05  22 2.11  34 2.13  20 2.30  10 2.60  11 2.75   8 2.75
                             9 3.04
   5  0.575  0.241  0.684-  42 1.81  41 1.96  29 2.18  27 2.31   6 2.33  40 2.43  15 2.53  13 2.87
                            18 2.90  17 2.92
   6  0.446  0.571  0.667-  42 1.71  28 2.01  30 2.23  41 2.27   5 2.33  27 2.33  14 2.51  16 2.57

   7  0.217  0.379  0.164-  24 1.81  19 1.85  20 1.87  22 1.90  25 1.92  23 1.99   8 2.75  10 2.75
                             9 2.78  10 2.83   8 2.84   9 2.87   3 2.88   1 2.90
   8  0.213  0.869  0.165-  19 1.80  20 1.87  24 1.90  21 1.91  23 1.97  26 2.08   1 2.58   7 2.75
                             4 2.75   9 2.77   9 2.82  10 2.82  10 2.83   7 2.84   2 3.01
   9  0.705  0.368  0.157-  25 1.80  23 1.83  26 1.84  22 1.89  20 1.97  21 1.99  10 2.76   3 2.76
                             8 2.77   7 2.78   2 2.79   8 2.82  10 2.83   7 2.87   4 3.04
  10  0.714  0.868  0.165-  24 1.85  21 1.89  26 1.90  22 1.90  25 1.93  19 1.95   4 2.60   7 2.75
                             9 2.76   1 2.77   8 2.82   9 2.83   7 2.83   8 2.83   2 2.85   3 2.90
  11  0.954  0.009  0.499-  29 1.82  32 1.83  31 1.86  27 1.90  30 1.94  34 2.00  12 2.72   4 2.75
                            14 2.78  14 2.80  13 2.82  13 2.83  12 2.86
  12  0.961  0.500  0.501-  31 1.79  29 1.82  30 1.83  28 1.84  33 1.95  32 2.05  11 2.72  13 2.76
                            14 2.79  13 2.82  14 2.86  11 2.86
  13  0.457  0.015  0.497-  33 1.86  27 1.88  32 1.89  29 1.89  28 1.96  34 1.98  14 2.73  12 2.76
                            11 2.82  12 2.82  11 2.83  14 2.85   5 2.87
  14  0.456  0.502  0.493-  34 1.80  33 1.88  27 1.89  31 1.94  28 1.99  30 2.00   6 2.51  13 2.73
                            11 2.78  12 2.79  11 2.80  13 2.85  12 2.86
  15  0.329  0.129  0.841-  39 1.78  42 1.89  37 1.93  36 1.93  35 1.95  41 2.02   5 2.53  18 2.71
                            16 2.74   1 2.76  17 2.78  16 2.85  17 2.86  18 2.87   3 2.89   2 2.98
  16  0.320  0.614  0.839-  36 1.85  40 1.88  41 1.90  42 1.90  38 1.92  35 1.93   6 2.57  15 2.74
                            17 2.75  18 2.77  17 2.83  15 2.85  18 2.88   3 2.92   2 3.00
  17  0.822  0.127  0.837-  37 1.79  39 1.82  40 1.93  38 1.98  41 2.00  35 2.05   2 2.52  16 2.75
                            18 2.77  15 2.78  18 2.81  16 2.83  15 2.86   5 2.92
  18  0.844  0.642  0.835-  40 1.85  39 1.87  38 1.89  37 1.93  42 2.01  36 2.02   3 2.69  15 2.71
                            17 2.77  16 2.77  17 2.81  15 2.87  16 2.88   5 2.90   1 2.98
  19  0.065  0.051  0.228-   8 1.80   7 1.85   4 1.89  10 1.95
  20  0.038  0.541  0.232-   7 1.87   8 1.87   9 1.97   4 2.30
  21  0.540  0.036  0.235-  10 1.89   8 1.91   9 1.99
  22  0.545  0.536  0.234-   9 1.89  10 1.90   7 1.90   4 2.11
  23  0.393  0.200  0.088-   9 1.83   8 1.97   1 1.98   7 1.99   3 2.03   2 2.18
  24  0.392  0.697  0.100-   7 1.81  10 1.85   8 1.90   3 2.18   2 2.21
  25  0.880  0.208  0.098-   9 1.80   7 1.92  10 1.93   2 2.04   1 2.34
  26  0.858  0.684  0.088-   1 1.81   9 1.84  10 1.90   3 1.97   8 2.08
  27  0.284  0.182  0.566-  13 1.88  14 1.89  11 1.90   5 2.31   6 2.33
  28  0.276  0.678  0.569-  12 1.84  13 1.96  14 1.99   6 2.01
  29  0.787  0.177  0.563-  12 1.82  11 1.82  13 1.89   5 2.18
  30  0.798  0.669  0.567-  12 1.83  11 1.94  14 2.00   6 2.23
  31  0.108  0.331  0.431-  12 1.79  11 1.86  14 1.94
  32  0.131  0.861  0.429-  11 1.83  13 1.89   4 2.05  12 2.05
  33  0.630  0.332  0.427-  13 1.86  14 1.88  12 1.95
  34  0.611  0.810  0.425-  14 1.80  13 1.98  11 2.00   4 2.13
  35  0.160  0.301  0.920-  16 1.93  15 1.95  17 2.05   1 2.16   3 2.27
  36  0.183  0.799  0.913-  16 1.85  15 1.93   1 1.95  18 2.02   2 2.36
  37  0.676  0.305  0.904-  17 1.79  18 1.93  15 1.93   2 1.97   3 2.05
  38  0.652  0.783  0.909-   3 1.87  18 1.89  16 1.92   2 1.95  17 1.98   1 2.53
  39  0.020  0.987  0.779-  15 1.78  17 1.82  18 1.87
  40  0.002  0.464  0.768-  18 1.85  16 1.88  17 1.93   5 2.43
  41  0.481  0.926  0.762-  16 1.90   5 1.96  17 2.00  15 2.02   6 2.27
  42  0.489  0.444  0.766-   6 1.71   5 1.81  15 1.89  16 1.90  18 2.01
 

IMPORTANT INFORMATION: All symmetrisations will be switched off!
NOSYMM: (Re-)initialisation of all symmetry stuff for point group C_1.

 
 

Automatic generation of k-mesh.
 generate k-points for:    6    6    2
Space group operators:
 irot       det(A)        alpha          n_x          n_y          n_z        tau_x        tau_y        tau_z
    1     1.000000     0.000000     1.000000     0.000000     0.000000     0.000000     0.000000     0.000000
 
 Subroutine IBZKPT returns following result:
 ===========================================
 
 Found     36 irreducible k-points:
 
 Following reciprocal coordinates:
            Coordinates               Weight
  0.083333  0.083333  0.250000      2.000000
  0.250000  0.083333  0.250000      2.000000
  0.416667  0.083333  0.250000      2.000000
 -0.416667  0.083333  0.250000      2.000000
 -0.250000  0.083333  0.250000      2.000000
 -0.083333  0.083333  0.250000      2.000000
  0.083333  0.250000  0.250000      2.000000
  0.250000  0.250000  0.250000      2.000000
  0.416667  0.250000  0.250000      2.000000
 -0.416667  0.250000  0.250000      2.000000
 -0.250000  0.250000  0.250000      2.000000
 -0.083333  0.250000  0.250000      2.000000
  0.083333  0.416667  0.250000      2.000000
  0.250000  0.416667  0.250000      2.000000
  0.416667  0.416667  0.250000      2.000000
 -0.416667  0.416667  0.250000      2.000000
 -0.250000  0.416667  0.250000      2.000000
 -0.083333  0.416667  0.250000      2.000000
  0.083333 -0.416667  0.250000      2.000000
  0.250000 -0.416667  0.250000      2.000000
  0.416667 -0.416667  0.250000      2.000000
 -0.416667 -0.416667  0.250000      2.000000
 -0.250000 -0.416667  0.250000      2.000000
 -0.083333 -0.416667  0.250000      2.000000
  0.083333 -0.250000  0.250000      2.000000
  0.250000 -0.250000  0.250000      2.000000
  0.416667 -0.250000  0.250000      2.000000
 -0.416667 -0.250000  0.250000      2.000000
 -0.250000 -0.250000  0.250000      2.000000
 -0.083333 -0.250000  0.250000      2.000000
  0.083333 -0.083333  0.250000      2.000000
  0.250000 -0.083333  0.250000      2.000000
  0.416667 -0.083333  0.250000      2.000000
 -0.416667 -0.083333  0.250000      2.000000
 -0.250000 -0.083333  0.250000      2.000000
 -0.083333 -0.083333  0.250000      2.000000
 
 Following cartesian coordinates:
            Coordinates               Weight
  0.014757  0.025981  0.017600      2.000000
  0.044270  0.043317  0.016779      2.000000
  0.073784  0.060652  0.015958      2.000000
 -0.073784 -0.026024  0.020064      2.000000
 -0.044270 -0.008689  0.019243      2.000000
 -0.014757  0.008646  0.018422      2.000000
  0.014757  0.060609  0.018794      2.000000
  0.044270  0.077944  0.017972      2.000000
  0.073784  0.095279  0.017151      2.000000
 -0.073784  0.008603  0.021258      2.000000
 -0.044270  0.025938  0.020436      2.000000
 -0.014757  0.043274  0.019615      2.000000
  0.014757  0.095236  0.019987      2.000000
  0.044270  0.112571  0.019166      2.000000
  0.073784  0.129907  0.018344      2.000000
 -0.073784  0.043231  0.022451      2.000000
 -0.044270  0.060566  0.021630      2.000000
 -0.014757  0.077901  0.020808      2.000000
  0.014757 -0.077901  0.014020      2.000000
  0.044270 -0.060566  0.013199      2.000000
  0.073784 -0.043231  0.012378      2.000000
 -0.073784 -0.129907  0.016484      2.000000
 -0.044270 -0.112571  0.015663      2.000000
 -0.014757 -0.095236  0.014842      2.000000
  0.014757 -0.043274  0.015214      2.000000
  0.044270 -0.025938  0.014392      2.000000
  0.073784 -0.008603  0.013571      2.000000
 -0.073784 -0.095279  0.017678      2.000000
 -0.044270 -0.077944  0.016856      2.000000
 -0.014757 -0.060609  0.016035      2.000000
  0.014757 -0.008646  0.016407      2.000000
  0.044270  0.008689  0.015586      2.000000
  0.073784  0.026024  0.014764      2.000000
 -0.073784 -0.060652  0.018871      2.000000
 -0.044270 -0.043317  0.018050      2.000000
 -0.014757 -0.025981  0.017228      2.000000
 


--------------------------------------------------------------------------------------------------------




 Dimension of arrays:
   k-points           NKPTS =     36   k-points in BZ     NKDIM =     36   number of bands    NBANDS=    160
   number of dos      NEDOS =    301   number of ions     NIONS =     42
   non local maximal  LDIM  =      6   non local SUM 2l+1 LMDIM =     18
   total plane-waves  NPLWV = 116640
   max r-space proj   IRMAX =   2843   max aug-charges    IRDMAX=  11987
   dimension x,y,z NGX =    36 NGY =   36 NGZ =   90
   dimension x,y,z NGXF=    72 NGYF=   72 NGZF=  180
   support grid    NGXF=    72 NGYF=   72 NGZF=  180
   ions per type =               6  12  24
   NGX,Y,Z   is equivalent  to a cutoff of  10.60, 10.72, 10.40 a.u.
   NGXF,Y,Z  is equivalent  to a cutoff of  21.20, 21.44, 20.81 a.u.

 SYSTEM =  LiCoO2                                  
 POSCAR =  Li6 Co12 O24                            

 Startparameter for this run:
   NWRITE =      2    write-flag & timer
   PREC   = normal    normal or accurate (medium, high low for compatibility)
   ISTART =      0    job   : 0-new  1-cont  2-samecut
   ICHARG =      2    charge: 1-file 2-atom 10-const
   ISPIN  =      2    spin polarized calculation?
   LNONCOLLINEAR =      F non collinear calculations
   LSORBIT =      F    spin-orbit coupling
   INIWAV =      1    electr: 0-lowe 1-rand  2-diag
   LASPH  =      F    aspherical Exc in radial PAW
   METAGGA=      F    non-selfconsistent MetaGGA calc.

 Electronic Relaxation 1
   ENCUT  =  600.0 eV  44.10 Ry    6.64 a.u.  11.28 11.15 28.72*2*pi/ulx,y,z
   ENINI  =  600.0     initial cutoff
   ENAUG  =  605.4 eV  augmentation charge cutoff
   NELM   =    600;   NELMIN=  2; NELMDL= -5     # of ELM steps 
   EDIFF  = 0.1E-05   stopping-criterion for ELM
   LREAL  =      T    real-space projection
   NLSPLINE    = F    spline interpolate recip. space projectors
   LCOMPAT=      F    compatible to vasp.4.4
   GGA_COMPAT  = T    GGA compatible to vasp.4.4-vasp.4.6
   LMAXPAW     = -100 max onsite density
   LMAXMIX     =    2 max onsite mixed and CHGCAR
   VOSKOWN=      0    Vosko Wilk Nusair interpolation
   ROPT   =   -0.00050  -0.00050  -0.00050
 Ionic relaxation
   EDIFFG = 0.1E-04   stopping-criterion for IOM
   NSW    =      0    number of steps for IOM
   NBLOCK =      1;   KBLOCK =      1    inner block; outer block 
   IBRION =     -1    ionic relax: 0-MD 1-quasi-New 2-CG
   NFREE  =      0    steps in history (QN), initial steepest desc. (CG)
   ISIF   =      2    stress and relaxation
   IWAVPR =     10    prediction:  0-non 1-charg 2-wave 3-comb
   ISYM   =      0    0-nonsym 1-usesym 2-fastsym
   LCORR  =      T    Harris-Foulkes like correction to forces

   POTIM  = 0.5000    time-step for ionic-motion
   TEIN   =    0.0    initial temperature
   TEBEG  =    0.0;   TEEND  =   0.0 temperature during run
   SMASS  =  -3.00    Nose mass-parameter (am)
   estimated Nose-frequenzy (Omega)   =  0.10E-29 period in steps =****** mass=  -0.729E-27a.u.
   SCALEE = 1.0000    scale energy and forces
   NPACO  =    256;   APACO  = 16.0  distance and # of slots for P.C.
   PSTRESS=    0.0 pullay stress

  Mass of Ions in am
   POMASS =   7.01 58.93 16.00
  Ionic Valenz
   ZVAL   =   1.00  9.00  6.00
  Atomic Wigner-Seitz radii
   RWIGS  =  -1.00 -1.00 -1.00
  virtual crystal weights 
   VCA    =   1.00  1.00  1.00
   NELECT =     258.0000    total number of electrons
   NUPDOWN=       6.0000    fix difference up-down

 DOS related values:
   EMIN   =  10.00;   EMAX   =-10.00  energy-range for DOS
   EFERMI =   0.00
   ISMEAR =     0;   SIGMA  =   0.05  broadening in eV -4-tet -1-fermi 0-gaus

 Electronic relaxation 2 (details)
   IALGO  =     58    algorithm
   LDIAG  =      T    sub-space diagonalisation (order eigenvalues)
   LSUBROT=      F    optimize rotation matrix (better conditioning)
   TURBO    =      0    0=normal 1=particle mesh
   IRESTART =      0    0=no restart 2=restart with 2 vectors
   NREBOOT  =      0    no. of reboots
   NMIN     =      0    reboot dimension
   EREF     =   0.00    reference energy to select bands
   IMIX   =      4    mixing-type and parameters
     AMIX     =   0.40;   BMIX     =  1.00
     AMIX_MAG =   1.60;   BMIX_MAG =  1.00
     AMIN     =   0.10
     WC   =   100.;   INIMIX=   1;  MIXPRE=   1;  MAXMIX= -45

 Intra band minimization:
   WEIMIN = 0.0000     energy-eigenvalue tresh-hold
   EBREAK =  0.16E-08  absolut break condition
   DEPER  =   0.30     relativ break condition  

   TIME   =   0.40     timestep for ELM

  volume/ion in A,a.u.               =       9.29        62.70
  Fermi-wavevector in a.u.,A,eV,Ry     =   1.426213  2.695152 27.675398  2.034084
  Thomas-Fermi vector in A             =   2.546514
 
 Write flags
   LWAVE        =      F    write WAVECAR
   LDOWNSAMPLE  =      F    k-point downsampling of WAVECAR
   LCHARG       =      F    write CHGCAR
   LVTOT        =      F    write LOCPOT, total local potential
   LVHAR        =      F    write LOCPOT, Hartree potential only
   LELF         =      F    write electronic localiz. function (ELF)
   LORBIT       =     11    0 simple, 1 ext, 2 COOP (PROOUT), +10 PAW based schemes


 Dipole corrections
   LMONO  =      F    monopole corrections only (constant potential shift)
   LDIPOL =      F    correct potential (dipole corrections)
   IDIPOL =      0    1-x, 2-y, 3-z, 4-all directions 
   EPSILON=  1.0000000 bulk dielectric constant

 LDA+U is selected, type is set to LDAUTYPE =  2
   angular momentum for each species LDAUL =    -1    2   -1
   U (eV)           for each species LDAUU =   0.0  5.1  0.0
   J (eV)           for each species LDAUJ =   0.0  0.0  0.0
 Exchange correlation treatment:
   GGA     =    --    GGA type
   LEXCH   =     8    internal setting for exchange type
   VOSKOWN=      0    Vosko Wilk Nusair interpolation
   LHFCALC =     F    Hartree Fock is set to
   LHFONE  =     F    Hartree Fock one center treatment
   AEXX    =    0.0000 exact exchange contribution

 Linear response parameters
   LEPSILON=     F    determine dielectric tensor
   LRPA    =     F    only Hartree local field effects (RPA)
   LNABLA  =     F    use nabla operator in PAW spheres
   LVEL    =     F    velocity operator in full k-point grid
   LINTERFAST=   F  fast interpolation
   KINTER  =     0    interpolate to denser k-point grid
   CSHIFT  =0.1000    complex shift for real part using Kramers Kronig
   OMEGAMAX=  -1.0    maximum frequency
   DEG_THRESHOLD= 0.2000000E-02 threshold for treating states as degnerate
   RTIME   =   -0.100 relaxation time in fs
  (WPLASMAI=    0.000 imaginary part of plasma frequency in eV, 0.658/RTIME)
   DFIELD  = 0.0000000 0.0000000 0.0000000 field for delta impulse in time
 
 Orbital magnetization related:
   ORBITALMAG=     F  switch on orbital magnetization
   LCHIMAG   =     F  perturbation theory with respect to B field
   DQ        =  0.001000  dq finite difference perturbation B field
   LLRAUG    =     F  two centre corrections for induced B field



--------------------------------------------------------------------------------------------------------


 Static calculation
 charge density and potential will be updated during run
 spin polarized calculation
 Conjugate gradient for all bands (Freysoldt, et al. PRB 79, 241103 (2009))
 preconditioned conjugated gradient                                        
 perform sub-space diagonalisation
    before iterative eigenvector-optimisation
 modified Broyden-mixing scheme, WC =      100.0
 initial mixing is a Kerker type mixing with AMIX =  0.4000 and BMIX =      1.0000
 Hartree-type preconditioning will be used
 using additional bands           31
 real space projection scheme for non local part
 use partial core corrections
 no Harris-corrections to forces 
 use gradient corrections 
 use of overlap-Matrix (Vanderbilt PP)
 Gauss-broadening in eV      SIGMA  =   0.05


--------------------------------------------------------------------------------------------------------


  energy-cutoff  :      600.00
  volume of cell :      390.20
      direct lattice vectors                 reciprocal lattice vectors
     5.647133350  0.000000000  0.000000000     0.177080996  0.104011289 -0.004928044
    -2.827070951  4.813136578  0.000000000     0.000000000  0.207764726  0.007160005
     0.690111339 -0.494738877 14.356035233     0.000000000  0.000000000  0.069657115

  length of vectors
     5.647133350  5.581990136 14.381125402     0.205427148  0.207888063  0.069657115


 
 k-points in units of 2pi/SCALE and weight: read from INCAR                         
   0.01475675  0.02598133  0.01760028       0.028
   0.04427025  0.04331655  0.01677893       0.028
   0.07378375  0.06065176  0.01595759       0.028
  -0.07378375 -0.02602431  0.02006430       0.028
  -0.04427025 -0.00868910  0.01924296       0.028
  -0.01475675  0.00864612  0.01842162       0.028
   0.01475675  0.06060879  0.01879361       0.028
   0.04427025  0.07794400  0.01797227       0.028
   0.07378375  0.09527922  0.01715093       0.028
  -0.07378375  0.00860314  0.02125763       0.028
  -0.04427025  0.02593836  0.02043629       0.028
  -0.01475675  0.04327357  0.01961495       0.028
   0.01475675  0.09523624  0.01998694       0.028
   0.04427025  0.11257146  0.01916560       0.028
   0.07378375  0.12990667  0.01834426       0.028
  -0.07378375  0.04323060  0.02245097       0.028
  -0.04427025  0.06056581  0.02162963       0.028
  -0.01475675  0.07790103  0.02080828       0.028
   0.01475675 -0.07790103  0.01402027       0.028
   0.04427025 -0.06056581  0.01319893       0.028
   0.07378375 -0.04323060  0.01237759       0.028
  -0.07378375 -0.12990667  0.01648430       0.028
  -0.04427025 -0.11257146  0.01566295       0.028
  -0.01475675 -0.09523624  0.01484161       0.028
   0.01475675 -0.04327357  0.01521361       0.028
   0.04427025 -0.02593836  0.01439227       0.028
   0.07378375 -0.00860314  0.01357093       0.028
  -0.07378375 -0.09527922  0.01767763       0.028
  -0.04427025 -0.07794400  0.01685629       0.028
  -0.01475675 -0.06060879  0.01603495       0.028
   0.01475675 -0.00864612  0.01640694       0.028
   0.04427025  0.00868910  0.01558560       0.028
   0.07378375  0.02602431  0.01476426       0.028
  -0.07378375 -0.06065176  0.01887096       0.028
  -0.04427025 -0.04331655  0.01804962       0.028
  -0.01475675 -0.02598133  0.01722828       0.028
 
 k-points in reciprocal lattice and weights: read from INCAR                         
   0.08333333  0.08333333  0.25000000       0.028
   0.25000000  0.08333333  0.25000000       0.028
   0.41666667  0.08333333  0.25000000       0.028
  -0.41666667  0.08333333  0.25000000       0.028
  -0.25000000  0.08333333  0.25000000       0.028
  -0.08333333  0.08333333  0.25000000       0.028
   0.08333333  0.25000000  0.25000000       0.028
   0.25000000  0.25000000  0.25000000       0.028
   0.41666667  0.25000000  0.25000000       0.028
  -0.41666667  0.25000000  0.25000000       0.028
  -0.25000000  0.25000000  0.25000000       0.028
  -0.08333333  0.25000000  0.25000000       0.028
   0.08333333  0.41666667  0.25000000       0.028
   0.25000000  0.41666667  0.25000000       0.028
   0.41666667  0.41666667  0.25000000       0.028
  -0.41666667  0.41666667  0.25000000       0.028
  -0.25000000  0.41666667  0.25000000       0.028
  -0.08333333  0.41666667  0.25000000       0.028
   0.08333333 -0.41666667  0.25000000       0.028
   0.25000000 -0.41666667  0.25000000       0.028
   0.41666667 -0.41666667  0.25000000       0.028
  -0.41666667 -0.41666667  0.25000000       0.028
  -0.25000000 -0.41666667  0.25000000       0.028
  -0.08333333 -0.41666667  0.25000000       0.028
   0.08333333 -0.25000000  0.25000000       0.028
   0.25000000 -0.25000000  0.25000000       0.028
   0.41666667 -0.25000000  0.25000000       0.028
  -0.41666667 -0.25000000  0.25000000       0.028
  -0.25000000 -0.25000000  0.25000000       0.028
  -0.08333333 -0.25000000  0.25000000       0.028
   0.08333333 -0.08333333  0.25000000       0.028
   0.25000000 -0.08333333  0.25000000       0.028
   0.41666667 -0.08333333  0.25000000       0.028
  -0.41666667 -0.08333333  0.25000000       0.028
  -0.25000000 -0.08333333  0.25000000       0.028
  -0.08333333 -0.08333333  0.25000000       0.028
 
 position of ions in fractional coordinates (direct lattice) 
   0.06331216  0.96960981  0.01207576
   0.59320476  0.02589315  0.99670207
   0.55904006  0.51567134  0.99783258
   0.87914292  0.78719724  0.32014412
   0.57484770  0.24084090  0.68383575
   0.44640375  0.57125891  0.66673004
   0.21700831  0.37862395  0.16426611
   0.21291965  0.86865768  0.16483032
   0.70460534  0.36804578  0.15665746
   0.71355601  0.86829090  0.16548650
   0.95374430  0.00920551  0.49902567
   0.96073468  0.50000745  0.50091893
   0.45748202  0.01480550  0.49660718
   0.45598610  0.50226730  0.49331307
   0.32899671  0.12892230  0.84133399
   0.31981588  0.61371944  0.83875663
   0.82171242  0.12744720  0.83723113
   0.84428126  0.64235140  0.83501608
   0.06497146  0.05142915  0.22764642
   0.03807489  0.54071310  0.23152840
   0.53964821  0.03600386  0.23544036
   0.54455191  0.53643327  0.23361115
   0.39341851  0.20010561  0.08793654
   0.39163434  0.69700344  0.10024007
   0.87981301  0.20774092  0.09782018
   0.85769649  0.68373757  0.08760636
   0.28436058  0.18162010  0.56614170
   0.27582379  0.67765090  0.56889875
   0.78710638  0.17650893  0.56270413
   0.79751527  0.66874811  0.56726104
   0.10787790  0.33116858  0.43095394
   0.13112787  0.86090214  0.42905371
   0.63032003  0.33243205  0.42701483
   0.61136112  0.80991302  0.42529917
   0.15996519  0.30117712  0.91987236
   0.18265525  0.79851190  0.91330367
   0.67634241  0.30466793  0.90352382
   0.65171686  0.78255792  0.90865754
   0.01965948  0.98665046  0.77896300
   0.00167695  0.46354710  0.76778997
   0.48110404  0.92624472  0.76182036
   0.48928339  0.44360582  0.76613214
 
 position of ions in cartesian coordinates  (Angst):
  -2.37528992  4.66089010  0.17336001
   3.96454000 -0.36848000 14.30869007
   2.38774991  1.98833001 14.32491970
   2.96010995  3.63050008  4.59600019
   3.03729010  0.82088000  9.81717014
   1.36602998  2.41968989  9.57159996
   0.26844001  1.74109995  2.35821009
  -1.13961995  4.09942007  2.36630988
   3.04661989  1.69395006  2.24898005
   1.68903005  4.09733009  2.37573004
   5.70427990 -0.20258000  7.16403008
   4.35753012  2.15878010  7.19120979
   2.88432002 -0.17443000  7.12931013
   1.49550998  2.17341995  7.08201981
   2.07402992  0.20428000 12.07822037
   0.64985001  2.53894997 12.04121971
   4.85780001  0.19921000 12.01931953
   3.52804995  2.67861009 11.98752022
   0.37860999  0.13491000  3.26810002
  -1.15383995  2.48797989  3.32382989
   3.10816002  0.05681000  3.37999010
   1.71984005  2.46635008  3.35372996
   1.71666002  0.91962999  1.26242006
   0.31031001  3.30518007  1.43904996
   4.44862986  0.95148999  1.40430999
   2.97100997  3.24758005  1.25768006
   1.48307002  0.59407002  8.12755013
   0.03445000  2.98017001  8.16713047
   4.33421993  0.57116997  8.07820034
   3.00454998  2.93812990  8.14361954
  -0.02963000  1.38074994  6.18678999
  -1.39724004  3.93137002  6.15951014
   2.91438007  1.38878000  6.13023996
   1.45625997  3.68780994  6.10560989
   0.68671000  0.99450999 13.20571995
  -0.59569001  3.39150000 13.11141968
   3.58160996  1.01940000 12.97101974
   2.09506011  3.31700993 13.04471970
  -2.14073992  4.36350012 11.18282032
  -0.77114999  1.85125995 11.02241993
   0.62404001  4.08124018 10.93671989
   2.03765988  1.75610006 10.99862003
 


--------------------------------------------------------------------------------------------------------


 k-point  1 :   0.0833 0.0833 0.2500  plane waves:   13025
 k-point  2 :   0.2500 0.0833 0.2500  plane waves:   13008
 k-point  3 :   0.4167 0.0833 0.2500  plane waves:   13020
 k-point  4 :  -0.4167 0.0833 0.2500  plane waves:   13005
 k-point  5 :  -0.2500 0.0833 0.2500  plane waves:   12999
 k-point  6 :  -0.0833 0.0833 0.2500  plane waves:   13026
 k-point  7 :   0.0833 0.2500 0.2500  plane waves:   13037
 k-point  8 :   0.2500 0.2500 0.2500  plane waves:   13028
 k-point  9 :   0.4167 0.2500 0.2500  plane waves:   13033
 k-point 10 :  -0.4167 0.2500 0.2500  plane waves:   13009
 k-point 11 :  -0.2500 0.2500 0.2500  plane waves:   12993
 k-point 12 :  -0.0833 0.2500 0.2500  plane waves:   13020
 k-point 13 :   0.0833 0.4167 0.2500  plane waves:   13033
 k-point 14 :   0.2500 0.4167 0.2500  plane waves:   13037
 k-point 15 :   0.4167 0.4167 0.2500  plane waves:   13025
 k-point 16 :  -0.4167 0.4167 0.2500  plane waves:   13031
 k-point 17 :  -0.2500 0.4167 0.2500  plane waves:   13028
 k-point 18 :  -0.0833 0.4167 0.2500  plane waves:   13041
 k-point 19 :   0.0833-0.4167 0.2500  plane waves:   13037
 k-point 20 :   0.2500-0.4167 0.2500  plane waves:   13026
 k-point 21 :   0.4167-0.4167 0.2500  plane waves:   12996
 k-point 22 :  -0.4167-0.4167 0.2500  plane waves:   13024
 k-point 23 :  -0.2500-0.4167 0.2500  plane waves:   13030
 k-point 24 :  -0.0833-0.4167 0.2500  plane waves:   13053
 k-point 25 :   0.0833-0.2500 0.2500  plane waves:   13012
 k-point 26 :   0.2500-0.2500 0.2500  plane waves:   13001
 k-point 27 :   0.4167-0.2500 0.2500  plane waves:   13020
 k-point 28 :  -0.4167-0.2500 0.2500  plane waves:   13039
 k-point 29 :  -0.2500-0.2500 0.2500  plane waves:   13030
 k-point 30 :  -0.0833-0.2500 0.2500  plane waves:   13025
 k-point 31 :   0.0833-0.0833 0.2500  plane waves:   13023
 k-point 32 :   0.2500-0.0833 0.2500  plane waves:   12993
 k-point 33 :   0.4167-0.0833 0.2500  plane waves:   12997
 k-point 34 :  -0.4167-0.0833 0.2500  plane waves:   13020
 k-point 35 :  -0.2500-0.0833 0.2500  plane waves:   13033
 k-point 36 :  -0.0833-0.0833 0.2500  plane waves:   13012

 maximum and minimum number of plane-waves per node :      3279     3238

 maximum number of plane-waves:     13053
 maximum index in each direction: 
   IXMAX=   11   IYMAX=   11   IZMAX=   28
   IXMIN=  -11   IYMIN=  -11   IZMIN=  -28


 real space projection operators:
  total allocation   :       7580.12 KBytes
  max/ min on nodes  :       1901.12       1889.26


 parallel 3D FFT for wavefunctions:
    minimum data exchange during FFTs selected (reduces bandwidth)
 parallel 3D FFT for charge:
    minimum data exchange during FFTs selected (reduces bandwidth)


 total amount of memory used by VASP MPI-rank0   158234. kBytes
=======================================================================

   base      :      30000. kBytes
   nonlr-proj:       4336. kBytes
   fftplans  :       1687. kBytes
   grid      :       4644. kBytes
   one-center:        342. kBytes
   wavefun   :     117225. kBytes
 
     INWAV:  cpu time    0.0000: real time    0.0003
 Broyden mixing: mesh for mixing (old mesh)
   NGX = 23   NGY = 23   NGZ = 57
  (NGX  = 72   NGY  = 72   NGZ  =180)
  gives a total of  30153 points

 initial charge density was supplied:
 charge density of overlapping atoms calculated
 number of electron     258.0000000 magnetization       6.0000000
 keeping initial charge density in first step


--------------------------------------------------------------------------------------------------------


 Maximum index for non-local projection operator          697
 Maximum index for augmentation-charges         1036 (set IRDMAX)


--------------------------------------------------------------------------------------------------------


 First call to EWALD:  gamma=   0.243
 Maximum number of real-space cells 4x 4x 2
 Maximum number of reciprocal cells 2x 2x 5

    FEWALD:  cpu time    0.0055: real time    0.0055


--------------------------------------- Iteration      1(   1)  ---------------------------------------


    POTLOK:  cpu time    0.0716: real time    0.0843
    SETDIJ:  cpu time    0.0221: real time    0.0231
    TRIAL :  cpu time   21.1216: real time   21.4180
    CORREC:  cpu time    0.0039: real time    0.0040
    --------------------------------------------
      LOOP:  cpu time   21.4270: real time   21.7386

 eigenvalue-minimisations  : 23040
 total energy-change (2. order) : 0.3488599E+04  (-0.1393458E+05)
 number of electron     258.0000000 magnetization       6.0000000
 augmentation part      258.0000000 magnetization       6.0000000

 Free energy of the ion-electron system (eV)
  ---------------------------------------------------
  alpha Z        PSCENC =       751.31829413
  Ewald energy   TEWEN  =    -13903.11901338
  -Hartree energ DENC   =     -7129.89265717
  -exchange      EXHF   =         0.00000000
  -V(xc)+E(xc)   XCENC  =       843.29912404
  PAW double counting   =     17015.18481625   -17491.61297812
  entropy T*S    EENTRO =        -0.00556503
  eigenvalues    EBANDS =      3234.55635791
  atomic energy  EATOM  =     20168.87094289
  ---------------------------------------------------
  free energy    TOTEN  =      3488.59932152 eV

  energy without entropy =     3488.60488655  energy(sigma->0) =     3488.60210403


--------------------------------------------------------------------------------------------------------




--------------------------------------- Iteration      1(   2)  ---------------------------------------


    TRIAL :  cpu time   22.7594: real time   22.8187
    CORREC:  cpu time    0.0043: real time    0.0043
    --------------------------------------------
      LOOP:  cpu time   22.7642: real time   22.8235

 eigenvalue-minimisations  : 24928
 total energy-change (2. order) :-0.3083010E+04  (-0.2840666E+04)
 number of electron     258.0000000 magnetization       6.0000000
 augmentation part      258.0000000 magnetization       6.0000000

 Free energy of the ion-electron system (eV)
  ---------------------------------------------------
  alpha Z        PSCENC =       751.31829413
  Ewald energy   TEWEN  =    -13903.11901338
  -Hartree energ DENC   =     -7129.89265717
  -exchange      EXHF   =         0.00000000
  -V(xc)+E(xc)   XCENC  =       843.29912404
  PAW double counting   =     17015.18481625   -17491.61297812
  entropy T*S    EENTRO =        -0.02291057
  eigenvalues    EBANDS =       151.56365957
  atomic energy  EATOM  =     20168.87094289
  ---------------------------------------------------
  free energy    TOTEN  =       405.58927763 eV

  energy without entropy =      405.61218820  energy(sigma->0) =      405.60073292


--------------------------------------------------------------------------------------------------------




--------------------------------------- Iteration      1(   3)  ---------------------------------------


    TRIAL :  cpu time   22.9725: real time   23.1006
    CORREC:  cpu time    0.0044: real time    0.0044
    --------------------------------------------
      LOOP:  cpu time   22.9809: real time   23.1091

 eigenvalue-minimisations  : 25456
 total energy-change (2. order) :-0.6257740E+03  (-0.5706319E+03)
 number of electron     258.0000000 magnetization       6.0000000
 augmentation part      258.0000000 magnetization       6.0000000

 Free energy of the ion-electron system (eV)
  ---------------------------------------------------
  alpha Z        PSCENC =       751.31829413
  Ewald energy   TEWEN  =    -13903.11901338
  -Hartree energ DENC   =     -7129.89265717
  -exchange      EXHF   =         0.00000000
  -V(xc)+E(xc)   XCENC  =       843.29912404
  PAW double counting   =     17015.18481625   -17491.61297812
  entropy T*S    EENTRO =        -0.02981905
  eigenvalues    EBANDS =      -474.20339316
  atomic energy  EATOM  =     20168.87094289
  ---------------------------------------------------
  free energy    TOTEN  =      -220.18468357 eV

  energy without entropy =     -220.15486452  energy(sigma->0) =     -220.16977405


--------------------------------------------------------------------------------------------------------




--------------------------------------- Iteration      1(   4)  ---------------------------------------


    TRIAL :  cpu time   23.1293: real time   23.2639
    CORREC:  cpu time    0.0037: real time    0.0037
    --------------------------------------------
      LOOP:  cpu time   23.1370: real time   23.2717

 eigenvalue-minimisations  : 25360
 total energy-change (2. order) :-0.5000068E+02  (-0.4903816E+02)
 number of electron     258.0000000 magnetization       6.0000000
 augmentation part      258.0000000 magnetization       6.0000000

 Free energy of the ion-electron system (eV)
  ---------------------------------------------------
  alpha Z        PSCENC =       751.31829413
  Ewald energy   TEWEN  =    -13903.11901338
  -Hartree energ DENC   =     -7129.89265717
  -exchange      EXHF   =         0.00000000
  -V(xc)+E(xc)   XCENC  =       843.29912404
  PAW double counting   =     17015.18481625   -17491.61297812
  entropy T*S    EENTRO =        -0.02561390
  eigenvalues    EBANDS =      -524.20827624
  atomic energy  EATOM  =     20168.87094289
  ---------------------------------------------------
  free energy    TOTEN  =      -270.18536150 eV

  energy without entropy =     -270.15974760  energy(sigma->0) =     -270.17255455


--------------------------------------------------------------------------------------------------------




--------------------------------------- Iteration      1(   5)  ---------------------------------------


    TRIAL :  cpu time   25.5851: real time   25.6512
    CORREC:  cpu time    0.0042: real time    0.0042
    CHARGE:  cpu time    0.4142: real time    0.4149
    --------------------------------------------
      LOOP:  cpu time   26.0077: real time   26.0746

 eigenvalue-minimisations  : 28688
 total energy-change (2. order) :-0.1724623E+01  (-0.1721810E+01)
 number of electron     258.0000013 magnetization       6.0000000
 augmentation part       68.0646574 magnetization       4.3063417

 Free energy of the ion-electron system (eV)
  ---------------------------------------------------
  alpha Z        PSCENC =       751.31829413
  Ewald energy   TEWEN  =    -13903.11901338
  -Hartree energ DENC   =     -7129.89265717
  -exchange      EXHF   =         0.00000000
  -V(xc)+E(xc)   XCENC  =       843.29912404
  PAW double counting   =     17015.18481625   -17491.61297812
  entropy T*S    EENTRO =        -0.02549952
  eigenvalues    EBANDS =      -525.93301320
  atomic energy  EATOM  =     20168.87094289
  ---------------------------------------------------
  free energy    TOTEN  =      -271.90998409 eV

  energy without entropy =     -271.88448457  energy(sigma->0) =     -271.89723433


--------------------------------------------------------------------------------------------------------




--------------------------------------- Iteration      1(   6)  ---------------------------------------


    POTLOK:  cpu time    0.0472: real time    0.0472
    SETDIJ:  cpu time    0.0124: real time    0.0124
    TRIAL :  cpu time   12.0413: real time   12.0824
    CORREC:  cpu time    4.0964: real time    4.2469
    CHARGE:  cpu time    0.4265: real time    0.4276
    --------------------------------------------
      LOOP:  cpu time   16.6284: real time   16.8211

 eigenvalue-minimisations  :     0
 total energy-change (2. order) : 0.4151891E+03  (-0.5375413E+03)
 number of electron     258.0000013 magnetization       6.0000001
 augmentation part       71.2062488 magnetization       4.3842428

 Free energy of the ion-electron system (eV)
  ---------------------------------------------------
  alpha Z        PSCENC =       751.31829413
  Ewald energy   TEWEN  =    -13903.11901338
  -Hartree energ DENC   =     -6924.85671093
  -exchange      EXHF   =         0.00000000
  -V(xc)+E(xc)   XCENC  =       878.07139600
  PAW double counting   =     23788.71516162   -23998.09222597
  entropy T*S    EENTRO =        -0.09597651
  eigenvalues    EBANDS =      -617.60322843
  atomic energy  EATOM  =     20168.87094289
  ---------------------------------------------------
  free energy    TOTEN  =       143.27911641 eV

  energy without entropy =      143.37509292  energy(sigma->0) =      143.32710467


--------------------------------------------------------------------------------------------------------




--------------------------------------- Iteration      1(   7)  ---------------------------------------


    POTLOK:  cpu time    0.0461: real time    0.0462
    SETDIJ:  cpu time    0.0125: real time    0.0125
    TRIAL :  cpu time   12.2773: real time   12.3110
    CORREC:  cpu time    4.0871: real time    4.0938
    CHARGE:  cpu time    0.4082: real time    0.4091
    --------------------------------------------
      LOOP:  cpu time   16.8353: real time   16.8767

 eigenvalue-minimisations  :     0
 total energy-change (2. order) : 0.4781781E+03  (-0.1126765E+05)
 number of electron     258.0000009 magnetization       6.0000000
 augmentation part       75.2585842 magnetization       3.3218981

 Free energy of the ion-electron system (eV)
  ---------------------------------------------------
  alpha Z        PSCENC =       751.31829413
  Ewald energy   TEWEN  =    -13903.11901338
  -Hartree energ DENC   =     -7187.05682507
  -exchange      EXHF   =         0.00000000
  -V(xc)+E(xc)   XCENC  =       871.84545022
  PAW double counting   =     24411.29981793   -24790.93482939
  entropy T*S    EENTRO =        -0.01551601
  eigenvalues    EBANDS =       299.32936667
  atomic energy  EATOM  =     20168.87094289
  ---------------------------------------------------
  free energy    TOTEN  =       621.45722748 eV

  energy without entropy =      621.47274349  energy(sigma->0) =      621.46498549


--------------------------------------------------------------------------------------------------------




--------------------------------------- Iteration      1(   8)  ---------------------------------------


    POTLOK:  cpu time    0.0480: real time    0.0481
    SETDIJ:  cpu time    0.0126: real time    0.0126
    TRIAL :  cpu time   12.2608: real time   12.2928
    CORREC:  cpu time    4.0664: real time    4.0782
    CHARGE:  cpu time    0.4075: real time    0.4100
    --------------------------------------------
      LOOP:  cpu time   16.7998: real time   16.8465

 eigenvalue-minimisations  :     0
 total energy-change (2. order) : 0.4424296E+04  (-0.2363141E+04)
 number of electron     258.0000003 magnetization       5.9999997
 augmentation part       73.5674076 magnetization       4.4801923

 Free energy of the ion-electron system (eV)
  ---------------------------------------------------
  alpha Z        PSCENC =       751.31829413
  Ewald energy   TEWEN  =    -13903.11901338
  -Hartree energ DENC   =    -12624.25149623
  -exchange      EXHF   =         0.00000000
  -V(xc)+E(xc)   XCENC  =       908.21177147
  PAW double counting   =     30021.39647099   -30798.21718957
  entropy T*S    EENTRO =        -0.02673796
  eigenvalues    EBANDS =     10521.55911077
  atomic energy  EATOM  =     20168.87094289
  ---------------------------------------------------
  free energy    TOTEN  =      5045.75337505 eV

  energy without entropy =     5045.78011301  energy(sigma->0) =     5045.76674403


--------------------------------------------------------------------------------------------------------




--------------------------------------- Iteration      1(   9)  ---------------------------------------


    POTLOK:  cpu time    0.0459: real time    0.0459
    SETDIJ:  cpu time    0.0124: real time    0.0124
    TRIAL :  cpu time   12.1766: real time   12.2225
    CORREC:  cpu time    4.0648: real time    4.0773
    CHARGE:  cpu time    0.4132: real time    0.4160
    --------------------------------------------
      LOOP:  cpu time   16.7172: real time   16.7784

 eigenvalue-minimisations  :     0
 total energy-change (2. order) :-0.1207021E+04  (-0.2258856E+04)
 number of electron     258.0000016 magnetization       6.0000000
 augmentation part       76.0141186 magnetization       4.4858132

 Free energy of the ion-electron system (eV)
  ---------------------------------------------------
  alpha Z        PSCENC =       751.31829413
  Ewald energy   TEWEN  =    -13903.11901338
  -Hartree energ DENC   =     -9908.06456914
  -exchange      EXHF   =         0.00000000
  -V(xc)+E(xc)   XCENC  =       890.20249570
  PAW double counting   =     28677.08278841   -29335.82495258
  entropy T*S    EENTRO =        -0.04761775
  eigenvalues    EBANDS =      6498.29357599
  atomic energy  EATOM  =     20168.87094289
  ---------------------------------------------------
  free energy    TOTEN  =      3838.73282405 eV

  energy without entropy =     3838.78044180  energy(sigma->0) =     3838.75663293


--------------------------------------------------------------------------------------------------------




--------------------------------------- Iteration      1(  10)  ---------------------------------------


    POTLOK:  cpu time    0.0460: real time    0.0460
    SETDIJ:  cpu time    0.0125: real time    0.0125
    TRIAL :  cpu time   13.4292: real time   14.2348
    CORREC:  cpu time    4.1219: real time    4.1445
    CHARGE:  cpu time    0.4108: real time    0.4122
    --------------------------------------------
      LOOP:  cpu time   18.0246: real time   18.8543

 eigenvalue-minimisations  :     0
 total energy-change (2. order) :-0.1058014E+04  (-0.1117411E+04)
 number of electron     258.0000005 magnetization       6.0000002
 augmentation part       75.3081755 magnetization       4.1313661

 Free energy of the ion-electron system (eV)
  ---------------------------------------------------
  alpha Z        PSCENC =       751.31829413
  Ewald energy   TEWEN  =    -13903.11901338
  -Hartree energ DENC   =    -10043.04659289
  -exchange      EXHF   =         0.00000000
  -V(xc)+E(xc)   XCENC  =       874.05254341
  PAW double counting   =     29552.97014857   -30278.35994281
  entropy T*S    EENTRO =        -0.02993935
  eigenvalues    EBANDS =      5658.08022051
  atomic energy  EATOM  =     20168.87094289
  ---------------------------------------------------
  free energy    TOTEN  =      2780.71898268 eV

  energy without entropy =     2780.74892203  energy(sigma->0) =     2780.73395236


--------------------------------------------------------------------------------------------------------




--------------------------------------- Iteration      1(  11)  ---------------------------------------


    POTLOK:  cpu time    0.0481: real time    0.0481
    SETDIJ:  cpu time    0.0124: real time    0.0124
    TRIAL :  cpu time   12.2394: real time   12.2582
    CORREC:  cpu time    4.0707: real time    4.0765
    CHARGE:  cpu time    0.4131: real time    0.4134
    --------------------------------------------
      LOOP:  cpu time   16.7880: real time   16.8130

 eigenvalue-minimisations  :     0
 total energy-change (2. order) : 0.3499955E+03  (-0.1177529E+05)
 number of electron     258.0000011 magnetization       6.0000000
 augmentation part       76.9987895 magnetization       2.9743265

 Free energy of the ion-electron system (eV)
  ---------------------------------------------------
  alpha Z        PSCENC =       751.31829413
  Ewald energy   TEWEN  =    -13903.11901338
  -Hartree energ DENC   =     -9303.17362340
  -exchange      EXHF   =         0.00000000
  -V(xc)+E(xc)   XCENC  =       870.87082676
  PAW double counting   =     27847.38048890   -28523.52936218
  entropy T*S    EENTRO =        -0.02816174
  eigenvalues    EBANDS =      5222.12584057
  atomic energy  EATOM  =     20168.87094289
  ---------------------------------------------------
  free energy    TOTEN  =      3130.71445493 eV

  energy without entropy =     3130.74261667  energy(sigma->0) =     3130.72853580


--------------------------------------------------------------------------------------------------------




--------------------------------------- Iteration      1(  12)  ---------------------------------------


    POTLOK:  cpu time    0.0456: real time    0.0457
    SETDIJ:  cpu time    0.0125: real time    0.0125
    TRIAL :  cpu time   12.1394: real time   12.1617
    CORREC:  cpu time    4.2523: real time    4.2572
    CHARGE:  cpu time    0.4116: real time    0.4120
    --------------------------------------------
      LOOP:  cpu time   16.8658: real time   16.8933

 eigenvalue-minimisations  :     0
 total energy-change (2. order) : 0.3499444E+04  (-0.1822144E+05)
 number of electron     258.0000010 magnetization       6.0000000
 augmentation part       74.0687521 magnetization       4.5224950

 Free energy of the ion-electron system (eV)
  ---------------------------------------------------
  alpha Z        PSCENC =       751.31829413
  Ewald energy   TEWEN  =    -13903.11901338
  -Hartree energ DENC   =    -13989.87329169
  -exchange      EXHF   =         0.00000000
  -V(xc)+E(xc)   XCENC  =       886.10717402
  PAW double counting   =     32682.84724604   -33579.31534938
  entropy T*S    EENTRO =        -0.04578316
  eigenvalues    EBANDS =     13613.35051956
  atomic energy  EATOM  =     20168.87094289
  ---------------------------------------------------
  free energy    TOTEN  =      6630.15836043 eV

  energy without entropy =     6630.20414359  energy(sigma->0) =     6630.18125201


--------------------------------------------------------------------------------------------------------




--------------------------------------- Iteration      1(  13)  ---------------------------------------


    POTLOK:  cpu time    0.0460: real time    0.0461
    SETDIJ:  cpu time    0.0125: real time    0.0125
    TRIAL :  cpu time   11.9709: real time   11.9880
    CORREC:  cpu time    4.2831: real time    4.2889
    CHARGE:  cpu time    0.4103: real time    0.4107
    --------------------------------------------
      LOOP:  cpu time   16.7272: real time   16.7506

 eigenvalue-minimisations  :     0
 total energy-change (2. order) :-0.2764941E+04  (-0.2992869E+04)
 number of electron     258.0000004 magnetization       6.0000001
 augmentation part       77.7199526 magnetization       3.4950513

 Free energy of the ion-electron system (eV)
  ---------------------------------------------------
  alpha Z        PSCENC =       751.31829413
  Ewald energy   TEWEN  =    -13903.11901338
  -Hartree energ DENC   =     -9540.99501585
  -exchange      EXHF   =         0.00000000
  -V(xc)+E(xc)   XCENC  =       864.22531943
  PAW double counting   =     31192.29008637   -31897.27000937
  entropy T*S    EENTRO =        -0.01969691
  eigenvalues    EBANDS =      6229.94252982
  atomic energy  EATOM  =     20168.87094289
  ---------------------------------------------------
  free energy    TOTEN  =      3865.21735088 eV

  energy without entropy =     3865.23704779  energy(sigma->0) =     3865.22719934


--------------------------------------------------------------------------------------------------------




--------------------------------------- Iteration      1(  14)  ---------------------------------------


    POTLOK:  cpu time    0.0459: real time    0.0459
    SETDIJ:  cpu time    0.0128: real time    0.0128
    TRIAL :  cpu time   11.9411: real time   11.9602
    CORREC:  cpu time    4.1705: real time    4.2632
    CHARGE:  cpu time    0.3994: real time    0.4139
    --------------------------------------------
      LOOP:  cpu time   16.5743: real time   16.7005

 eigenvalue-minimisations  :     0
 total energy-change (2. order) : 0.2599165E+03  (-0.6360181E+04)
 number of electron     258.0000012 magnetization       6.0000001
 augmentation part       74.7338051 magnetization       1.2038762

 Free energy of the ion-electron system (eV)
  ---------------------------------------------------
  alpha Z        PSCENC =       751.31829413
  Ewald energy   TEWEN  =    -13903.11901338
  -Hartree energ DENC   =    -10239.81278398
  -exchange      EXHF   =         0.00000000
  -V(xc)+E(xc)   XCENC  =       875.13323124
  PAW double counting   =     31113.28812935   -31917.59713332
  entropy T*S    EENTRO =        -0.01782501
  eigenvalues    EBANDS =      7277.07184502
  atomic energy  EATOM  =     20168.87094289
  ---------------------------------------------------
  free energy    TOTEN  =      4125.13381503 eV

  energy without entropy =     4125.15164004  energy(sigma->0) =     4125.14272753


--------------------------------------------------------------------------------------------------------




--------------------------------------- Iteration      1(  15)  ---------------------------------------


    POTLOK:  cpu time    0.0454: real time    0.0461
    SETDIJ:  cpu time    0.0123: real time    0.0129
    TRIAL :  cpu time   11.8932: real time   12.0962
    CORREC:  cpu time    4.0508: real time    4.0890
    CHARGE:  cpu time    0.4042: real time    0.4045
    --------------------------------------------
      LOOP:  cpu time   16.4065: real time   16.6534

 eigenvalue-minimisations  :     0
 total energy-change (2. order) : 0.4546635E+04  (-0.6941610E+04)
 number of electron     258.0000010 magnetization       6.0000001
 augmentation part       73.1895313 magnetization       1.1039763

 Free energy of the ion-electron system (eV)
  ---------------------------------------------------
  alpha Z        PSCENC =       751.31829413
  Ewald energy   TEWEN  =    -13903.11901338
  -Hartree energ DENC   =    -14422.92606009
  -exchange      EXHF   =         0.00000000
  -V(xc)+E(xc)   XCENC  =       861.71202705
  PAW double counting   =     36399.93981941   -37366.66312305
  entropy T*S    EENTRO =        -0.00798971
  eigenvalues    EBANDS =     16182.65399957
  atomic energy  EATOM  =     20168.87094289
  ---------------------------------------------------
  free energy    TOTEN  =      8671.76906151 eV

  energy without entropy =     8671.77705121  energy(sigma->0) =     8671.77305636


--------------------------------------------------------------------------------------------------------




--------------------------------------- Iteration      1(  16)  ---------------------------------------


    POTLOK:  cpu time    0.0470: real time    0.0471
    SETDIJ:  cpu time    0.0124: real time    0.0124
    TRIAL :  cpu time   12.1560: real time   12.1742
    CORREC:  cpu time    4.0655: real time    4.0708
    CHARGE:  cpu time    0.4013: real time    0.4018
    --------------------------------------------
      LOOP:  cpu time   16.6867: real time   16.7108

 eigenvalue-minimisations  :     0
 total energy-change (2. order) :-0.2863141E+04  (-0.6664310E+04)
 number of electron     258.0000010 magnetization       5.9999999
 augmentation part       71.4403096 magnetization       1.4439866

 Free energy of the ion-electron system (eV)
  ---------------------------------------------------
  alpha Z        PSCENC =       751.31829413
  Ewald energy   TEWEN  =    -13903.11901338
  -Hartree energ DENC   =    -10847.38286780
  -exchange      EXHF   =         0.00000000
  -V(xc)+E(xc)   XCENC  =       842.81026584
  PAW double counting   =     40060.83200193   -40985.36573049
  entropy T*S    EENTRO =        -0.00453105
  eigenvalues    EBANDS =      9720.67220625
  atomic energy  EATOM  =     20168.87094289
  ---------------------------------------------------
  free energy    TOTEN  =      5808.62810966 eV

  energy without entropy =     5808.63264070  energy(sigma->0) =     5808.63037518


--------------------------------------------------------------------------------------------------------




--------------------------------------- Iteration      1(  17)  ---------------------------------------


    POTLOK:  cpu time    0.0456: real time    0.0457
    SETDIJ:  cpu time    0.0125: real time    0.0125
    TRIAL :  cpu time   12.1368: real time   12.1588
    CORREC:  cpu time    4.0817: real time    4.0870
    CHARGE:  cpu time    0.4003: real time    0.4007
    --------------------------------------------
      LOOP:  cpu time   16.6816: real time   16.7093

 eigenvalue-minimisations  :     0
 total energy-change (2. order) :-0.3103453E+04  (-0.8665580E+03)
 number of electron     258.0000010 magnetization       6.0000000
 augmentation part       72.5194047 magnetization       1.9697653

 Free energy of the ion-electron system (eV)
  ---------------------------------------------------
  alpha Z        PSCENC =       751.31829413
  Ewald energy   TEWEN  =    -13903.11901338
  -Hartree energ DENC   =     -6642.84262079
  -exchange      EXHF   =         0.00000000
  -V(xc)+E(xc)   XCENC  =       802.48409722
  PAW double counting   =     41079.28510026   -41839.71184573
  entropy T*S    EENTRO =        -0.00807231
  eigenvalues    EBANDS =      2288.89459910
  atomic energy  EATOM  =     20168.87094289
  ---------------------------------------------------
  free energy    TOTEN  =      2705.17502264 eV

  energy without entropy =     2705.18309495  energy(sigma->0) =     2705.17905880


--------------------------------------------------------------------------------------------------------




--------------------------------------- Iteration      1(  18)  ---------------------------------------


    POTLOK:  cpu time    0.0458: real time    0.0459
    SETDIJ:  cpu time    0.0123: real time    0.0125
    TRIAL :  cpu time   12.1121: real time   12.1597
    CORREC:  cpu time    4.0616: real time    4.0703
    CHARGE:  cpu time    0.3998: real time    0.4002
    --------------------------------------------
      LOOP:  cpu time   16.6359: real time   16.6929

 eigenvalue-minimisations  :     0
 total energy-change (2. order) :-0.3373019E+03  (-0.6636341E+03)
 number of electron     258.0000010 magnetization       6.0000000
 augmentation part       73.7991576 magnetization       2.4746924

 Free energy of the ion-electron system (eV)
  ---------------------------------------------------
  alpha Z        PSCENC =       751.31829413
  Ewald energy   TEWEN  =    -13903.11901338
  -Hartree energ DENC   =     -6417.81987919
  -exchange      EXHF   =         0.00000000
  -V(xc)+E(xc)   XCENC  =       800.00799141
  PAW double counting   =     40996.19484338   -41755.07294885
  entropy T*S    EENTRO =        -0.00817302
  eigenvalues    EBANDS =      1727.50099447
  atomic energy  EATOM  =     20168.87094289
  ---------------------------------------------------
  free energy    TOTEN  =      2367.87315254 eV

  energy without entropy =     2367.88132556  energy(sigma->0) =     2367.87723905


--------------------------------------------------------------------------------------------------------




--------------------------------------- Iteration      1(  19)  ---------------------------------------


    POTLOK:  cpu time    0.0458: real time    0.0458
    SETDIJ:  cpu time    0.0124: real time    0.0124
    TRIAL :  cpu time   12.1148: real time   12.1434
    CORREC:  cpu time    4.0645: real time    4.0767
    CHARGE:  cpu time    0.3998: real time    0.4009
    --------------------------------------------
      LOOP:  cpu time   16.6414: real time   16.6834

 eigenvalue-minimisations  :     0
 total energy-change (2. order) :-0.8148534E+03  (-0.1775834E+03)
 number of electron     258.0000010 magnetization       6.0000000
 augmentation part       75.3422112 magnetization       2.3345537

 Free energy of the ion-electron system (eV)
  ---------------------------------------------------
  alpha Z        PSCENC =       751.31829413
  Ewald energy   TEWEN  =    -13903.11901338
  -Hartree energ DENC   =     -5575.91531051
  -exchange      EXHF   =         0.00000000
  -V(xc)+E(xc)   XCENC  =       789.99199645
  PAW double counting   =     42758.29296339   -43482.31767969
  entropy T*S    EENTRO =        -0.00716762
  eigenvalues    EBANDS =        45.90576834
  atomic energy  EATOM  =     20168.87094289
  ---------------------------------------------------
  free energy    TOTEN  =      1553.01978859 eV

  energy without entropy =     1553.02695620  energy(sigma->0) =     1553.02337240


--------------------------------------------------------------------------------------------------------




--------------------------------------- Iteration      1(  20)  ---------------------------------------


    POTLOK:  cpu time    0.0458: real time    0.0459
    SETDIJ:  cpu time    0.0125: real time    0.0125
    TRIAL :  cpu time   12.1619: real time   12.2046
    CORREC:  cpu time    4.0547: real time    4.0658
    CHARGE:  cpu time    0.5434: real time    0.5439
    --------------------------------------------
      LOOP:  cpu time   16.8226: real time   16.8770

 eigenvalue-minimisations  :     0
 total energy-change (2. order) :-0.2123106E+03  (-0.2019841E+03)
 number of electron     258.0000010 magnetization       6.0000000
 augmentation part       77.5541330 magnetization       2.2504716

 Free energy of the ion-electron system (eV)
  ---------------------------------------------------
  alpha Z        PSCENC =       751.31829413
  Ewald energy   TEWEN  =    -13903.11901338
  -Hartree energ DENC   =     -5596.48565837
  -exchange      EXHF   =         0.00000000
  -V(xc)+E(xc)   XCENC  =       790.52545873
  PAW double counting   =     44369.03983890   -45104.55754169
  entropy T*S    EENTRO =        -0.01131253
  eigenvalues    EBANDS =      -134.87592082
  atomic energy  EATOM  =     20168.87094289
  ---------------------------------------------------
  free energy    TOTEN  =      1340.70923277 eV

  energy without entropy =     1340.72054529  energy(sigma->0) =     1340.71488903


--------------------------------------------------------------------------------------------------------




--------------------------------------- Iteration      1(  21)  ---------------------------------------


    POTLOK:  cpu time    0.0460: real time    0.0460
    SETDIJ:  cpu time    0.0124: real time    0.0124
    TRIAL :  cpu time   12.0090: real time   12.0320
    CORREC:  cpu time    4.2813: real time    4.2938
    CHARGE:  cpu time    0.4014: real time    0.4018
    --------------------------------------------
      LOOP:  cpu time   16.7543: real time   16.7903

 eigenvalue-minimisations  :     0
 total energy-change (2. order) :-0.2288552E+03  (-0.1822280E+03)
 number of electron     258.0000010 magnetization       6.0000000
 augmentation part       77.7762802 magnetization       2.5572872

 Free energy of the ion-electron system (eV)
  ---------------------------------------------------
  alpha Z        PSCENC =       751.31829413
  Ewald energy   TEWEN  =    -13903.11901338
  -Hartree energ DENC   =     -6131.89068903
  -exchange      EXHF   =         0.00000000
  -V(xc)+E(xc)   XCENC  =       803.76441789
  PAW double counting   =     44818.76490724   -45588.95564218
  entropy T*S    EENTRO =        -0.01114129
  eigenvalues    EBANDS =       193.11208514
  atomic energy  EATOM  =     20168.87094289
  ---------------------------------------------------
  free energy    TOTEN  =      1111.85399017 eV

  energy without entropy =     1111.86513146  energy(sigma->0) =     1111.85956082


--------------------------------------------------------------------------------------------------------




--------------------------------------- Iteration      1(  22)  ---------------------------------------


    POTLOK:  cpu time    0.0456: real time    0.0475
    SETDIJ:  cpu time    0.0124: real time    0.0124
    TRIAL :  cpu time   11.9859: real time   12.0192
    CORREC:  cpu time    4.0193: real time    4.1829
    CHARGE:  cpu time    0.3978: real time    0.3981
    --------------------------------------------
      LOOP:  cpu time   16.4653: real time   16.6645

 eigenvalue-minimisations  :     0
 total energy-change (2. order) :-0.1130914E+03  (-0.4905607E+03)
 number of electron     258.0000009 magnetization       5.9999999
 augmentation part       75.3208893 magnetization       3.2076676

 Free energy of the ion-electron system (eV)
  ---------------------------------------------------
  alpha Z        PSCENC =       751.31829413
  Ewald energy   TEWEN  =    -13903.11901338
  -Hartree energ DENC   =     -6545.44067482
  -exchange      EXHF   =         0.00000000
  -V(xc)+E(xc)   XCENC  =       817.24354077
  PAW double counting   =     42684.93325903   -43442.52499930
  entropy T*S    EENTRO =        -0.01234498
  eigenvalues    EBANDS =       467.49239315
  atomic energy  EATOM  =     20168.87094289
  ---------------------------------------------------
  free energy    TOTEN  =       998.76260118 eV

  energy without entropy =      998.77494616  energy(sigma->0) =      998.76877367


--------------------------------------------------------------------------------------------------------




--------------------------------------- Iteration      1(  23)  ---------------------------------------


    POTLOK:  cpu time    0.0456: real time    0.0456
    SETDIJ:  cpu time    0.0128: real time    0.0129
    TRIAL :  cpu time   11.8767: real time   12.0361
    CORREC:  cpu time    4.0625: real time    4.0718
    CHARGE:  cpu time    0.3944: real time    0.3953
    --------------------------------------------
      LOOP:  cpu time   16.3965: real time   16.5661

 eigenvalue-minimisations  :     0
 total energy-change (2. order) :-0.5911953E+02  (-0.5199288E+03)
 number of electron     258.0000006 magnetization       6.0000000
 augmentation part       72.7061155 magnetization       2.3150380

 Free energy of the ion-electron system (eV)
  ---------------------------------------------------
  alpha Z        PSCENC =       751.31829413
  Ewald energy   TEWEN  =    -13903.11901338
  -Hartree energ DENC   =     -7316.30730389
  -exchange      EXHF   =         0.00000000
  -V(xc)+E(xc)   XCENC  =       854.39186684
  PAW double counting   =     35542.28927358   -36199.42947335
  entropy T*S    EENTRO =        -0.00848888
  eigenvalues    EBANDS =      1041.64083061
  atomic energy  EATOM  =     20168.87094289
  ---------------------------------------------------
  free energy    TOTEN  =       939.64307244 eV

  energy without entropy =      939.65156132  energy(sigma->0) =      939.64731688


--------------------------------------------------------------------------------------------------------




--------------------------------------- Iteration      1(  24)  ---------------------------------------


    POTLOK:  cpu time    0.0455: real time    0.0456
    SETDIJ:  cpu time    0.0128: real time    0.0128
    TRIAL :  cpu time   12.2007: real time   12.2294
    CORREC:  cpu time    4.0334: real time    4.0441
    CHARGE:  cpu time    0.3968: real time    0.3991
    --------------------------------------------
      LOOP:  cpu time   16.6935: real time   16.7353

 eigenvalue-minimisations  :     0
 total energy-change (2. order) : 0.6772242E+03  (-0.7815130E+03)
 number of electron     258.0000008 magnetization       6.0000000
 augmentation part       67.0700382 magnetization       1.5707519

 Free energy of the ion-electron system (eV)
  ---------------------------------------------------
  alpha Z        PSCENC =       751.31829413
  Ewald energy   TEWEN  =    -13903.11901338
  -Hartree energ DENC   =     -6901.15718359
  -exchange      EXHF   =         0.00000000
  -V(xc)+E(xc)   XCENC  =       839.39419397
  PAW double counting   =     33941.51731321   -34496.50376638
  entropy T*S    EENTRO =        -0.00507146
  eigenvalues    EBANDS =      1216.55494752
  atomic energy  EATOM  =     20168.87094289
  ---------------------------------------------------
  free energy    TOTEN  =      1616.86723949 eV

  energy without entropy =     1616.87231095  energy(sigma->0) =     1616.86977522


--------------------------------------------------------------------------------------------------------




--------------------------------------- Iteration      1(  25)  ---------------------------------------


    POTLOK:  cpu time    0.0457: real time    0.0458
    SETDIJ:  cpu time    0.0124: real time    0.0124
    TRIAL :  cpu time   12.0033: real time   12.1973
    CORREC:  cpu time    4.0607: real time    4.0651
    CHARGE:  cpu time    0.3966: real time    0.3969
    --------------------------------------------
      LOOP:  cpu time   16.5230: real time   16.7219

 eigenvalue-minimisations  :     0
 total energy-change (2. order) : 0.3017741E+04  (-0.3729889E+04)
 number of electron     258.0000010 magnetization       6.0000000
 augmentation part       70.6939613 magnetization       1.7042060

 Free energy of the ion-electron system (eV)
  ---------------------------------------------------
[...]
   20        1.579   3.361   0.000   4.940
   21        1.587   3.308   0.000   4.895
   22        1.573   3.399   0.000   4.972
   23        1.561   3.469   0.000   5.030
   24        1.566   3.467   0.000   5.034
   25        1.565   3.456   0.000   5.021
   26        1.565   3.465   0.000   5.030
   27        1.571   3.409   0.000   4.980
   28        1.574   3.393   0.000   4.967
   29        1.573   3.440   0.000   5.012
   30        1.575   3.384   0.000   4.959
   31        1.588   3.369   0.000   4.956
   32        1.575   3.390   0.000   4.965
   33        1.585   3.351   0.000   4.936
   34        1.577   3.375   0.000   4.952
   35        1.570   3.370   0.000   4.940
   36        1.562   3.432   0.000   4.995
   37        1.561   3.487   0.000   5.048
   38        1.557   3.481   0.000   5.038
   39        1.576   3.433   0.000   5.009
   40        1.573   3.393   0.000   4.965
   41        1.564   3.397   0.000   4.961
   42        1.555   3.520   0.000   5.075
--------------------------------------------------
tot         43.691  91.828  87.685 223.204
 


 magnetization (x)
 
# of ion       s       p       d       tot
------------------------------------------
    1       -0.000  -0.002   0.000  -0.002
    2        0.000  -0.000   0.000  -0.000
    3       -0.000  -0.004   0.000  -0.004
    4        0.001   0.000   0.000   0.001
    5        0.001   0.000   0.000   0.001
    6        0.000   0.000   0.000   0.000
    7        0.003   0.004  -0.024  -0.016
    8        0.013   0.008   1.476   1.498
    9        0.010   0.016   1.279   1.304
   10        0.005   0.007  -0.013  -0.001
   11        0.013   0.016   1.348   1.376
   12        0.013   0.018   1.268   1.299
   13        0.005   0.007  -0.012  -0.001
   14        0.015   0.018   1.565   1.599
   15        0.003   0.004  -0.052  -0.045
   16        0.001   0.002  -0.040  -0.036
   17        0.013   0.011   1.517   1.541
   18        0.001   0.002  -0.037  -0.033
   19        0.000  -0.047   0.000  -0.047
   20       -0.000  -0.174   0.000  -0.174
   21        0.000  -0.240   0.000  -0.240
   22        0.000  -0.055   0.000  -0.054
   23        0.001  -0.057   0.000  -0.056
   24        0.000  -0.048   0.000  -0.048
   25        0.001  -0.007   0.000  -0.007
   26        0.001  -0.050   0.000  -0.049
   27        0.001  -0.099   0.000  -0.099
   28        0.001  -0.091   0.000  -0.090
   29        0.001  -0.073   0.000  -0.072
   30        0.001  -0.132   0.000  -0.131
   31        0.002  -0.156   0.000  -0.154
   32        0.000  -0.116   0.000  -0.116
   33        0.001  -0.161   0.000  -0.160
   34        0.000  -0.134   0.000  -0.134
   35       -0.000  -0.113   0.000  -0.113
   36       -0.001  -0.015   0.000  -0.016
   37        0.001  -0.023   0.000  -0.023
   38        0.000  -0.049   0.000  -0.049
   39        0.000  -0.076   0.000  -0.076
   40       -0.000  -0.144   0.000  -0.145
   41       -0.000  -0.107   0.000  -0.108
   42       -0.000  -0.006   0.000  -0.006
--------------------------------------------------
tot          0.109  -2.068   8.276   6.317
 
    FORLOC:  cpu time    0.0082: real time    0.0082
    FORNL :  cpu time    4.0804: real time    4.0814
    STRESS:  cpu time   12.1140: real time   12.1276
    FORCOR:  cpu time    0.0496: real time    0.0497
    OFIELD:  cpu time    0.0003: real time    0.0003

  DFT-D2 method for vdW energy calculation
  -------------------------------------------------------------------

  Parameters of vdW forcefield:
         C6(Jnm^6/mol)     R0(A)
   -----------------------------
   Li       1.610          0.825
   Co      10.800          1.562
   O        0.700          1.342

  IVDW =   1
  VDW_RADIUS =    50.000 A
  VDW_S6 =     0.750
  VDW_SR =     1.000
  VDW_D =    20.000
  LVDW_EWALD = F

  Number of pair interactions contributing to vdW energy: 1212700
  Edisp (eV):   -9.56811
    FORVDW:  cpu time    0.1780: real time    0.1796

  FORCE on cell =-STRESS in cart. coord.  units (eV):
  Direction    XX          YY          ZZ          XY          YZ          ZX
  --------------------------------------------------------------------------------------
  Alpha Z   751.31829   751.31829   751.31829
  Ewald   -1572.90664 -1625.11278-10705.16772  -182.23123   -39.99996  -135.06136
  Hartree  4645.88619  4631.67566 -2193.87209   -63.86724   -13.61137   -54.06619
  E(xc)   -1285.71304 -1286.37240 -1287.13407    -0.29019     0.12210    -0.16116
  Local   -8021.93540 -7975.78467  7910.24766   225.35680    53.24679   179.92295
  n-local  -589.79519  -592.44997  -597.46477    -6.77877    -0.63242    -4.99616
  augment  2015.94907  2029.14438  1998.66812    11.19074    -0.85945     5.08733
  Kinetic  4064.65407  4081.96030  4134.54923    13.93422     1.55189     0.01250
  Fock        0.00000     0.00000     0.00000     0.00000     0.00000     0.00000
  vdW        -6.75895    -6.86567   -12.66664    -0.04577    -0.32459    -0.15759
  -------------------------------------------------------------------------------------
  Total       0.69839     7.51313    -1.52198    -2.73145    -0.50702    -9.41968
  in kB       2.86760    30.84897    -6.24928   -11.21534    -2.08182   -38.67727
  external pressure =        9.16 kB  Pullay stress =        0.00 kB


 VOLUME and BASIS-vectors are now :
 -----------------------------------------------------------------------------
  energy-cutoff  :      600.00
  volume of cell :      390.20
      direct lattice vectors                 reciprocal lattice vectors
     5.647133350  0.000000000  0.000000000     0.177080996  0.104011289 -0.004928044
    -2.827070951  4.813136578  0.000000000     0.000000000  0.207764726  0.007160005
     0.690111339 -0.494738877 14.356035233     0.000000000  0.000000000  0.069657115

  length of vectors
     5.647133350  5.581990136 14.381125402     0.205427148  0.207888063  0.069657115


 FORCES acting on ions:
    Electron-Ion                     Ewald-Force                    Non-Local-Force
 -----------------------------------------------------------------------------------------------
   0.492E+01 -.399E+01 0.110E+02   -.438E+01 0.357E+01 -.115E+02   -.736E+00 0.117E+01 -.649E+00
   0.113E+01 0.201E+01 -.344E+01   -.974E+00 -.196E+01 0.309E+01   -.550E+00 -.248E+00 0.685E+00
   0.260E+01 0.169E+01 0.934E+00   -.253E+01 -.142E+01 -.123E+01   -.437E+00 -.729E+00 0.269E+00
   -.435E+00 0.363E+01 -.182E+02   0.472E+00 -.336E+01 0.181E+02   -.678E-01 -.852E+00 0.649E+00
   -.459E+01 0.167E+00 0.261E+02   0.457E+01 -.528E+00 -.251E+02   0.994E+00 -.324E+00 -.174E+01
   0.966E+00 -.485E+01 0.112E+02   -.116E+01 0.480E+01 -.101E+02   -.101E+01 0.118E+01 -.184E+01
   0.990E+01 0.282E+02 -.949E+02   -.104E+02 -.284E+02 0.967E+02   0.787E+00 -.734E+00 -.143E+01
   0.175E+02 0.961E+01 -.642E+02   -.160E+02 -.985E+01 0.655E+02   -.434E+00 0.478E-01 -.186E+01
   -.204E+02 0.660E+01 -.969E+02   0.213E+02 -.647E+01 0.994E+02   0.130E+00 -.922E-01 0.714E+00
   -.279E+02 -.377E+02 -.125E+03   0.270E+02 0.382E+02 0.126E+03   0.812E+00 0.312E+00 -.470E+00
   0.176E+02 0.448E+02 -.434E+02   -.170E+02 -.458E+02 0.438E+02   -.362E+00 -.297E+00 -.377E+00
   0.182E+02 -.504E+02 -.781E+01   -.192E+02 0.521E+02 0.745E+01   -.491E+00 0.781E-01 -.978E+00
   -.204E+02 0.413E+02 -.167E+02   0.200E+02 -.427E+02 0.153E+02   0.568E+00 -.242E+00 0.787E+00
   0.284E+01 -.182E+02 -.155E+02   -.297E+01 0.182E+02 0.138E+02   -.164E+00 -.227E+00 0.174E+01
   -.385E+02 -.131E+01 0.757E+02   0.386E+02 0.964E+00 -.749E+02   0.118E+01 0.181E+00 -.222E-01
   -.164E+02 0.460E+01 0.105E+03   0.159E+02 -.393E+01 -.104E+03   0.841E+00 -.221E+00 -.553E+00
   0.700E+01 0.229E+02 0.128E+03   -.587E+01 -.226E+02 -.129E+03   0.407E+00 -.921E-01 0.353E+00
   0.154E+02 -.449E+01 0.139E+03   -.149E+02 0.419E+01 -.140E+03   -.346E+00 -.549E+00 0.870E+00
   0.191E+02 -.139E+01 -.378E+03   -.207E+02 0.656E+01 0.399E+03   0.542E+00 -.607E+01 -.196E+02
   0.156E+02 0.147E+02 -.390E+03   -.158E+02 -.185E+02 0.414E+03   -.621E+00 0.426E+01 -.235E+02
   -.491E+01 -.170E+02 -.390E+03   0.484E+01 0.192E+02 0.415E+03   -.311E+00 -.149E+01 -.258E+02
   -.517E+01 0.708E+01 -.400E+03   0.317E+01 -.103E+02 0.422E+03   0.239E+01 0.334E+01 -.231E+02
   0.275E+02 0.281E+02 0.268E+03   -.308E+02 -.288E+02 -.284E+03   0.265E+01 -.220E-01 0.157E+02
   0.235E+02 -.134E+02 0.278E+03   -.252E+02 0.133E+02 -.298E+03   0.967E+00 0.882E+00 0.194E+02
   -.266E+02 0.104E+02 0.264E+03   0.314E+02 -.914E+01 -.283E+03   -.409E+01 -.233E+01 0.176E+02
   -.323E+02 -.313E+02 0.268E+03   0.354E+02 0.319E+02 -.284E+03   -.230E+01 -.146E+00 0.171E+02
   0.343E+01 0.367E+01 -.348E+03   -.491E+01 -.629E+01 0.369E+03   0.164E+01 0.345E+01 -.209E+02
   -.244E+02 -.182E+02 -.328E+03   0.243E+02 0.214E+02 0.349E+03   0.102E+01 -.304E+01 -.207E+02
   0.872E+01 0.287E+02 -.354E+03   -.901E+01 -.311E+02 0.377E+03   -.458E+00 0.217E+01 -.221E+02
   0.269E+02 -.158E+02 -.336E+03   -.272E+02 0.179E+02 0.357E+03   -.121E+01 -.169E+01 -.205E+02
   -.119E+02 -.797E+01 0.333E+03   0.139E+02 0.846E+01 -.360E+03   -.940E+00 -.786E+00 0.268E+02
   -.107E+02 0.302E+02 0.307E+03   0.150E+02 -.320E+02 -.328E+03   -.420E+01 0.482E+00 0.209E+02
   -.125E+02 -.134E+02 0.320E+03   0.143E+02 0.136E+02 -.345E+03   -.124E+01 0.231E+00 0.257E+02
   0.610E+01 -.235E+02 0.299E+03   -.970E+01 0.276E+02 -.320E+03   0.431E+01 -.255E+01 0.224E+02
   0.148E+02 0.110E+02 -.253E+03   -.189E+02 -.959E+01 0.271E+03   0.424E+01 -.182E+01 -.197E+02
   0.142E+02 0.137E+01 -.257E+03   -.141E+02 -.505E+01 0.275E+03   -.157E+01 0.439E+01 -.185E+02
   0.841E+01 -.105E+02 -.240E+03   -.965E+01 0.150E+02 0.256E+03   -.110E+00 -.453E+01 -.157E+02
   -.437E+01 -.136E+02 -.237E+03   0.376E+01 0.131E+02 0.249E+03   0.517E+00 0.164E+01 -.127E+02
   0.169E+02 0.119E+02 0.403E+03   -.167E+02 -.112E+02 -.428E+03   -.113E+01 -.226E+01 0.238E+02
   0.671E+01 0.134E+02 0.403E+03   -.514E+01 -.130E+02 -.425E+03   -.146E+01 -.127E+01 0.224E+02
   -.887E+01 -.194E+02 0.385E+03   0.762E+01 0.178E+02 -.401E+03   0.176E+01 0.282E+01 0.170E+02
   -.216E+02 -.134E+02 0.380E+03   0.219E+02 0.142E+02 -.390E+03   0.645E+00 -.569E+00 0.106E+02
 -----------------------------------------------------------------------------------------------
   -.212E+01 0.656E+01 0.725E+01   0.604E-13 0.107E-12 0.284E-12   0.216E+01 -.655E+01 -.722E+01
 
 
 POSITION                                       TOTAL-FORCE (eV/Angst)
 -----------------------------------------------------------------------------------
     -2.37529      4.66089      0.17336        -0.277640      0.533348     -0.987424
      3.96454     -0.36848     14.30869        -0.417685     -0.253601      0.284144
      2.38775      1.98833     14.32492        -0.355911     -0.296696     -0.114472
      2.96011      3.63050      4.59600         0.049447     -0.471707      0.290507
      3.03729      0.82088      9.81717         0.729874     -0.401833     -0.496287
      1.36603      2.41969      9.57160        -0.918002      0.800070     -0.288546
      0.26844      1.74110      2.35821         0.252430     -0.812621      0.247876
     -1.13962      4.09942      2.36631         1.014613     -0.137599     -0.358912
      3.04662      1.69395      2.24898         0.911485      0.071691      2.743993
      1.68903      4.09733      2.37573        -0.163287      0.592959      0.452982
      5.70428     -0.20258      7.16403         0.382970     -1.122416     -0.110275
      4.35753      2.15878      7.19121        -1.368138      1.437284     -1.121886
      2.88432     -0.17443      7.12931         0.049352     -1.317035     -0.499755
      1.49551      2.17342      7.08202        -0.210613     -0.205056     -0.090073
      2.07403      0.20428     12.07822         1.045215     -0.167188      0.888002
      0.64985      2.53895     12.04122         0.316018      0.510947      0.573430
      4.85780      0.19921     12.01932         1.425501      0.247040     -0.589335
      3.52805      2.67861     11.98752         0.158551     -0.803355      0.754650
      0.37861      0.13491      3.26810        -1.077832     -0.857363      0.465782
     -1.15384      2.48798      3.32383        -0.888519      0.449011     -0.241770
      3.10816      0.05681      3.37999        -0.356909      0.662470     -1.048026
      1.71984      2.46635      3.35373         0.328739      0.124974     -0.631764
      1.71666      0.91963      1.26242        -0.663678     -0.735771      0.200005
      0.31031      3.30518      1.43905        -0.816792      0.817770     -0.955943
      4.44863      0.95149      1.40431         0.781683     -1.004742     -0.835088
      2.97101      3.24758      1.25768         0.871608      0.541361      0.796357
      1.48307      0.59407      8.12755         0.188825      0.860939      0.268300
      0.03445      2.98017      8.16713         0.857670      0.181293     -0.590347
      4.33422      0.57117      8.07820        -0.707245     -0.269813      1.082863
      3.00455      2.93813      8.14362        -1.454225      0.340677      0.011914
     -0.02963      1.38075      6.18679         0.995312     -0.298635     -0.396361
     -1.39724      3.93137      6.15951         0.118645     -1.366089      0.348574
      2.91438      1.38878      6.13024         0.519893      0.508205      0.423986
      1.45626      3.68781      6.10561         0.626290      1.483291      0.641944
      0.68671      0.99451     13.20572         0.104155     -0.381444     -1.379090
     -0.59569      3.39150     13.11142        -1.428843      0.700251     -0.561552
      3.58161      1.01940     12.97102        -1.306100     -0.042449      0.442759
      2.09506      3.31701     13.04472         0.004560      1.134948     -0.158389
     -2.14074      4.36350     11.18282        -0.920368     -1.615353     -1.162234
     -0.77115      1.85126     11.02242         0.089141     -0.887273     -0.035148
      0.62404      4.08124     10.93672         0.549357      1.163444      0.790181
      2.03766      1.75610     10.99862         0.960452      0.286066      0.944423
 -----------------------------------------------------------------------------------
    total drift:                                0.036205      0.007214      0.027249


--------------------------------------------------------------------------------------------------------



  FREE ENERGIE OF THE ION-ELECTRON SYSTEM (eV)
  ---------------------------------------------------
  free  energy   TOTEN  =      -233.07572906 eV

  energy  without entropy=     -233.06769008  energy(sigma->0) =     -233.07170957
 


--------------------------------------------------------------------------------------------------------


    POTLOK:  cpu time    0.0622: real time    0.0623


--------------------------------------------------------------------------------------------------------


     LOOP+:  cpu time 3172.3275: real time 3187.6178
    4ORBIT:  cpu time    0.0000: real time    0.0000
 


 total charge     
 
# of ion       s       p       d       tot
------------------------------------------
    1        0.107   0.232   0.000   0.339
    2        0.095   0.202   0.000   0.297
    3        0.105   0.223   0.000   0.328
    4        0.085   0.176   0.000   0.261
    5        0.095   0.200   0.000   0.296
    6        0.112   0.237   0.000   0.349
    7        0.444   0.709   7.387   8.540
    8        0.451   0.696   7.221   8.369
    9        0.472   0.771   7.247   8.491
   10        0.444   0.701   7.418   8.563
   11        0.465   0.751   7.224   8.440
   12        0.483   0.788   7.256   8.528
   13        0.433   0.680   7.367   8.481
   14        0.453   0.709   7.227   8.388
   15        0.440   0.691   7.401   8.532
   16        0.440   0.704   7.379   8.522
   17        0.446   0.697   7.213   8.356
   18        0.424   0.652   7.344   8.419
   19        1.568   3.458   0.000   5.026
   20        1.579   3.361   0.000   4.940
   21        1.587   3.308   0.000   4.895
   22        1.573   3.399   0.000   4.972
   23        1.561   3.469   0.000   5.030
   24        1.566   3.467   0.000   5.034
   25        1.565   3.456   0.000   5.021
   26        1.565   3.465   0.000   5.030
   27        1.571   3.409   0.000   4.980
   28        1.574   3.393   0.000   4.967
   29        1.573   3.440   0.000   5.012
   30        1.575   3.384   0.000   4.959
   31        1.588   3.369   0.000   4.956
   32        1.575   3.390   0.000   4.965
   33        1.585   3.351   0.000   4.936
   34        1.577   3.375   0.000   4.952
   35        1.570   3.370   0.000   4.940
   36        1.562   3.432   0.000   4.995
   37        1.561   3.487   0.000   5.048
   38        1.557   3.481   0.000   5.038
   39        1.576   3.433   0.000   5.009
   40        1.573   3.393   0.000   4.965
   41        1.564   3.397   0.000   4.961
   42        1.555   3.520   0.000   5.075
--------------------------------------------------
tot         43.691  91.828  87.685 223.204
 


 magnetization (x)
 
# of ion       s       p       d       tot
------------------------------------------
    1       -0.000  -0.002   0.000  -0.002
    2        0.000  -0.000   0.000  -0.000
    3       -0.000  -0.004   0.000  -0.004
    4        0.001   0.000   0.000   0.001
    5        0.001   0.000   0.000   0.001
    6        0.000   0.000   0.000   0.000
    7        0.003   0.004  -0.024  -0.016
    8        0.013   0.008   1.476   1.498
    9        0.010   0.016   1.279   1.304
   10        0.005   0.007  -0.013  -0.001
   11        0.013   0.016   1.348   1.376
   12        0.013   0.018   1.268   1.299
   13        0.005   0.007  -0.012  -0.001
   14        0.015   0.018   1.565   1.599
   15        0.003   0.004  -0.052  -0.045
   16        0.001   0.002  -0.040  -0.036
   17        0.013   0.011   1.517   1.541
   18        0.001   0.002  -0.037  -0.033
   19        0.000  -0.047   0.000  -0.047
   20       -0.000  -0.174   0.000  -0.174
   21        0.000  -0.240   0.000  -0.240
   22        0.000  -0.055   0.000  -0.054
   23        0.001  -0.057   0.000  -0.056
   24        0.000  -0.048   0.000  -0.048
   25        0.001  -0.007   0.000  -0.007
   26        0.001  -0.050   0.000  -0.049
   27        0.001  -0.099   0.000  -0.099
   28        0.001  -0.091   0.000  -0.090
   29        0.001  -0.073   0.000  -0.072
   30        0.001  -0.132   0.000  -0.131
   31        0.002  -0.156   0.000  -0.154
   32        0.000  -0.116   0.000  -0.116
   33        0.001  -0.161   0.000  -0.160
   34        0.000  -0.134   0.000  -0.134
   35       -0.000  -0.113   0.000  -0.113
   36       -0.001  -0.015   0.000  -0.016
   37        0.001  -0.023   0.000  -0.023
   38        0.000  -0.049   0.000  -0.049
   39        0.000  -0.076   0.000  -0.076
   40       -0.000  -0.144   0.000  -0.145
   41       -0.000  -0.107   0.000  -0.108
   42       -0.000  -0.006   0.000  -0.006
--------------------------------------------------
tot          0.109  -2.068   8.276   6.317
 

 total amount of memory used by VASP MPI-rank0   158234. kBytes
=======================================================================

   base      :      30000. kBytes
   nonlr-proj:       4336. kBytes
   fftplans  :       1687. kBytes
   grid      :       4644. kBytes
   one-center:        342. kBytes
   wavefun   :     117225. kBytes
 
  
  
 General timing and accounting informations for this job:
 ========================================================
  
                  Total CPU time used (sec):     3197.919
                            User time (sec):     2902.303
                          System time (sec):      295.616
                         Elapsed time (sec):     3213.890
  
                   Maximum memory used (kb):      852208.
                   Average memory used (kb):           0.
  
                          Minor page faults:        70891
                          Major page faults:           91
                 Voluntary context switches:          647
