 running on   64 total cores
 distrk:  each k-point on   64 cores,    1 groups
 distr:  one band on    4 cores,   16 groups
 using from now: INCAR     
 vasp.5.4.4.18Apr17-6-g9f103f2a35 (build Nov 22 2021 14:44:17) complex          
  
 POSCAR found type information on POSCAR  Li Co O 
 POSCAR found :  3 types and      42 ions
 scaLAPACK will be used
 LDA part: xc-table for Pade appr. of Perdew
 generate k-points for:    6    6    2
 POSCAR, INCAR and KPOINTS ok, starting setup
 FFT: planning ...
 WAVECAR not read
 entering main loop
       N       E                     dE             d eps       ncg     rms          ort
DAV:   1     0.348154487036E+04    0.34815E+04   -0.13965E+05  5760   0.218E+03
DAV:   2     0.404785329982E+03   -0.30768E+04   -0.28346E+04  5760   0.532E+02
DAV:   3    -0.221946725766E+03   -0.62673E+03   -0.57318E+03  5760   0.253E+02
DAV:   4    -0.271745141161E+03   -0.49798E+02   -0.48708E+02  5760   0.735E+01
DAV:   5    -0.273464418376E+03   -0.17193E+01   -0.17161E+01  5760   0.136E+01
 gam= 0.000 g(H,U,f)=  0.178E+04 0.891E+03 0.866E+03 ort(H,U,f) = 0.000E+00 0.000E+00 0.000E+00
SDA:   6     0.988796679384E+02    0.37234E+03   -0.17161E+01  5760   0.354E+04 0.000E+00
 gam= 0.000 trial= 0.400  step= 0.060 mean= 0.400
 gam= 1.963 g(H,U,f)=  0.113E+04 0.244E+04 0.338E+04 ort(H,U,f) = 0.122E+04-0.557E+03-0.170E+04
CGA:   7     0.284087741942E+02   -0.70471E+02   -0.10591E+03  5760   0.695E+04-0.103E+04
 gam= 1.963 trial= 0.383  step= 0.062 mean= 0.383
 gam= 0.000 g(H,U,f)=  0.145E+04 0.627E+04 0.518E+04 ort(H,U,f) = 0.328E+04 0.142E+04-0.500E+03
CGA:   8     0.606230361905E+02    0.32214E+02   -0.15363E+03  5760   0.129E+05 0.420E+04
 gam= 0.000 trial= 0.367  step= 0.108 mean= 0.367
 gam= 0.000 g(H,U,f)=  0.160E+04 0.256E+05 0.230E+05 ort(H,U,f) =-0.146E+03-0.104E+05-0.910E+04
CGA:   9     0.244786154895E+03    0.18416E+03   -0.70015E+03  5760   0.503E+05-0.196E+05
 gam= 0.000 trial= 0.354  step= 0.118 mean= 0.354
 gam= 0.000 g(H,U,f)=  0.802E+04 0.461E+05 0.167E+06 ort(H,U,f) =-0.331E+04-0.139E+05-0.531E+05
CGA:  10     0.321634424414E+04    0.29716E+04   -0.29648E+04  5760   0.222E+06-0.703E+05
 gam= 0.000 trial= 0.342  step= 0.149 mean= 0.342
 gam= 1.313 g(H,U,f)=  0.235E+05 0.214E+06 0.532E+05 ort(H,U,f) =-0.921E+04-0.734E+05-0.175E+05
CGA:  11     0.926903561965E+04    0.60527E+04   -0.16552E+05  5760   0.291E+06-0.100E+06
 gam= 1.313 trial= 0.333  step= 0.156 mean= 0.333
 gam= 0.358 g(H,U,f)=  0.542E+05 0.473E+05 0.273E+04 ort(H,U,f) =-0.499E+04-0.133E+05-0.867E+03
CGA:  12     0.106974791449E+05    0.14284E+04   -0.12427E+05  5760   0.104E+06-0.192E+05
 gam= 0.358 trial= 0.324  step= 0.181 mean= 0.324
 gam= 1.904 g(H,U,f)=  0.816E+05 0.107E+06 0.963E+04 ort(H,U,f) =-0.752E+04 0.151E+05 0.236E+04
CGA:  13     0.659251152766E+04   -0.41050E+04   -0.87881E+04  5760   0.198E+06 0.995E+04
 gam= 1.904 trial= 0.317  step= 0.143 mean= 0.317
 gam= 1.088 g(H,U,f)=  0.191E+06 0.248E+05 0.150E+03 ort(H,U,f) =-0.115E+05-0.390E+04 0.260E+02
CGA:  14     0.100022727386E+05    0.34098E+04   -0.15545E+05  5760   0.216E+06-0.154E+05
 gam= 1.088 trial= 0.308  step= 0.169 mean= 0.308
 gam= 1.118 g(H,U,f)=  0.204E+06 0.350E+05 0.169E+04 ort(H,U,f) = 0.401E+05 0.111E+05 0.930E+03
CGA:  15     0.926966842591E+04   -0.73260E+03   -0.16792E+05  5760   0.241E+06 0.521E+05
 gam= 1.118 trial= 0.301  step= 0.152 mean= 0.301
 gam= 0.330 g(H,U,f)=  0.732E+05 0.625E+04 0.466E+02 ort(H,U,f) = 0.848E+03 0.104E+04 0.143E+02
CGA:  16     0.499751881679E+04   -0.42721E+04   -0.22760E+05  5760   0.795E+05 0.191E+04
 gam= 0.330 trial= 0.294  step= 0.148 mean= 0.294
 gam= 0.356 g(H,U,f)=  0.251E+05 0.316E+04 0.614E+02 ort(H,U,f) =-0.165E+05-0.120E+04-0.217E+02
CGA:  17     0.340238661146E+04   -0.15951E+04   -0.59132E+04  5760   0.283E+05-0.177E+05
 gam= 0.356 trial= 0.286  step= 0.112 mean= 0.286
 gam= 0.219 g(H,U,f)=  0.582E+04 0.388E+03 0.339E+01 ort(H,U,f) = 0.353E+03-0.159E+03-0.121E+02
CGA:  18     0.257459717193E+04   -0.82779E+03   -0.12312E+04  5760   0.621E+04 0.182E+03
 gam= 0.219 trial= 0.278  step= 0.138 mean= 0.278
 gam= 0.943 g(H,U,f)=  0.538E+04 0.475E+03 0.531E+01 ort(H,U,f) =-0.148E+03 0.205E+02 0.555E+00
CGA:  19     0.219367335302E+04   -0.38092E+03   -0.43247E+03  5760   0.586E+04-0.127E+03
 gam= 0.943 trial= 0.271  step= 0.253 mean= 0.271
 gam= 0.778 g(H,U,f)=  0.371E+04 0.840E+03 0.615E+01 ort(H,U,f) = 0.432E+03 0.465E+03 0.255E+01
CGA:  20     0.148337566948E+04   -0.71030E+03   -0.72669E+03  5760   0.455E+04 0.900E+03
 gam= 0.778 trial= 0.270  step= 0.143 mean= 0.270
 gam= 0.531 g(H,U,f)=  0.182E+04 0.594E+03 0.365E+01 ort(H,U,f) = 0.311E+03-0.252E+03-0.169E+01
CGA:  21     0.114249305538E+04   -0.34088E+03   -0.37465E+03  5760   0.242E+04 0.572E+02
 gam= 0.531 trial= 0.263  step= 0.337 mean= 0.263
 gam= 1.112 g(H,U,f)=  0.195E+04 0.730E+03 0.751E+01 ort(H,U,f) =-0.554E+02 0.841E+02-0.320E+01
CGA:  22     0.729396928990E+03   -0.41310E+03   -0.41229E+03  5760   0.269E+04 0.255E+02
 gam= 1.112 trial= 0.267  step= 0.256 mean= 0.267
 gam= 0.637 g(H,U,f)=  0.105E+04 0.664E+03 0.374E+01 ort(H,U,f) =-0.511E+03 0.703E+03 0.464E+00
CGA:  23     0.383495061536E+03   -0.34590E+03   -0.34758E+03  5760   0.171E+04 0.193E+03
 gam= 0.637 trial= 0.266  step= 0.170 mean= 0.266
 gam= 0.430 g(H,U,f)=  0.495E+03 0.241E+03 0.183E+01 ort(H,U,f) = 0.140E+03-0.230E+03-0.474E+01
CGA:  24     0.217550925936E+03   -0.16594E+03   -0.15607E+03  5760   0.738E+03-0.955E+02
 gam= 0.430 trial= 0.262  step= 0.200 mean= 0.262
 gam= 0.608 g(H,U,f)=  0.316E+03 0.131E+03 0.117E+01 ort(H,U,f) = 0.196E+03-0.162E+03-0.202E+01
CGA:  25     0.152557466940E+03   -0.64993E+02   -0.69642E+02  5760   0.449E+03 0.323E+02
 gam= 0.608 trial= 0.259  step= 0.250 mean= 0.259
 gam= 1.113 g(H,U,f)=  0.258E+03 0.239E+03 0.277E+01 ort(H,U,f) = 0.207E+03-0.197E+03-0.366E+01
CGA:  26     0.939981333504E+02   -0.58559E+02   -0.58586E+02  5760   0.499E+03 0.670E+01
 gam= 1.113 trial= 0.258  step= 0.230 mean= 0.258
 gam= 0.568 g(H,U,f)=  0.147E+03 0.135E+03 0.960E+00 ort(H,U,f) = 0.143E+03-0.120E+03-0.143E+01
CGA:  27     0.364116433234E+02   -0.57586E+02   -0.58338E+02  5760   0.283E+03 0.220E+02
 gam= 0.568 trial= 0.257  step= 0.240 mean= 0.257
 gam= 0.816 g(H,U,f)=  0.126E+03 0.105E+03 0.962E+00 ort(H,U,f) = 0.530E+02-0.480E+02 0.462E+00
CGA:  28     0.814492804311E+00   -0.35597E+02   -0.35591E+02  5760   0.231E+03 0.544E+01
 gam= 0.816 trial= 0.256  step= 0.268 mean= 0.256
 gam= 0.936 g(H,U,f)=  0.882E+02 0.126E+03 0.245E+01 ort(H,U,f) = 0.103E+00 0.225E+00-0.563E+00
CGA:  29    -0.307064474637E+02   -0.31521E+02   -0.31590E+02  5760   0.217E+03-0.234E+00
 gam= 0.936 trial= 0.257  step= 0.171 mean= 0.257
 gam= 0.845 g(H,U,f)=  0.924E+02 0.893E+02 0.132E+01 ort(H,U,f) =-0.197E+02 0.270E+02 0.150E+01
CGA:  30    -0.497862765169E+02   -0.19080E+02   -0.18485E+02  5760   0.183E+03 0.886E+01
 gam= 0.845 trial= 0.252  step= 0.365 mean= 0.252
 gam= 0.000 g(H,U,f)=  0.173E+03 0.883E+03 0.154E+02 ort(H,U,f) =-0.393E+02-0.137E+03-0.196E+01
CGA:  31    -0.736634911983E+02   -0.23877E+02   -0.34809E+02  5760   0.107E+04-0.178E+03
 gam= 0.000 trial= 0.258  step= 0.055 mean= 0.258
 gam= 0.103 g(H,U,f)=  0.639E+02 0.461E+02 0.597E+00 ort(H,U,f) = 0.626E+02-0.131E+02-0.553E+00
CGA:  32    -0.104759710700E+03   -0.31096E+02   -0.29431E+02  5760   0.111E+03 0.489E+02
 gam= 0.103 trial= 0.248  step= 0.567 mean= 0.248
 gam= 4.587 g(H,U,f)=  0.733E+02 0.426E+03 0.762E+01 ort(H,U,f) = 0.795E+01-0.246E+02-0.784E+00
CGA:  33    -0.134958941536E+03   -0.30199E+02   -0.32799E+02  5760   0.507E+03-0.175E+02
 gam= 4.587 trial= 0.264  step= 0.097 mean= 0.264
 gam= 0.559 g(H,U,f)=  0.889E+02 0.193E+03 0.201E+01 ort(H,U,f) =-0.994E+02 0.748E+02 0.236E+01
CGA:  34    -0.154126617060E+03   -0.19168E+02   -0.20792E+02  5760   0.283E+03-0.222E+02
 gam= 0.559 trial= 0.255  step= 0.133 mean= 0.255
 gam= 1.094 g(H,U,f)=  0.685E+02 0.235E+03 0.655E+01 ort(H,U,f) =-0.600E+02 0.764E+02-0.198E+01
CGA:  35    -0.173685217573E+03   -0.19559E+02   -0.18066E+02  5760   0.310E+03 0.144E+02
 gam= 1.094 trial= 0.249  step= 0.088 mean= 0.249
 gam= 0.513 g(H,U,f)=  0.511E+02 0.103E+03 0.448E+01 ort(H,U,f) =-0.766E+02 0.761E+02-0.231E+01
CGA:  36    -0.188664829196E+03   -0.14980E+02   -0.14341E+02  5760   0.159E+03-0.276E+01
 gam= 0.513 trial= 0.241  step= 0.058 mean= 0.241
 gam= 0.555 g(H,U,f)=  0.428E+02 0.431E+02 0.242E+01 ort(H,U,f) =-0.875E+01 0.280E+02-0.220E+01
CGA:  37    -0.194039674907E+03   -0.53748E+01   -0.46070E+01  5760   0.883E+02 0.171E+02
 gam= 0.555 trial= 0.232  step= 0.111 mean= 0.232
 gam= 0.643 g(H,U,f)=  0.349E+02 0.211E+02 0.802E+00 ort(H,U,f) = 0.145E+02-0.822E+01 0.246E+00
CGA:  38    -0.199919363685E+03   -0.58797E+01   -0.54437E+01  5760   0.568E+02 0.652E+01
 gam= 0.643 trial= 0.226  step= 0.115 mean= 0.226
 gam= 2.428 g(H,U,f)=  0.330E+02 0.953E+02 0.961E+01 ort(H,U,f) = 0.294E+02-0.316E+02-0.389E+01
CGA:  39    -0.203025309753E+03   -0.31059E+01   -0.35046E+01  5760   0.138E+03-0.609E+01
 gam= 2.428 trial= 0.221  step= 0.091 mean= 0.221
 gam= 0.690 g(H,U,f)=  0.236E+02 0.668E+02 0.480E+01 ort(H,U,f) = 0.301E+02-0.298E+02 0.347E+01
CGA:  40    -0.208739041690E+03   -0.57137E+01   -0.55892E+01  5760   0.952E+02 0.372E+01
 gam= 0.690 trial= 0.214  step= 0.063 mean= 0.214
 gam= 0.517 g(H,U,f)=  0.148E+02 0.330E+02 0.141E+01 ort(H,U,f) = 0.947E+01-0.174E+02 0.163E+01
CGA:  41    -0.211394554780E+03   -0.26555E+01   -0.31010E+01  5760   0.492E+02-0.631E+01
 gam= 0.517 trial= 0.206  step= 0.084 mean= 0.206
 gam= 0.567 g(H,U,f)=  0.929E+01 0.179E+02 0.707E+00 ort(H,U,f) = 0.222E+01-0.307E+01-0.304E+00
CGA:  42    -0.213198529194E+03   -0.18040E+01   -0.19184E+01  5760   0.279E+02-0.115E+01
 gam= 0.567 trial= 0.200  step= 0.076 mean= 0.200
 gam= 0.524 g(H,U,f)=  0.689E+01 0.735E+01 0.353E+00 ort(H,U,f) = 0.300E+01-0.507E+01 0.102E+00
CGA:  43    -0.214109604154E+03   -0.91107E+00   -0.10348E+01  5760   0.146E+02-0.197E+01
 gam= 0.524 trial= 0.194  step= 0.143 mean= 0.194
 gam= 1.097 g(H,U,f)=  0.514E+01 0.102E+02 0.663E+00 ort(H,U,f) = 0.219E+01-0.196E+01 0.270E+00
CGA:  44    -0.215057415023E+03   -0.94781E+00   -0.96651E+00  5760   0.160E+02 0.504E+00
 gam= 1.097 trial= 0.192  step= 0.098 mean= 0.192
 gam= 0.899 g(H,U,f)=  0.510E+01 0.895E+01 0.350E+00 ort(H,U,f) = 0.180E+01-0.143E+01-0.381E+00
CGA:  45    -0.215851835409E+03   -0.79442E+00   -0.81425E+00  5760   0.144E+02-0.552E-02
 gam= 0.899 trial= 0.187  step= 0.169 mean= 0.187
 gam= 1.157 g(H,U,f)=  0.529E+01 0.109E+02 0.512E+00 ort(H,U,f) =-0.199E+01 0.198E+01-0.358E-02
CGA:  46    -0.217069112015E+03   -0.12173E+01   -0.12147E+01  5760   0.167E+02-0.197E-01
 gam= 1.157 trial= 0.186  step= 0.104 mean= 0.186
 gam= 0.758 g(H,U,f)=  0.522E+01 0.719E+01 0.225E+00 ort(H,U,f) =-0.458E+01 0.458E+01-0.494E-01
CGA:  47    -0.217903387660E+03   -0.83428E+00   -0.86908E+00  5760   0.126E+02-0.492E-01
 gam= 0.758 trial= 0.182  step= 0.108 mean= 0.182
 gam= 0.698 g(H,U,f)=  0.410E+01 0.434E+01 0.374E+00 ort(H,U,f) =-0.309E+01 0.330E+01-0.224E-01
CGA:  48    -0.218592752326E+03   -0.68936E+00   -0.68012E+00  5760   0.882E+01 0.191E+00
 gam= 0.698 trial= 0.178  step= 0.113 mean= 0.178
 gam= 0.729 g(H,U,f)=  0.360E+01 0.276E+01 0.597E-01 ort(H,U,f) =-0.113E+01 0.126E+01-0.287E-03
CGA:  49    -0.219085226465E+03   -0.49247E+00   -0.50410E+00  5760   0.642E+01 0.138E+00
 gam= 0.729 trial= 0.175  step= 0.170 mean= 0.175
 gam= 1.148 g(H,U,f)=  0.317E+01 0.375E+01 0.456E+00 ort(H,U,f) =-0.187E+00 0.493E+00-0.186E+00
CGA:  50    -0.219640950265E+03   -0.55572E+00   -0.55617E+00  5760   0.738E+01 0.120E+00
 gam= 1.148 trial= 0.175  step= 0.113 mean= 0.175
 gam= 0.822 g(H,U,f)=  0.275E+01 0.299E+01 0.320E+00 ort(H,U,f) =-0.123E+00 0.446E+00-0.241E+00
CGA:  51    -0.220064305921E+03   -0.42336E+00   -0.42290E+00  5760   0.606E+01 0.816E-01
 gam= 0.822 trial= 0.172  step= 0.133 mean= 0.172
 gam= 0.656 g(H,U,f)=  0.206E+01 0.186E+01 0.536E-01 ort(H,U,f) =-0.259E+00 0.367E+00 0.200E-01
CGA:  52    -0.220468075224E+03   -0.40377E+00   -0.40688E+00  5760   0.398E+01 0.128E+00
 gam= 0.656 trial= 0.170  step= 0.132 mean= 0.170
 gam= 0.923 g(H,U,f)=  0.158E+01 0.183E+01 0.266E+00 ort(H,U,f) = 0.191E+00-0.173E-01-0.791E-01
CGA:  53    -0.220734962874E+03   -0.26689E+00   -0.26878E+00  5760   0.367E+01 0.949E-01
 gam= 0.923 trial= 0.168  step= 0.129 mean= 0.168
 gam= 0.747 g(H,U,f)=  0.134E+01 0.128E+01 0.116E+00 ort(H,U,f) = 0.104E+00 0.767E-01-0.668E-01
CGA:  54    -0.220972901083E+03   -0.23794E+00   -0.24250E+00  5760   0.274E+01 0.114E+00
 gam= 0.747 trial= 0.166  step= 0.169 mean= 0.166
 gam= 0.933 g(H,U,f)=  0.111E+01 0.135E+01 0.963E-01 ort(H,U,f) =-0.134E-01 0.211E+00-0.318E-01
CGA:  55    -0.221212427308E+03   -0.23953E+00   -0.23910E+00  5760   0.256E+01 0.166E+00
 gam= 0.933 trial= 0.166  step= 0.177 mean= 0.166
 gam= 1.142 g(H,U,f)=  0.940E+00 0.164E+01 0.333E+00 ort(H,U,f) =-0.409E+00 0.575E+00-0.102E+00
CGA:  56    -0.221452801362E+03   -0.24037E+00   -0.24001E+00  5760   0.292E+01 0.639E-01
 gam= 1.142 trial= 0.167  step= 0.126 mean= 0.167
 gam= 0.731 g(H,U,f)=  0.880E+00 0.116E+01 0.959E-01 ort(H,U,f) =-0.938E+00 0.911E+00 0.769E-01
CGA:  57    -0.221639693221E+03   -0.18689E+00   -0.18871E+00  5760   0.213E+01 0.506E-01
 gam= 0.731 trial= 0.165  step= 0.173 mean= 0.165
 gam= 1.034 g(H,U,f)=  0.966E+00 0.115E+01 0.930E-01 ort(H,U,f) =-0.690E+00 0.682E+00 0.780E-01
CGA:  58    -0.221828176999E+03   -0.18848E+00   -0.18804E+00  5760   0.220E+01 0.698E-01
 gam= 1.034 trial= 0.165  step= 0.177 mean= 0.165
 gam= 0.964 g(H,U,f)=  0.100E+01 0.104E+01 0.798E-01 ort(H,U,f) =-0.602E+00 0.786E+00-0.552E-01
CGA:  59    -0.222031144451E+03   -0.20297E+00   -0.20169E+00  5760   0.213E+01 0.129E+00
 gam= 0.964 trial= 0.166  step= 0.196 mean= 0.166
 gam= 0.912 g(H,U,f)=  0.974E+00 0.914E+00 0.500E-01 ort(H,U,f) =-0.540E+00 0.618E+00-0.905E-02
CGA:  60    -0.222252724971E+03   -0.22158E+00   -0.22006E+00  5760   0.194E+01 0.693E-01
 gam= 0.912 trial= 0.167  step= 0.221 mean= 0.167
 gam= 1.207 g(H,U,f)=  0.979E+00 0.116E+01 0.203E+00 ort(H,U,f) =-0.413E+00 0.408E+00-0.152E+00
CGA:  61    -0.222471304997E+03   -0.21858E+00   -0.22068E+00  5760   0.234E+01-0.157E+00
 gam= 1.207 trial= 0.170  step= 0.158 mean= 0.170
 gam= 0.000 g(H,U,f)=  0.950E+00 0.819E+00 0.166E+00 ort(H,U,f) =-0.424E+00 0.329E+00-0.155E+00
SDA:  62    -0.222642589124E+03   -0.17128E+00   -0.17022E+00  5760   0.193E+01-0.250E+00
 gam= 0.000 trial= 0.169  step= 0.288 mean= 0.169
 gam= 0.495 g(H,U,f)=  0.363E+00 0.425E+00 0.170E+00 ort(H,U,f) = 0.355E+00 0.887E-01-0.120E+00
CGA:  63    -0.222952489361E+03   -0.30990E+00   -0.27855E+00  5760   0.958E+00 0.323E+00
 gam= 0.495 trial= 0.175  step= 0.321 mean= 0.175
 gam= 2.907 g(H,U,f)=  0.359E+00 0.123E+01 0.120E+01 ort(H,U,f) = 0.932E-01-0.225E-01-0.345E+00
CGA:  64    -0.223122025977E+03   -0.16954E+00   -0.17921E+00  5760   0.278E+01-0.274E+00
 gam= 2.907 trial= 0.182  step= 0.125 mean= 0.182
 gam= 1.204 g(H,U,f)=  0.542E+00 0.146E+01 0.135E+01 ort(H,U,f) =-0.541E+00 0.639E+00 0.465E-01
CGA:  65    -0.223240863623E+03   -0.11884E+00   -0.12428E+00  5760   0.335E+01 0.144E+00
 gam= 1.204 trial= 0.180  step= 0.070 mean= 0.180
 gam= 0.261 g(H,U,f)=  0.530E+00 0.326E+00 0.210E-01 ort(H,U,f) =-0.105E+01 0.751E+00-0.682E-01
CGA:  66    -0.223327261571E+03   -0.86398E-01   -0.12368E+00  5760   0.876E+00-0.372E+00
 gam= 0.261 trial= 0.174  step= 0.216 mean= 0.174
 gam= 1.289 g(H,U,f)=  0.375E+00 0.348E+00 0.407E+00 ort(H,U,f) =-0.326E-01 0.147E+00-0.110E+00
CGA:  67    -0.223412908186E+03   -0.85647E-01   -0.84138E-01  5760   0.113E+01 0.402E-02
 gam= 1.289 trial= 0.176  step= 0.116 mean= 0.176
 gam= 0.571 g(H,U,f)=  0.274E+00 0.276E+00 0.948E-01 ort(H,U,f) =-0.297E-01 0.123E+00-0.568E-01
CGA:  68    -0.223480449961E+03   -0.67542E-01   -0.66064E-01  5760   0.645E+00 0.366E-01
 gam= 0.571 trial= 0.173  step= 0.167 mean= 0.173
 gam= 1.191 g(H,U,f)=  0.185E+00 0.284E+00 0.298E+00 ort(H,U,f) = 0.156E-01 0.945E-01-0.109E+00
CGA:  69    -0.223535705126E+03   -0.55255E-01   -0.55525E-01  5760   0.768E+00 0.859E-03
 gam= 1.191 trial= 0.173  step= 0.118 mean= 0.173
 gam= 0.442 g(H,U,f)=  0.171E+00 0.145E+00 0.228E-01 ort(H,U,f) =-0.769E-01 0.118E+00-0.335E-01
CGA:  70    -0.223579017543E+03   -0.43312E-01   -0.45252E-01  5760   0.339E+00 0.723E-02
 gam= 0.442 trial= 0.170  step= 0.293 mean= 0.170
 gam= 1.327 g(H,U,f)=  0.156E+00 0.206E+00 0.878E-01 ort(H,U,f) =-0.517E-01-0.199E-01-0.657E-01
CGA:  71    -0.223621800797E+03   -0.42783E-01   -0.50125E-01  5760   0.450E+00-0.137E+00
 gam= 1.327 trial= 0.176  step= 0.196 mean= 0.176
 gam= 1.397 g(H,U,f)=  0.193E+00 0.247E+00 0.188E+00 ort(H,U,f) =-0.780E-01 0.736E-01-0.687E-01
CGA:  72    -0.223647848895E+03   -0.26048E-01   -0.26269E-01  5760   0.629E+00-0.732E-01
 gam= 1.397 trial= 0.177  step= 0.143 mean= 0.177
 gam= 0.511 g(H,U,f)=  0.192E+00 0.122E+00 0.830E-02 ort(H,U,f) =-0.145E+00 0.167E+00-0.674E-02
CGA:  73    -0.223684411487E+03   -0.36563E-01   -0.37653E-01  5760   0.322E+00 0.154E-01
 gam= 0.511 trial= 0.176  step= 0.308 mean= 0.176
 gam= 0.990 g(H,U,f)=  0.176E+00 0.115E+00 0.276E-01 ort(H,U,f) =-0.629E-01 0.886E-01-0.805E-03
CGA:  74    -0.223737374513E+03   -0.52963E-01   -0.50672E-01  5760   0.318E+00 0.249E-01
 gam= 0.990 trial= 0.182  step= 0.338 mean= 0.182
 gam= 1.137 g(H,U,f)=  0.178E+00 0.170E+00 0.136E-01 ort(H,U,f) =-0.586E-01 0.117E+00-0.194E-01
CGA:  75    -0.223799550529E+03   -0.62176E-01   -0.58025E-01  5760   0.362E+00 0.390E-01
 gam= 1.137 trial= 0.190  step= 0.317 mean= 0.190
 gam= 1.410 g(H,U,f)=  0.173E+00 0.131E+00 0.206E+00 ort(H,U,f) =-0.168E+00 0.104E+00 0.271E-01
CGA:  76    -0.223861683867E+03   -0.62133E-01   -0.64432E-01  5760   0.511E+00-0.375E-01
 gam= 1.410 trial= 0.196  step= 0.105 mean= 0.196
 gam= 0.910 g(H,U,f)=  0.212E+00 0.128E+00 0.125E+00 ort(H,U,f) =-0.188E+00 0.143E+00 0.126E+00
CGA:  77    -0.223881197590E+03   -0.19514E-01   -0.24079E-01  5760   0.465E+00 0.814E-01
 gam= 0.910 trial= 0.192  step= 0.109 mean= 0.192
 gam= 0.792 g(H,U,f)=  0.220E+00 0.135E+00 0.135E-01 ort(H,U,f) =-0.439E-01 0.837E-01 0.230E-01
CGA:  78    -0.223905469145E+03   -0.24272E-01   -0.29419E-01  5760   0.368E+00 0.628E-01
 gam= 0.792 trial= 0.188  step= 0.126 mean= 0.188
 gam= 0.929 g(H,U,f)=  0.179E+00 0.162E+00 0.623E-03 ort(H,U,f) = 0.991E-01 0.200E-01-0.188E-02
CGA:  79    -0.223935411429E+03   -0.29942E-01   -0.26402E-01  5760   0.342E+00 0.117E+00
 gam= 0.929 trial= 0.185  step= 0.093 mean= 0.185
 gam= 0.000 g(H,U,f)=  0.132E+00 0.183E+00 0.615E-03 ort(H,U,f) = 0.171E+00 0.456E-01-0.370E-02
CGA:  80    -0.223957202582E+03   -0.21791E-01   -0.21037E-01  5760   0.316E+00 0.213E+00
 gam= 0.000 trial= 0.180  step= 0.272 mean= 0.180
 gam= 0.441 g(H,U,f)=  0.639E-01 0.751E-01 0.133E-03 ort(H,U,f) = 0.237E-01-0.523E-01-0.951E-04
CGA:  81    -0.223995994747E+03   -0.38792E-01   -0.42848E-01  5760   0.139E+00-0.287E-01
 gam= 0.441 trial= 0.185  step= 0.473 mean= 0.185
 gam= 0.434 g(H,U,f)=  0.247E-01 0.356E-01 0.240E-04 ort(H,U,f) =-0.105E-01 0.629E-02 0.140E-04
CGA:  82    -0.224025307908E+03   -0.29313E-01   -0.29944E-01  5760   0.604E-01-0.424E-02
 gam= 0.434 trial= 0.199  step= 0.644 mean= 0.199
 gam= 0.788 g(H,U,f)=  0.223E-01 0.253E-01 0.106E-04 ort(H,U,f) =-0.134E-01 0.657E-02 0.204E-04
CGA:  83    -0.224042439285E+03   -0.17131E-01   -0.18864E-01  5760   0.476E-01-0.685E-02
 gam= 0.788 trial= 0.221  step= 0.576 mean= 0.221
 gam= 0.580 g(H,U,f)=  0.147E-01 0.129E-01 0.182E-04 ort(H,U,f) =-0.779E-02 0.104E-01 0.285E-04
CGA:  84    -0.224055101356E+03   -0.12662E-01   -0.12161E-01  5760   0.276E-01 0.266E-02
 gam= 0.580 trial= 0.239  step= 0.683 mean= 0.239
 gam= 0.853 g(H,U,f)=  0.110E-01 0.124E-01 0.727E-04 ort(H,U,f) =-0.530E-02 0.572E-02 0.565E-04
CGA:  85    -0.224065105941E+03   -0.10005E-01   -0.99519E-02  5760   0.235E-01 0.477E-03
 gam= 0.853 trial= 0.261  step= 0.454 mean= 0.261
 gam= 0.821 g(H,U,f)=  0.883E-02 0.105E-01 0.445E-04 ort(H,U,f) =-0.391E-02 0.436E-02 0.988E-04
CGA:  86    -0.224070567960E+03   -0.54620E-02   -0.54334E-02  5760   0.193E-01 0.547E-03
 gam= 0.821 trial= 0.271  step= 1.247 mean= 0.271
 gam= 0.000 g(H,U,f)=  0.623E-01 0.173E+00 0.261E-04 ort(H,U,f) =-0.138E-01-0.148E-01 0.511E-04
CGA:  87    -0.224057070244E+03    0.13498E-01   -0.12339E-01  5760   0.235E+00-0.286E-01
 gam= 0.000 trial= 0.320  step= 0.159 mean= 0.320
 gam= 0.120 g(H,U,f)=  0.126E-01 0.155E-01 0.345E-04 ort(H,U,f) = 0.637E-02-0.170E-01 0.445E-04
CGA:  88    -0.224081062176E+03   -0.23992E-01   -0.18681E-01  5760   0.281E-01-0.106E-01
 gam= 0.120 trial= 0.312  step= 0.337 mean= 0.312
 gam= 0.265 g(H,U,f)=  0.238E-02 0.503E-02 0.464E-04 ort(H,U,f) =-0.159E-03-0.160E-03 0.121E-04
CGA:  89    -0.224085575990E+03   -0.45138E-02   -0.45230E-02  5760   0.745E-02-0.307E-03
 gam= 0.265 trial= 0.313  step= 0.930 mean= 0.313
 gam= 1.130 g(H,U,f)=  0.316E-02 0.521E-02 0.422E-04 ort(H,U,f) =-0.165E-02 0.184E-02 0.456E-04
CGA:  90    -0.224089063752E+03   -0.34878E-02   -0.34263E-02  5760   0.842E-02 0.241E-03
 gam= 1.130 trial= 0.344  step= 0.628 mean= 0.344
 gam= 0.894 g(H,U,f)=  0.350E-02 0.402E-02 0.552E-05 ort(H,U,f) =-0.254E-02 0.243E-02 0.221E-04
CGA:  91    -0.224091785446E+03   -0.27217E-02   -0.27300E-02  5760   0.753E-02-0.856E-04
 gam= 0.894 trial= 0.358  step= 0.887 mean= 0.358
 gam= 1.659 g(H,U,f)=  0.498E-02 0.751E-02 0.258E-05 ort(H,U,f) =-0.116E-02 0.150E-02 0.874E-05
CGA:  92    -0.224095000702E+03   -0.32153E-02   -0.33051E-02  5760   0.125E-01 0.348E-03
 gam= 1.659 trial= 0.384  step= 0.437 mean= 0.384
 gam= 0.743 g(H,U,f)=  0.334E-02 0.593E-02 0.704E-05 ort(H,U,f) =-0.147E-02 0.129E-02 0.172E-04
CGA:  93    -0.224097822357E+03   -0.28217E-02   -0.28545E-02  5760   0.928E-02-0.160E-03
 gam= 0.743 trial= 0.387  step= 0.675 mean= 0.387
 gam= 1.243 g(H,U,f)=  0.412E-02 0.740E-02 0.631E-05 ort(H,U,f) =-0.214E-02 0.655E-03 0.148E-04
CGA:  94    -0.224100553161E+03   -0.27308E-02   -0.30922E-02  5760   0.115E-01-0.147E-02
 gam= 1.243 trial= 0.401  step= 0.634 mean= 0.401
 gam= 0.929 g(H,U,f)=  0.468E-02 0.603E-02 0.863E-06 ort(H,U,f) =-0.295E-02 0.329E-02-0.135E-04
CGA:  95    -0.224103669100E+03   -0.31159E-02   -0.30749E-02  5760   0.107E-01 0.324E-03
 gam= 0.929 trial= 0.413  step= 0.908 mean= 0.413
 gam= 1.837 g(H,U,f)=  0.819E-02 0.115E-01 0.109E-04 ort(H,U,f) =-0.267E-02 0.257E-02-0.572E-06
CGA:  96    -0.224108524316E+03   -0.48552E-02   -0.50005E-02  5760   0.197E-01-0.103E-03
 gam= 1.837 trial= 0.438  step= 0.654 mean= 0.438
 gam= 0.750 g(H,U,f)=  0.709E-02 0.765E-02 0.110E-04 ort(H,U,f) =-0.424E-02 0.526E-02-0.145E-04
CGA:  97    -0.224114967315E+03   -0.64430E-02   -0.63695E-02  5760   0.148E-01 0.100E-02
 gam= 0.750 trial= 0.449  step= 0.658 mean= 0.449
 gam= 0.682 g(H,U,f)=  0.489E-02 0.517E-02 0.491E-05 ort(H,U,f) =-0.212E-02 0.178E-02-0.203E-04
CGA:  98    -0.224119963914E+03   -0.49966E-02   -0.51008E-02  5760   0.101E-01-0.367E-03
 gam= 0.682 trial= 0.459  step= 0.858 mean= 0.459
 gam= 1.549 g(H,U,f)=  0.571E-02 0.986E-02 0.185E-04 ort(H,U,f) =-0.208E-02 0.126E-02-0.186E-04
CGA:  99    -0.224123491061E+03   -0.35271E-02   -0.42105E-02  5760   0.156E-01-0.835E-03
 gam= 1.549 trial= 0.479  step= 0.260 mean= 0.479
 gam= 0.613 g(H,U,f)=  0.400E-02 0.556E-02 0.450E-05 ort(H,U,f) =-0.126E-02 0.129E-02-0.218E-04
CGA: 100    -0.224125560961E+03   -0.20699E-02   -0.18624E-02  5760   0.956E-02 0.900E-06
 gam= 0.613 trial= 0.468  step= 0.526 mean= 0.468
 gam= 0.919 g(H,U,f)=  0.328E-02 0.550E-02 0.149E-04 ort(H,U,f) =-0.143E-02 0.163E-02-0.912E-05
CGA: 101    -0.224128078481E+03   -0.25175E-02   -0.25164E-02  5760   0.879E-02 0.192E-03
 gam= 0.919 trial= 0.471  step= 0.290 mean= 0.471
 gam= 0.812 g(H,U,f)=  0.262E-02 0.451E-02 0.274E-05 ort(H,U,f) =-0.645E-03 0.143E-02 0.267E-05
CGA: 102    -0.224129451983E+03   -0.13735E-02   -0.12987E-02  5760   0.713E-02 0.785E-03
 gam= 0.812 trial= 0.462  step= 0.559 mean= 0.462
 gam= 1.212 g(H,U,f)=  0.362E-02 0.502E-02 0.105E-05 ort(H,U,f) =-0.182E-02 0.112E-02 0.131E-05
CGA: 103    -0.224131547523E+03   -0.20955E-02   -0.21708E-02  5760   0.864E-02-0.696E-03
 gam= 1.212 trial= 0.467  step= 0.560 mean= 0.467
 gam= 0.831 g(H,U,f)=  0.346E-02 0.372E-02 0.773E-05 ort(H,U,f) =-0.180E-02 0.229E-02-0.164E-04
CGA: 104    -0.224133745264E+03   -0.21977E-02   -0.21855E-02  5760   0.718E-02 0.475E-03
 gam= 0.831 trial= 0.471  step= 0.328 mean= 0.471
 gam= 0.641 g(H,U,f)=  0.212E-02 0.247E-02 0.621E-05 ort(H,U,f) =-0.588E-03 0.870E-03-0.772E-05
CGA: 105    -0.224135065434E+03   -0.13202E-02   -0.12407E-02  5760   0.460E-02 0.274E-03
 gam= 0.641 trial= 0.464  step= 0.455 mean= 0.464
 gam= 0.958 g(H,U,f)=  0.180E-02 0.261E-02 0.483E-06 ort(H,U,f) =-0.334E-03 0.396E-04 0.424E-07
CGA: 106    -0.224136154785E+03   -0.10894E-02   -0.10865E-02  5760   0.441E-02-0.294E-03
 gam= 0.958 trial= 0.464  step= 0.448 mean= 0.464
 gam= 0.581 g(H,U,f)=  0.125E-02 0.131E-02 0.341E-05 ort(H,U,f) =-0.624E-03 0.722E-03 0.376E-06
CGA: 107    -0.224137077995E+03   -0.92321E-03   -0.92391E-03  5760   0.256E-02 0.983E-04
 gam= 0.581 trial= 0.463  step= 0.375 mean= 0.463
 gam= 0.732 g(H,U,f)=  0.812E-03 0.106E-02 0.493E-06 ort(H,U,f) =-0.159E-03 0.140E-03 0.557E-06
CGA: 108    -0.224137568002E+03   -0.49001E-03   -0.49051E-03  5760   0.187E-02-0.184E-04
 gam= 0.732 trial= 0.459  step= 0.374 mean= 0.459
 gam= 0.677 g(H,U,f)=  0.526E-03 0.740E-03 0.283E-05 ort(H,U,f) =-0.145E-03 0.180E-03-0.372E-06
CGA: 109    -0.224137927646E+03   -0.35964E-03   -0.34830E-03  5760   0.127E-02 0.351E-04
 gam= 0.677 trial= 0.454  step= 0.652 mean= 0.454
 gam= 0.913 g(H,U,f)=  0.553E-03 0.604E-03 0.202E-05 ort(H,U,f) =-0.359E-03 0.310E-03 0.106E-05
CGA: 110    -0.224138343113E+03   -0.41547E-03   -0.42147E-03  5760   0.116E-02-0.480E-04
 gam= 0.913 trial= 0.464  step= 0.523 mean= 0.464
 gam= 1.068 g(H,U,f)=  0.557E-03 0.680E-03 0.384E-06 ort(H,U,f) =-0.218E-03 0.259E-03-0.355E-07
CGA: 111    -0.224138632397E+03   -0.28928E-03   -0.29137E-03  5760   0.124E-02 0.409E-04
 gam= 1.068 trial= 0.467  step= 0.526 mean= 0.467
 gam= 1.226 g(H,U,f)=  0.554E-03 0.961E-03 0.187E-05 ort(H,U,f) =-0.251E-03 0.224E-03-0.406E-05
CGA: 112    -0.224138966519E+03   -0.33412E-03   -0.33708E-03  5760   0.152E-02-0.305E-04
 gam= 1.226 trial= 0.470  step= 0.443 mean= 0.470
 gam= 0.783 g(H,U,f)=  0.579E-03 0.606E-03 0.190E-05 ort(H,U,f) =-0.429E-03 0.427E-03-0.292E-05
CGA: 113    -0.224139294123E+03   -0.32760E-03   -0.32755E-03  5760   0.119E-02-0.442E-05
 gam= 0.783 trial= 0.469  step= 0.592 mean= 0.469
 gam= 1.258 g(H,U,f)=  0.661E-03 0.832E-03 0.236E-06 ort(H,U,f) =-0.264E-03 0.247E-03-0.346E-06
CGA: 114    -0.224139642753E+03   -0.34863E-03   -0.35054E-03  5760   0.149E-02-0.176E-04
 gam= 1.258 trial= 0.475  step= 0.482 mean= 0.475
 gam= 0.882 g(H,U,f)=  0.581E-03 0.736E-03 0.115E-05 ort(H,U,f) =-0.233E-03 0.274E-03-0.196E-05
CGA: 115    -0.224139997083E+03   -0.35433E-03   -0.35435E-03  5760   0.132E-02 0.388E-04
 gam= 0.882 trial= 0.475  step= 0.457 mean= 0.475
 gam= 0.878 g(H,U,f)=  0.537E-03 0.618E-03 0.226E-05 ort(H,U,f) =-0.221E-03 0.232E-03-0.101E-05
CGA: 116    -0.224140309509E+03   -0.31243E-03   -0.30897E-03  5760   0.116E-02 0.998E-05
 gam= 0.878 trial= 0.474  step= 0.551 mean= 0.474
 gam= 0.830 g(H,U,f)=  0.517E-03 0.439E-03 0.485E-05 ort(H,U,f) =-0.240E-03 0.190E-03 0.505E-06
CGA: 117    -0.224140627473E+03   -0.31796E-03   -0.32122E-03  5760   0.961E-03-0.496E-04
 gam= 0.830 trial= 0.478  step= 0.540 mean= 0.478
 gam= 0.000 g(H,U,f)=  0.391E-03 0.335E-03 0.628E-05 ort(H,U,f) =-0.119E-03 0.129E-03 0.456E-05
SDA: 118    -0.224140875796E+03   -0.24832E-03   -0.24850E-03  5760   0.732E-03 0.146E-04
 gam= 0.000 trial= 0.481  step= 0.398 mean= 0.481
 gam= 0.469 g(H,U,f)=  0.142E-03 0.200E-03 0.226E-05 ort(H,U,f) = 0.625E-04-0.392E-04 0.350E-05
CGA: 119    -0.224141022632E+03   -0.14684E-03   -0.14566E-03  5760   0.344E-03 0.268E-04
 gam= 0.469 trial= 0.477  step= 0.479 mean= 0.477
 gam= 0.956 g(H,U,f)=  0.961E-04 0.231E-03 0.213E-05 ort(H,U,f) =-0.326E-05 0.117E-04 0.321E-05
CGA: 120    -0.224141107937E+03   -0.85305E-04   -0.85360E-04  5760   0.329E-03 0.116E-04
 gam= 0.956 trial= 0.477  step= 0.473 mean= 0.477
 gam= 0.953 g(H,U,f)=  0.130E-03 0.182E-03 0.116E-05 ort(H,U,f) =-0.759E-04 0.640E-04 0.256E-05
CGA: 121    -0.224141188358E+03   -0.80421E-04   -0.80321E-04  5760   0.313E-03-0.936E-05
 gam= 0.953 trial= 0.477  step= 0.667 mean= 0.477
 gam= 0.942 g(H,U,f)=  0.139E-03 0.156E-03 0.687E-06 ort(H,U,f) =-0.871E-04 0.869E-04 0.367E-05
CGA: 122    -0.224141289867E+03   -0.10151E-03   -0.10139E-03  5760   0.295E-03 0.343E-05
 gam= 0.942 trial= 0.486  step= 0.535 mean= 0.486
 gam= 0.811 g(H,U,f)=  0.123E-03 0.116E-03 0.922E-06 ort(H,U,f) =-0.542E-04 0.646E-04 0.346E-05
CGA: 123    -0.224141369796E+03   -0.79929E-04   -0.79745E-04  5760   0.239E-03 0.139E-04
 gam= 0.811 trial= 0.489  step= 0.735 mean= 0.489
 gam= 1.181 g(H,U,f)=  0.108E-03 0.175E-03 0.821E-07 ort(H,U,f) =-0.424E-04 0.481E-04-0.835E-06
CGA: 124    -0.224141461942E+03   -0.92146E-04   -0.92154E-04  5760   0.283E-03 0.490E-05
 gam= 1.181 trial= 0.501  step= 0.339 mean= 0.501
 gam= 0.640 g(H,U,f)=  0.865E-04 0.943E-04 0.283E-06 ort(H,U,f) =-0.469E-04 0.550E-04-0.221E-05
CGA: 125    -0.224141513410E+03   -0.51468E-04   -0.48879E-04  5760   0.181E-03 0.589E-05
 gam= 0.640 trial= 0.493  step= 0.711 mean= 0.493
 gam= 1.273 g(H,U,f)=  0.900E-04 0.139E-03 0.139E-05 ort(H,U,f) =-0.405E-04 0.285E-04-0.311E-05
CGA: 126    -0.224141576227E+03   -0.62817E-04   -0.65707E-04  5760   0.231E-03-0.151E-04
 gam= 1.273 trial= 0.504  step= 0.682 mean= 0.504
 gam= 0.767 g(H,U,f)=  0.113E-03 0.639E-04 0.348E-06 ort(H,U,f) =-0.841E-04 0.758E-04-0.181E-05
CGA: 127    -0.224141647008E+03   -0.70781E-04   -0.72064E-04  5760   0.177E-03-0.101E-04
 gam= 0.767 trial= 0.513  step= 0.982 mean= 0.513
 gam= 1.432 g(H,U,f)=  0.118E-03 0.135E-03 0.718E-06 ort(H,U,f) =-0.362E-04 0.341E-04-0.184E-05
CGA: 128    -0.224141728148E+03   -0.81140E-04   -0.83051E-04  5760   0.253E-03-0.391E-05
 gam= 1.432 trial= 0.536  step= 0.676 mean= 0.536
 gam= 1.033 g(H,U,f)=  0.123E-03 0.137E-03 0.194E-05 ort(H,U,f) =-0.627E-04 0.619E-04-0.313E-05
CGA: 129    -0.224141810345E+03   -0.82197E-04   -0.83667E-04  5760   0.261E-03-0.399E-05
 gam= 1.033 trial= 0.543  step= 0.384 mean= 0.543
 gam= 0.876 g(H,U,f)=  0.112E-03 0.117E-03 0.946E-06 ort(H,U,f) =-0.311E-04 0.407E-04-0.656E-06
CGA: 130    -0.224141861960E+03   -0.51615E-04   -0.49375E-04  5760   0.229E-03 0.904E-05
 gam= 0.876 trial= 0.535  step= 0.743 mean= 0.535
 gam= 1.141 g(H,U,f)=  0.120E-03 0.141E-03 0.711E-06 ort(H,U,f) =-0.566E-04 0.489E-04 0.601E-06
CGA: 131    -0.224141948075E+03   -0.86115E-04   -0.87992E-04  5760   0.261E-03-0.711E-05
 gam= 1.141 trial= 0.546  step= 0.513 mean= 0.546
 gam= 0.729 g(H,U,f)=  0.112E-03 0.784E-04 0.218E-06 ort(H,U,f) =-0.765E-04 0.711E-04 0.985E-06
CGA: 132    -0.224142013085E+03   -0.65010E-04   -0.64910E-04  5760   0.191E-03-0.444E-05
 gam= 0.729 trial= 0.544  step= 0.893 mean= 0.544
 gam= 1.191 g(H,U,f)=  0.124E-03 0.103E-03 0.376E-06 ort(H,U,f) =-0.491E-04 0.502E-04-0.119E-05
CGA: 133    -0.224142095484E+03   -0.82399E-04   -0.83594E-04  5760   0.227E-03-0.133E-06
 gam= 1.191 trial= 0.561  step= 0.559 mean= 0.561
 gam= 0.954 g(H,U,f)=  0.120E-03 0.966E-04 0.793E-07 ort(H,U,f) =-0.522E-04 0.535E-04-0.487E-06
CGA: 134    -0.224142158889E+03   -0.63406E-04   -0.63399E-04  5760   0.216E-03 0.850E-06
 gam= 0.954 trial= 0.561  step= 0.492 mean= 0.561
 gam= 0.919 g(H,U,f)=  0.895E-04 0.109E-03 0.195E-06 ort(H,U,f) =-0.321E-04 0.332E-04 0.508E-06
CGA: 135    -0.224142213001E+03   -0.54111E-04   -0.53484E-04  5760   0.199E-03 0.162E-05
 gam= 0.919 trial= 0.558  step= 0.417 mean= 0.558
 gam= 0.704 g(H,U,f)=  0.787E-04 0.606E-04 0.760E-06 ort(H,U,f) =-0.243E-04 0.248E-04 0.135E-05
CGA: 136    -0.224142254947E+03   -0.41946E-04   -0.41735E-04  5760   0.140E-03 0.186E-05
 gam= 0.704 trial= 0.551  step= 0.671 mean= 0.551
 gam= 0.676 g(H,U,f)=  0.571E-04 0.375E-04 0.128E-06 ort(H,U,f) =-0.320E-04 0.254E-04 0.480E-06
CGA: 137    -0.224142301504E+03   -0.46557E-04   -0.47418E-04  5760   0.947E-04-0.608E-05
 gam= 0.676 trial= 0.557  step= 0.626 mean= 0.557
 gam= 0.764 g(H,U,f)=  0.411E-04 0.311E-04 0.116E-06 ort(H,U,f) =-0.150E-04 0.181E-04-0.358E-06
CGA: 138    -0.224142329952E+03   -0.28448E-04   -0.28362E-04  5760   0.723E-04 0.274E-05
 gam= 0.764 trial= 0.560  step= 0.578 mean= 0.560
 gam= 1.074 g(H,U,f)=  0.309E-04 0.467E-04 0.783E-07 ort(H,U,f) =-0.904E-05 0.111E-04-0.112E-06
CGA: 139    -0.224142351447E+03   -0.21495E-04   -0.21532E-04  5760   0.777E-04 0.197E-05
 gam= 1.074 trial= 0.561  step= 0.439 mean= 0.561
 gam= 0.915 g(H,U,f)=  0.291E-04 0.420E-04 0.284E-07 ort(H,U,f) =-0.132E-04 0.111E-04 0.432E-07
CGA: 140    -0.224142370376E+03   -0.18928E-04   -0.17529E-04  5760   0.711E-04-0.203E-05
 gam= 0.915 trial= 0.555  step= 0.515 mean= 0.555
 gam= 0.624 g(H,U,f)=  0.275E-04 0.168E-04 0.596E-07 ort(H,U,f) =-0.187E-04 0.206E-04 0.225E-06
CGA: 141    -0.224142388145E+03   -0.17770E-04   -0.17841E-04  5760   0.444E-04 0.214E-05
 gam= 0.624 trial= 0.553  step= 0.797 mean= 0.553
 gam= 1.471 g(H,U,f)=  0.298E-04 0.355E-04 0.762E-08 ort(H,U,f) =-0.111E-04 0.106E-04 0.160E-07
CGA: 142    -0.224142406365E+03   -0.18220E-04   -0.18220E-04  5760   0.653E-04-0.465E-06
 gam= 1.471 trial= 0.565  step= 0.452 mean= 0.565
 gam= 0.894 g(H,U,f)=  0.275E-04 0.307E-04 0.172E-06 ort(H,U,f) =-0.169E-04 0.196E-04-0.396E-06
CGA: 143    -0.224142421162E+03   -0.14797E-04   -0.14610E-04  5760   0.584E-04 0.233E-05
 gam= 0.894 trial= 0.560  step= 0.495 mean= 0.560
 gam= 1.077 g(H,U,f)=  0.323E-04 0.304E-04 0.182E-06 ort(H,U,f) =-0.154E-04 0.144E-04-0.274E-06
CGA: 144    -0.224142436362E+03   -0.15200E-04   -0.14954E-04  5760   0.629E-04-0.126E-05
 gam= 1.077 trial= 0.556  step= 0.854 mean= 0.556
 gam= 1.194 g(H,U,f)=  0.431E-04 0.318E-04 0.180E-06 ort(H,U,f) =-0.255E-04 0.232E-04-0.314E-06
CGA: 145    -0.224142462191E+03   -0.25829E-04   -0.26260E-04  5760   0.751E-04-0.262E-05
 gam= 1.194 trial= 0.571  step= 0.720 mean= 0.571
 gam= 1.160 g(H,U,f)=  0.523E-04 0.346E-04 0.240E-06 ort(H,U,f) =-0.248E-04 0.268E-04-0.221E-06
CGA: 146    -0.224142487838E+03   -0.25646E-04   -0.25896E-04  5760   0.871E-04 0.179E-05
 gam= 1.160 trial= 0.579  step= 0.610 mean= 0.579
 gam= 1.752 g(H,U,f)=  0.657E-04 0.867E-04 0.132E-06 ort(H,U,f) =-0.191E-04 0.189E-04-0.138E-06
CGA: 147    -0.224142514911E+03   -0.27074E-04   -0.27197E-04  5760   0.153E-03-0.366E-06
 gam= 1.752 trial= 0.580  step= 0.497 mean= 0.580
 gam= 0.699 g(H,U,f)=  0.678E-04 0.383E-04 0.524E-06 ort(H,U,f) =-0.514E-04 0.498E-04-0.384E-06
CGA: 148    -0.224142552848E+03   -0.37936E-04   -0.37718E-04  5760   0.107E-03-0.194E-05
 gam= 0.699 trial= 0.576  step= 0.577 mean= 0.576
 gam= 0.000 g(H,U,f)=  0.683E-04 0.494E-04 0.283E-06 ort(H,U,f) =-0.251E-04 0.245E-04 0.144E-06
SDA: 149    -0.224142583234E+03   -0.30386E-04   -0.30386E-04  5760   0.118E-03-0.464E-06
 gam= 0.000 trial= 0.576  step= 0.344 mean= 0.576
 gam= 0.480 g(H,U,f)=  0.273E-04 0.290E-04 0.237E-06 ort(H,U,f) = 0.111E-04-0.888E-05 0.254E-06
CGA: 150    -0.224142603689E+03   -0.20455E-04   -0.20300E-04  5760   0.566E-04 0.249E-05
 gam= 0.480 trial= 0.565  step= 0.563 mean= 0.565
 gam= 0.907 g(H,U,f)=  0.168E-04 0.343E-04 0.208E-06 ort(H,U,f) =-0.245E-05 0.486E-05 0.330E-06
CGA: 151    -0.224142619964E+03   -0.16275E-04   -0.16272E-04  5760   0.513E-04 0.274E-05
 gam= 0.907 trial= 0.565  step= 0.411 mean= 0.565
 gam= 0.739 g(H,U,f)=  0.150E-04 0.228E-04 0.143E-06 ort(H,U,f) =-0.113E-04 0.109E-04 0.394E-06
CGA: 152    -0.224142631898E+03   -0.11934E-04   -0.11067E-04  5760   0.380E-04-0.760E-08
 gam= 0.739 trial= 0.557  step= 0.617 mean= 0.557
 gam= 0.979 g(H,U,f)=  0.173E-04 0.198E-04 0.534E-07 ort(H,U,f) =-0.935E-05 0.104E-04 0.254E-06
CGA: 153    -0.224142643653E+03   -0.11755E-04   -0.11698E-04  5760   0.372E-04 0.129E-05
 gam= 0.979 trial= 0.560  step= 0.703 mean= 0.560
 gam= 0.979 g(H,U,f)=  0.183E-04 0.180E-04 0.496E-07 ort(H,U,f) =-0.106E-04 0.106E-04 0.113E-06
CGA: 154    -0.224142657179E+03   -0.13526E-04   -0.13517E-04  5760   0.364E-04 0.119E-06
 gam= 0.979 trial= 0.567  step= 0.600 mean= 0.567
 gam= 0.805 g(H,U,f)=  0.166E-04 0.127E-04 0.270E-08 ort(H,U,f) =-0.868E-05 0.884E-05 0.998E-08
CGA: 155    -0.224142668132E+03   -0.10953E-04   -0.10956E-04  5760   0.293E-04 0.171E-06
 gam= 0.805 trial= 0.569  step= 0.784 mean= 0.569
 gam= 0.923 g(H,U,f)=  0.135E-04 0.135E-04 0.318E-07 ort(H,U,f) =-0.575E-05 0.645E-05-0.203E-06
CGA: 156    -0.224142679765E+03   -0.11633E-04   -0.11535E-04  5760   0.271E-04 0.498E-06
 gam= 0.923 trial= 0.579  step= 0.558 mean= 0.579
 gam= 1.497 g(H,U,f)=  0.160E-04 0.245E-04 0.828E-07 ort(H,U,f) =-0.345E-05 0.548E-05-0.248E-06
CGA: 157    -0.224142687513E+03   -0.77477E-05   -0.76790E-05  5760   0.405E-04 0.178E-05
 gam= 1.497 trial= 0.578  step= 0.481 mean= 0.578
 gam= 0.864 g(H,U,f)=  0.170E-04 0.178E-04 0.195E-06 ort(H,U,f) =-0.986E-05 0.983E-05-0.305E-06
CGA: 158    -0.224142697892E+03   -0.10379E-04   -0.10377E-04  5760   0.350E-04-0.333E-06
 gam= 0.864 trial= 0.573  step= 0.601 mean= 0.573
 gam= 0.945 g(H,U,f)=  0.172E-04 0.157E-04 0.143E-06 ort(H,U,f) =-0.104E-04 0.101E-04-0.105E-06
CGA: 159    -0.224142708322E+03   -0.10430E-04   -0.10433E-04  5760   0.331E-04-0.413E-06
 gam= 0.945 trial= 0.575  step= 0.572 mean= 0.575
 gam= 1.326 g(H,U,f)=  0.186E-04 0.252E-04 0.115E-06 ort(H,U,f) =-0.813E-05 0.976E-05-0.712E-07
CGA: 160    -0.224142717679E+03   -0.93568E-05   -0.93551E-05  5760   0.439E-04 0.156E-05
 gam= 1.326 trial= 0.575  step= 0.437 mean= 0.575
 gam= 0.981 g(H,U,f)=  0.205E-04 0.224E-04 0.134E-06 ort(H,U,f) =-0.113E-04 0.117E-04 0.160E-07
CGA: 161    -0.224142727886E+03   -0.10208E-04   -0.10050E-04  5760   0.431E-04 0.372E-06
 gam= 0.981 trial= 0.568  step= 0.657 mean= 0.568
 gam= 1.040 g(H,U,f)=  0.237E-04 0.209E-04 0.133E-06 ort(H,U,f) =-0.150E-04 0.132E-04 0.162E-06
CGA: 162    -0.224142741937E+03   -0.14051E-04   -0.14254E-04  5760   0.448E-04-0.167E-05
 gam= 1.040 trial= 0.572  step= 0.630 mean= 0.572
 gam= 1.107 g(H,U,f)=  0.266E-04 0.228E-04 0.667E-07 ort(H,U,f) =-0.106E-04 0.118E-04 0.284E-06
CGA: 163    -0.224142755530E+03   -0.13593E-04   -0.13561E-04  5760   0.495E-04 0.152E-05
 gam= 1.107 trial= 0.575  step= 0.572 mean= 0.575
 gam= 1.083 g(H,U,f)=  0.230E-04 0.306E-04 0.375E-07 ort(H,U,f) =-0.874E-05 0.107E-04 0.194E-06
CGA: 164    -0.224142770187E+03   -0.14657E-04   -0.14647E-04  5760   0.536E-04 0.219E-05
 gam= 1.083 trial= 0.575  step= 0.442 mean= 0.575
 gam= 1.046 g(H,U,f)=  0.237E-04 0.324E-04 0.178E-07 ort(H,U,f) =-0.944E-05 0.837E-05-0.231E-06
CGA: 165    -0.224142783125E+03   -0.12938E-04   -0.12369E-04  5760   0.561E-04-0.131E-05
 gam= 1.046 trial= 0.568  step= 0.538 mean= 0.568
 gam= 0.780 g(H,U,f)=  0.240E-04 0.197E-04 0.107E-06 ort(H,U,f) =-0.135E-04 0.132E-04-0.532E-06
CGA: 166    -0.224142797858E+03   -0.14733E-04   -0.14725E-04  5760   0.438E-04-0.836E-06
 gam= 0.780 trial= 0.567  step= 0.621 mean= 0.567
 gam= 1.283 g(H,U,f)=  0.240E-04 0.321E-04 0.427E-07 ort(H,U,f) =-0.877E-05 0.106E-04-0.185E-06
CGA: 167    -0.224142811187E+03   -0.13329E-04   -0.13387E-04  5760   0.561E-04 0.162E-05
 gam= 1.283 trial= 0.570  step= 0.378 mean= 0.570
 gam= 0.851 g(H,U,f)=  0.215E-04 0.262E-04 0.107E-06 ort(H,U,f) =-0.124E-04 0.131E-04-0.193E-06
CGA: 168    -0.224142822593E+03   -0.11407E-04   -0.11006E-04  5760   0.478E-04 0.532E-06
 gam= 0.851 trial= 0.560  step= 0.555 mean= 0.560
 gam= 1.237 g(H,U,f)=  0.307E-04 0.282E-04 0.247E-06 ort(H,U,f) =-0.148E-04 0.125E-04-0.112E-06
CGA: 169    -0.224142835992E+03   -0.13398E-04   -0.13390E-04  5760   0.591E-04-0.245E-05
 gam= 1.237 trial= 0.560  step= 0.681 mean= 0.560
 gam= 1.065 g(H,U,f)=  0.313E-04 0.314E-04 0.258E-06 ort(H,U,f) =-0.191E-04 0.210E-04-0.134E-06
CGA: 170    -0.224142855086E+03   -0.19095E-04   -0.19088E-04  5760   0.630E-04 0.181E-05
 gam= 1.065 trial= 0.566  step= 0.356 mean= 0.566
 gam= 1.026 g(H,U,f)=  0.317E-04 0.326E-04 0.221E-06 ort(H,U,f) =-0.116E-04 0.159E-04-0.387E-07
CGA: 171    -0.224142867667E+03   -0.12581E-04   -0.11558E-04  5760   0.646E-04 0.425E-05
 gam= 1.026 trial= 0.555  step= 0.654 mean= 0.555
 gam= 1.094 g(H,U,f)=  0.360E-04 0.346E-04 0.625E-07 ort(H,U,f) =-0.170E-04 0.197E-04 0.179E-06
CGA: 172    -0.224142890352E+03   -0.22685E-04   -0.22528E-04  5760   0.707E-04 0.287E-05
 gam= 1.094 trial= 0.560  step= 0.532 mean= 0.560
 gam= 1.098 g(H,U,f)=  0.370E-04 0.406E-04 0.554E-07 ort(H,U,f) =-0.203E-04 0.210E-04 0.335E-06
CGA: 173    -0.224142910050E+03   -0.19698E-04   -0.19643E-04  5760   0.776E-04 0.103E-05
 gam= 1.098 trial= 0.559  step= 0.330 mean= 0.559
 gam= 0.815 g(H,U,f)=  0.337E-04 0.295E-04 0.400E-07 ort(H,U,f) =-0.146E-04 0.152E-04 0.313E-06
CGA: 174    -0.224142924101E+03   -0.14051E-04   -0.13012E-04  5760   0.633E-04 0.923E-06
 gam= 0.815 trial= 0.547  step= 0.691 mean= 0.547
 gam= 1.187 g(H,U,f)=  0.360E-04 0.391E-04 0.440E-07 ort(H,U,f) =-0.132E-04 0.185E-04-0.289E-08
CGA: 175    -0.224142946547E+03   -0.22446E-04   -0.22125E-04  5760   0.751E-04 0.523E-05
 gam= 1.187 trial= 0.555  step= 0.311 mean= 0.555
 gam= 0.639 g(H,U,f)=  0.228E-04 0.252E-04 0.313E-07 ort(H,U,f) =-0.118E-04 0.129E-04-0.196E-06
CGA: 176    -0.224142959454E+03   -0.12907E-04   -0.12627E-04  5760   0.480E-04 0.921E-06
 gam= 0.639 trial= 0.542  step= 0.469 mean= 0.542
 gam= 1.170 g(H,U,f)=  0.272E-04 0.289E-04 0.793E-07 ort(H,U,f) =-0.869E-05 0.647E-05-0.337E-06
CGA: 177    -0.224142971179E+03   -0.11725E-04   -0.11408E-04  5760   0.561E-04-0.256E-05
 gam= 1.170 trial= 0.539  step= 0.591 mean= 0.539
 gam= 0.856 g(H,U,f)=  0.240E-04 0.238E-04 0.298E-06 ort(H,U,f) =-0.147E-04 0.168E-04-0.573E-06
CGA: 178    -0.224142986926E+03   -0.15747E-04   -0.15716E-04  5760   0.480E-04 0.148E-05
 gam= 0.856 trial= 0.541  step= 0.334 mean= 0.541
 gam= 0.868 g(H,U,f)=  0.204E-04 0.210E-04 0.252E-06 ort(H,U,f) =-0.772E-05 0.113E-04-0.173E-06
CGA: 179    -0.224142995408E+03   -0.84818E-05   -0.82355E-05  5760   0.417E-04 0.343E-05
 gam= 0.868 trial= 0.531  step= 0.607 mean= 0.531
 gam= 0.000 g(H,U,f)=  0.275E-04 0.336E-04 0.124E-06 ort(H,U,f) =-0.124E-04 0.118E-04-0.954E-07
SDA: 180    -0.224143008862E+03   -0.13453E-04   -0.13551E-04  5760   0.612E-04-0.675E-06
 gam= 0.000 trial= 0.535  step= 0.305 mean= 0.535
 gam= 0.357 g(H,U,f)=  0.744E-05 0.143E-04 0.138E-06 ort(H,U,f) = 0.238E-05-0.398E-05 0.107E-06
CGA: 181    -0.224143018397E+03   -0.95358E-05   -0.93232E-05  5760   0.218E-04-0.149E-05
 gam= 0.357 trial= 0.523  step= 0.752 mean= 0.523
 gam= 1.571 g(H,U,f)=  0.104E-04 0.236E-04 0.269E-06 ort(H,U,f) =-0.323E-05 0.283E-05 0.195E-06
CGA: 182    -0.224143026306E+03   -0.79082E-05   -0.80112E-05  5760   0.343E-04-0.204E-06
 gam= 1.571 trial= 0.535  step= 0.497 mean= 0.535
 gam= 0.839 g(H,U,f)=  0.117E-04 0.168E-04 0.212E-06 ort(H,U,f) =-0.968E-05 0.114E-04 0.443E-06
CGA: 183    -0.224143034803E+03   -0.84971E-05   -0.84543E-05  5760   0.288E-04 0.219E-05
 gam= 0.839 trial= 0.533  step= 0.496 mean= 0.533
 gam= 0.997 g(H,U,f)=  0.127E-04 0.160E-04 0.245E-07 ort(H,U,f) =-0.742E-05 0.851E-05 0.136E-06
CGA: 184    -0.224143042403E+03   -0.76002E-05   -0.75924E-05  5760   0.287E-04 0.123E-05
 gam= 0.997 trial= 0.531  step= 0.753 mean= 0.531
 gam= 1.368 g(H,U,f)=  0.206E-04 0.184E-04 0.352E-06 ort(H,U,f) =-0.109E-04 0.816E-05-0.457E-06
CGA: 185    -0.224143052981E+03   -0.10578E-04   -0.11273E-04  5760   0.393E-04-0.316E-05
 gam= 1.368 trial= 0.542  step= 0.826 mean= 0.542
 gam= 0.816 g(H,U,f)=  0.190E-04 0.128E-04 0.198E-06 ort(H,U,f) =-0.102E-04 0.101E-04-0.473E-06
CGA: 186    -0.224143067292E+03   -0.14311E-04   -0.14438E-04  5760   0.320E-04-0.626E-06
 gam= 0.816 trial= 0.556  step= 0.577 mean= 0.556
 gam= 1.315 g(H,U,f)=  0.171E-04 0.250E-04 0.806E-07 ort(H,U,f) =-0.257E-05 0.466E-05-0.354E-06
CGA: 187    -0.224143076344E+03   -0.90526E-05   -0.91028E-05  5760   0.422E-04 0.173E-05
 gam= 1.315 trial= 0.557  step= 0.472 mean= 0.557
 gam= 0.892 g(H,U,f)=  0.158E-04 0.217E-04 0.103E-06 ort(H,U,f) =-0.741E-05 0.661E-05-0.412E-06
CGA: 188    -0.224143086980E+03   -0.10636E-04   -0.10488E-04  5760   0.376E-04-0.121E-05
 gam= 0.892 trial= 0.553  step= 0.712 mean= 0.553
 gam= 0.884 g(H,U,f)=  0.182E-04 0.148E-04 0.253E-06 ort(H,U,f) =-0.122E-04 0.970E-05-0.365E-06
CGA: 189    -0.224143099646E+03   -0.12666E-04   -0.13002E-04  5760   0.332E-04-0.287E-05
 gam= 0.884 trial= 0.561  step= 0.671 mean= 0.561
 gam= 0.966 g(H,U,f)=  0.169E-04 0.148E-04 0.502E-06 ort(H,U,f) =-0.611E-05 0.781E-05 0.291E-07
CGA: 190    -0.224143110028E+03   -0.10381E-04   -0.10299E-04  5760   0.321E-04 0.173E-05
 gam= 0.966 trial= 0.567  step= 0.745 mean= 0.567
 gam= 0.979 g(H,U,f)=  0.137E-04 0.176E-04 0.157E-06 ort(H,U,f) =-0.625E-05 0.789E-05 0.210E-06
CGA: 191    -0.224143122741E+03   -0.12713E-04   -0.12592E-04  5760   0.314E-04 0.185E-05
 gam= 0.979 trial= 0.575  step= 0.437 mean= 0.575
 gam= 0.852 g(H,U,f)=  0.120E-04 0.148E-04 0.435E-07 ort(H,U,f) =-0.496E-05 0.488E-05 0.760E-07
CGA: 192    -0.224143130213E+03   -0.74718E-05   -0.72644E-05  5760   0.268E-04-0.123E-08
 gam= 0.852 trial= 0.569  step= 0.646 mean= 0.569
 gam= 1.282 g(H,U,f)=  0.157E-04 0.186E-04 0.394E-07 ort(H,U,f) =-0.647E-05 0.562E-05-0.917E-07
CGA: 193    -0.224143138674E+03   -0.84613E-05   -0.86505E-05  5760   0.343E-04-0.946E-06
 gam= 1.282 trial= 0.572  step= 0.499 mean= 0.572
 gam= 0.678 g(H,U,f)=  0.134E-04 0.988E-05 0.158E-08 ort(H,U,f) =-0.839E-05 0.861E-05 0.335E-07
CGA: 194    -0.224143147052E+03   -0.83776E-05   -0.82652E-05  5760   0.233E-04 0.248E-06
 gam= 0.678 trial= 0.569  step= 0.716 mean= 0.569
 gam= 0.980 g(H,U,f)=  0.113E-04 0.114E-04 0.499E-07 ort(H,U,f) =-0.486E-05 0.513E-05 0.137E-06
CGA: 195    -0.224143155439E+03   -0.83871E-05   -0.83993E-05  5760   0.228E-04 0.405E-06
 gam= 0.980 trial= 0.576  step= 0.680 mean= 0.576
 gam= 1.005 g(H,U,f)=  0.118E-04 0.111E-04 0.229E-07 ort(H,U,f) =-0.615E-05 0.575E-05-0.251E-07
CGA: 196    -0.224143163287E+03   -0.78480E-05   -0.78918E-05  5760   0.229E-04-0.430E-06
 gam= 1.005 trial= 0.581  step= 0.508 mean= 0.581
 gam= 1.101 g(H,U,f)=  0.112E-04 0.140E-04 0.846E-07 ort(H,U,f) =-0.328E-05 0.459E-05-0.290E-06
CGA: 197    -0.224143169148E+03   -0.58615E-05   -0.57210E-05  5760   0.253E-04 0.102E-05
 gam= 1.101 trial= 0.578  step= 0.525 mean= 0.578
 gam= 0.855 g(H,U,f)=  0.102E-04 0.112E-04 0.161E-06 ort(H,U,f) =-0.494E-05 0.506E-05-0.307E-06
CGA: 198    -0.224143176101E+03   -0.69527E-05   -0.69245E-05  5760   0.216E-04-0.188E-06
 gam= 0.855 trial= 0.575  step= 0.667 mean= 0.575
 gam= 0.710 g(H,U,f)=  0.883E-05 0.642E-05 0.941E-07 ort(H,U,f) =-0.651E-05 0.522E-05-0.168E-07
CGA: 199    -0.224143183165E+03   -0.70638E-05   -0.71486E-05  5760   0.153E-04-0.131E-05
 gam= 0.710 trial= 0.580  step= 0.918 mean= 0.580
 gam= 1.302 g(H,U,f)=  0.944E-05 0.105E-04 0.309E-07 ort(H,U,f) =-0.356E-05 0.333E-05 0.735E-07
CGA: 200    -0.224143189761E+03   -0.65957E-05   -0.66098E-05  5760   0.200E-04-0.152E-06
 gam= 1.302 trial= 0.596  step= 0.527 mean= 0.596
 gam= 1.089 g(H,U,f)=  0.858E-05 0.131E-04 0.128E-07 ort(H,U,f) =-0.335E-05 0.501E-05 0.333E-07
CGA: 201    -0.224143195060E+03   -0.52995E-05   -0.52111E-05  5760   0.217E-04 0.170E-05
 gam= 1.089 trial= 0.593  step= 0.508 mean= 0.593
 gam= 0.934 g(H,U,f)=  0.976E-05 0.105E-04 0.552E-07 ort(H,U,f) =-0.502E-05 0.506E-05 0.248E-07
CGA: 202    -0.224143201064E+03   -0.60045E-05   -0.59898E-05  5760   0.203E-04 0.600E-07
 gam= 0.934 trial= 0.589  step= 0.761 mean= 0.589
 gam= 1.245 g(H,U,f)=  0.126E-04 0.126E-04 0.103E-06 ort(H,U,f) =-0.664E-05 0.532E-05 0.580E-07
CGA: 203    -0.224143208570E+03   -0.75058E-05   -0.77498E-05  5760   0.253E-04-0.126E-05
 gam= 1.245 trial= 0.597  step= 0.630 mean= 0.597
 gam= 0.796 g(H,U,f)=  0.117E-04 0.844E-05 0.161E-08 ort(H,U,f) =-0.659E-05 0.671E-05-0.152E-07
CGA: 204    -0.224143216030E+03   -0.74596E-05   -0.74608E-05  5760   0.201E-04 0.107E-06
 gam= 0.796 trial= 0.599  step= 0.647 mean= 0.599
 gam= 1.192 g(H,U,f)=  0.120E-04 0.119E-04 0.872E-07 ort(H,U,f) =-0.319E-05 0.402E-05-0.248E-06
CGA: 205    -0.224143222530E+03   -0.64999E-05   -0.65361E-05  5760   0.240E-04 0.588E-06
 gam= 1.192 trial= 0.601  step= 0.721 mean= 0.601
 gam= 1.207 g(H,U,f)=  0.123E-04 0.165E-04 0.178E-06 ort(H,U,f) =-0.660E-05 0.556E-05-0.341E-06
CGA: 206    -0.224143231302E+03   -0.87721E-05   -0.89002E-05  5760   0.289E-04-0.138E-05
 gam= 1.207 trial= 0.607  step= 0.439 mean= 0.607
 gam= 0.953 g(H,U,f)=  0.127E-04 0.147E-04 0.144E-06 ort(H,U,f) =-0.764E-05 0.789E-05-0.259E-06
CGA: 207    -0.224143237526E+03   -0.62243E-05   -0.59878E-05  5760   0.276E-04-0.486E-08
 gam= 0.953 trial= 0.599  step= 0.800 mean= 0.599
 gam= 1.332 g(H,U,f)=  0.189E-04 0.178E-04 0.356E-07 ort(H,U,f) =-0.111E-04 0.108E-04-0.572E-07
CGA: 208    -0.224143248392E+03   -0.10865E-04   -0.11026E-04  5760   0.367E-04-0.417E-06
 gam= 1.332 trial= 0.609  step= 1.237 mean= 0.609
 gam= 1.699 g(H,U,f)=  0.358E-04 0.264E-04 0.180E-06 ort(H,U,f) =-0.208E-04 0.203E-04-0.290E-07
CGA: 209    -0.224143270451E+03   -0.22060E-04   -0.22359E-04  5760   0.624E-04-0.531E-06
 gam= 1.699 trial= 0.640  step= 0.930 mean= 0.640
 gam= 2.250 g(H,U,f)=  0.681E-04 0.715E-04 0.747E-06 ort(H,U,f) =-0.324E-04 0.305E-04 0.223E-06
CGA: 210    -0.224143298575E+03   -0.28124E-04   -0.28583E-04  5760   0.140E-03-0.166E-05
 gam= 2.250 trial= 0.655  step= 0.866 mean= 0.655
 gam= 0.000 g(H,U,f)=  0.151E-03 0.157E-03 0.140E-05 ort(H,U,f) =-0.731E-04 0.754E-04 0.143E-05
SDA: 211    -0.224143357670E+03   -0.59096E-04   -0.59133E-04  5760   0.309E-03 0.373E-05
 gam= 0.000 trial= 0.665  step= 0.259 mean= 0.665
 gam= 0.446 g(H,U,f)=  0.664E-04 0.710E-04 0.676E-06 ort(H,U,f) = 0.622E-04-0.308E-04 0.910E-06
CGA: 212    -0.224143402551E+03   -0.44881E-04   -0.40090E-04  5760   0.138E-03 0.323E-04
 gam= 0.446 trial= 0.645  step= 0.505 mean= 0.645
 gam= 0.620 g(H,U,f)=  0.401E-04 0.455E-04 0.172E-07 ort(H,U,f) = 0.151E-05-0.768E-06 0.128E-06
CGA: 213    -0.224143441526E+03   -0.38975E-04   -0.38465E-04  5760   0.856E-04 0.873E-06
 gam= 0.620 trial= 0.638  step= 0.747 mean= 0.638
 gam= 0.803 g(H,U,f)=  0.383E-04 0.304E-04 0.557E-08 ort(H,U,f) =-0.160E-04 0.142E-04-0.313E-07
CGA: 214    -0.224143473600E+03   -0.32074E-04   -0.32205E-04  5760   0.688E-04-0.185E-05
 gam= 0.803 trial= 0.644  step= 0.674 mean= 0.644
 gam= 0.591 g(H,U,f)=  0.212E-04 0.193E-04 0.144E-06 ort(H,U,f) =-0.157E-04 0.161E-04 0.276E-06
CGA: 215    -0.224143496277E+03   -0.22677E-04   -0.22683E-04  5760   0.406E-04 0.683E-06
 gam= 0.591 trial= 0.645  step= 0.608 mean= 0.645
 gam= 0.984 g(H,U,f)=  0.173E-04 0.226E-04 0.796E-07 ort(H,U,f) =-0.657E-05 0.776E-05 0.227E-06
CGA: 216    -0.224143508745E+03   -0.12468E-04   -0.12483E-04  5760   0.400E-04 0.142E-05
 gam= 0.984 trial= 0.643  step= 0.739 mean= 0.643
 gam= 0.903 g(H,U,f)=  0.185E-04 0.175E-04 0.240E-07 ort(H,U,f) =-0.129E-04 0.124E-04-0.126E-06
CGA: 217    -0.224143524020E+03   -0.15275E-04   -0.15300E-04  5760   0.361E-04-0.602E-06
 gam= 0.903 trial= 0.648  step= 0.775 mean= 0.648
 gam= 1.034 g(H,U,f)=  0.217E-04 0.156E-04 0.946E-07 ort(H,U,f) =-0.102E-04 0.103E-04-0.255E-06
CGA: 218    -0.224143537792E+03   -0.13772E-04   -0.13779E-04  5760   0.373E-04-0.197E-06
 gam= 1.034 trial= 0.654  step= 1.090 mean= 0.654
 gam= 1.194 g(H,U,f)=  0.227E-04 0.218E-04 0.602E-07 ort(H,U,f) =-0.891E-05 0.102E-04-0.983E-07
CGA: 219    -0.224143557921E+03   -0.20130E-04   -0.20244E-04  5760   0.446E-04 0.122E-05
 gam= 1.194 trial= 0.676  step= 0.654 mean= 0.676
 gam= 0.875 g(H,U,f)=  0.201E-04 0.189E-04 0.193E-07 ort(H,U,f) =-0.106E-04 0.935E-05-0.284E-07
CGA: 220    -0.224143573067E+03   -0.15145E-04   -0.15060E-04  5760   0.390E-04-0.124E-05
 gam= 0.875 trial= 0.675  step= 0.580 mean= 0.675
 gam= 1.428 g(H,U,f)=  0.217E-04 0.339E-04 0.141E-06 ort(H,U,f) =-0.475E-05 0.486E-05-0.821E-07
CGA: 221    -0.224143584216E+03   -0.11149E-04   -0.11005E-04  5760   0.557E-04 0.266E-07
 gam= 1.428 trial= 0.670  step= 0.503 mean= 0.670
 gam= 0.749 g(H,U,f)=  0.208E-04 0.206E-04 0.310E-06 ort(H,U,f) =-0.114E-04 0.117E-04-0.615E-07
CGA: 222    -0.224143598461E+03   -0.14246E-04   -0.14027E-04  5760   0.417E-04 0.232E-06
 gam= 0.749 trial= 0.662  step= 0.646 mean= 0.662
 gam= 0.920 g(H,U,f)=  0.181E-04 0.201E-04 0.170E-06 ort(H,U,f) =-0.915E-05 0.899E-05 0.200E-06
CGA: 223    -0.224143611990E+03   -0.13528E-04   -0.13527E-04  5760   0.384E-04 0.473E-07
 gam= 0.920 trial= 0.661  step= 0.669 mean= 0.661
 gam= 1.057 g(H,U,f)=  0.188E-04 0.218E-04 0.402E-07 ort(H,U,f) =-0.908E-05 0.985E-05 0.180E-06
CGA: 224    -0.224143624846E+03   -0.12856E-04   -0.12858E-04  5760   0.406E-04 0.951E-06
 gam= 1.057 trial= 0.662  step= 0.719 mean= 0.662
 gam= 1.593 g(H,U,f)=  0.228E-04 0.418E-04 0.158E-07 ort(H,U,f) =-0.105E-04 0.113E-04 0.299E-07
CGA: 225    -0.224143639630E+03   -0.14784E-04   -0.14936E-04  5760   0.646E-04 0.835E-06
 gam= 1.593 trial= 0.664  step= 0.487 mean= 0.664
 gam= 0.999 g(H,U,f)=  0.287E-04 0.358E-04 0.357E-07 ort(H,U,f) =-0.225E-04 0.230E-04 0.241E-06
CGA: 226    -0.224143655864E+03   -0.16234E-04   -0.16048E-04  5760   0.645E-04 0.680E-06
 gam= 0.999 trial= 0.656  step= 0.635 mean= 0.656
 gam= 1.290 g(H,U,f)=  0.377E-04 0.455E-04 0.851E-08 ort(H,U,f) =-0.222E-04 0.218E-04 0.169E-06
CGA: 227    -0.224143676559E+03   -0.20694E-04   -0.20685E-04  5760   0.832E-04-0.185E-06
 gam= 1.290 trial= 0.655  step= 0.891 mean= 0.655
 gam= 1.653 g(H,U,f)=  0.635E-04 0.740E-04 0.464E-07 ort(H,U,f) =-0.322E-04 0.323E-04-0.375E-06
CGA: 228    -0.224143713501E+03   -0.36943E-04   -0.36966E-04  5760   0.138E-03-0.349E-06
 gam= 1.653 trial= 0.666  step= 0.531 mean= 0.666
 gam= 1.223 g(H,U,f)=  0.788E-04 0.891E-04 0.266E-06 ort(H,U,f) =-0.404E-04 0.478E-04-0.198E-05
CGA: 229    -0.224143750179E+03   -0.36678E-04   -0.36339E-04  5760   0.168E-03 0.546E-05
 gam= 1.223 trial= 0.660  step= 0.593 mean= 0.660
 gam= 1.259 g(H,U,f)=  0.946E-04 0.115E-03 0.204E-05 ort(H,U,f) =-0.437E-04 0.412E-04-0.759E-05
CGA: 230    -0.224143803668E+03   -0.53488E-04   -0.51816E-04  5760   0.212E-03-0.101E-04
 gam= 1.259 trial= 0.656  step= 0.910 mean= 0.656
 gam= 1.208 g(H,U,f)=  0.140E-03 0.112E-03 0.367E-05 ort(H,U,f) =-0.762E-04 0.729E-04-0.100E-04
CGA: 231    -0.224143893196E+03   -0.89528E-04   -0.90534E-04  5760   0.256E-03-0.133E-04
 gam= 1.208 trial= 0.669  step= 0.842 mean= 0.669
 gam= 1.307 g(H,U,f)=  0.175E-03 0.158E-03 0.744E-06 ort(H,U,f) =-0.902E-04 0.740E-04-0.201E-05
CGA: 232    -0.224143991979E+03   -0.98783E-04   -0.10097E-03  5760   0.334E-03-0.182E-04
 gam= 1.307 trial= 0.678  step= 1.035 mean= 0.678
 gam= 1.800 g(H,U,f)=  0.286E-03 0.315E-03 0.971E-06 ort(H,U,f) =-0.138E-03 0.126E-03-0.168E-05
CGA: 233    -0.224144150844E+03   -0.15887E-03   -0.16074E-03  5760   0.602E-03-0.145E-04
 gam= 1.800 trial= 0.696  step= 0.691 mean= 0.696
 gam= 1.557 g(H,U,f)=  0.403E-03 0.533E-03 0.151E-05 ort(H,U,f) =-0.263E-03 0.266E-03-0.758E-05
CGA: 234    -0.224144350204E+03   -0.19936E-03   -0.19889E-03  5760   0.937E-03-0.452E-05
 gam= 1.557 trial= 0.695  step= 0.325 mean= 0.695
 gam= 0.983 g(H,U,f)=  0.461E-03 0.457E-03 0.257E-05 ort(H,U,f) =-0.333E-03 0.390E-03-0.131E-04
CGA: 235    -0.224144516121E+03   -0.16592E-03   -0.15105E-03  5760   0.921E-03 0.433E-04
 gam= 0.983 trial= 0.677  step= 0.420 mean= 0.677
 gam= 1.590 g(H,U,f)=  0.516E-03 0.942E-03 0.506E-05 ort(H,U,f) =-0.265E-03 0.250E-03-0.154E-04
CGA: 236    -0.224144735063E+03   -0.21894E-03   -0.20214E-03  5760   0.146E-02-0.298E-04
 gam= 1.590 trial= 0.664  step= 0.180 mean= 0.664
 gam= 0.754 g(H,U,f)=  0.424E-03 0.674E-03 0.600E-05 ort(H,U,f) =-0.378E-03 0.659E-03-0.239E-04
CGA: 237    -0.224144911459E+03   -0.17640E-03   -0.12743E-03  5760   0.110E-02 0.257E-03
 gam= 0.754 trial= 0.640  step= 0.202 mean= 0.640
 gam= 1.162 g(H,U,f)=  0.428E-03 0.850E-03 0.468E-05 ort(H,U,f) =-0.247E-03 0.494E-03-0.122E-04
CGA: 238    -0.224145059493E+03   -0.14803E-03   -0.13112E-03  5760   0.128E-02 0.235E-03
 gam= 1.162 trial= 0.618  step= 0.243 mean= 0.618
 gam= 1.308 g(H,U,f)=  0.522E-03 0.116E-02 0.109E-05 ort(H,U,f) =-0.457E-03 0.610E-03-0.509E-05
CGA: 239    -0.224145262186E+03   -0.20269E-03   -0.18939E-03  5760   0.168E-02 0.148E-03
 gam= 1.308 trial= 0.599  step= 0.139 mean= 0.599
 gam= 0.937 g(H,U,f)=  0.543E-03 0.103E-02 0.185E-07 ort(H,U,f) =-0.625E-03 0.893E-03-0.187E-06
CGA: 240    -0.224145415012E+03   -0.15283E-03   -0.13003E-03  5760   0.157E-02 0.268E-03
 gam= 0.937 trial= 0.576  step= 0.154 mean= 0.576
 gam= 1.210 g(H,U,f)=  0.581E-03 0.132E-02 0.268E-06 ort(H,U,f) =-0.525E-03 0.729E-03 0.234E-05
CGA: 241    -0.224145571188E+03   -0.15618E-03   -0.14074E-03  5760   0.190E-02 0.206E-03
 gam= 1.210 trial= 0.555  step= 0.153 mean= 0.555
 gam= 0.000 g(H,U,f)=  0.574E-03 0.154E-02 0.394E-06 ort(H,U,f) =-0.662E-03 0.873E-03-0.157E-05
SDA: 242    -0.224145779768E+03   -0.20858E-03   -0.16453E-03  5760   0.211E-02 0.210E-03
 gam= 0.000 trial= 0.535  step= 0.388 mean= 0.535
 gam= 1.305 g(H,U,f)=  0.539E-03 0.221E-02 0.602E-06 ort(H,U,f) = 0.120E-03 0.184E-03 0.971E-07
CGA: 243    -0.224146212859E+03   -0.43309E-03   -0.40956E-03  5760   0.275E-02 0.305E-03
 gam= 1.305 trial= 0.528  step= 0.937 mean= 0.528
 gam= 1.826 g(H,U,f)=  0.176E-02 0.326E-02 0.110E-04 ort(H,U,f) =-0.691E-03 0.273E-03-0.476E-05
CGA: 244    -0.224147482631E+03   -0.12698E-02   -0.14765E-02  5760   0.503E-02-0.422E-03
 gam= 1.826 trial= 0.548  step= 0.343 mean= 0.548
 gam= 0.429 g(H,U,f)=  0.140E-02 0.752E-03 0.346E-05 ort(H,U,f) =-0.863E-03 0.887E-03 0.267E-05
CGA: 245    -0.224148255165E+03   -0.77253E-03   -0.72983E-03  5760   0.216E-02 0.275E-04
 gam= 0.429 trial= 0.538  step= 0.563 mean= 0.538
 gam= 0.799 g(H,U,f)=  0.891E-03 0.836E-03 0.309E-06 ort(H,U,f) =-0.737E-04 0.489E-04 0.850E-06
CGA: 246    -0.224148865679E+03   -0.61051E-03   -0.61119E-03  5760   0.173E-02-0.240E-04
 gam= 0.799 trial= 0.539  step= 0.564 mean= 0.539
 gam= 0.891 g(H,U,f)=  0.568E-03 0.969E-03 0.108E-05 ort(H,U,f) =-0.309E-03 0.328E-03-0.590E-06
CGA: 247    -0.224149346692E+03   -0.48101E-03   -0.48114E-03  5760   0.154E-02 0.184E-04
 gam= 0.891 trial= 0.540  step= 0.550 mean= 0.540
 gam= 1.509 g(H,U,f)=  0.851E-03 0.147E-02 0.910E-06 ort(H,U,f) =-0.471E-03 0.516E-03 0.234E-05
CGA: 248    -0.224149773811E+03   -0.42712E-03   -0.42755E-03  5760   0.232E-02 0.480E-04
 gam= 1.509 trial= 0.541  step= 0.604 mean= 0.541
 gam= 1.237 g(H,U,f)=  0.151E-02 0.135E-02 0.706E-05 ort(H,U,f) =-0.112E-02 0.105E-02 0.423E-05
CGA: 249    -0.224150477653E+03   -0.70384E-03   -0.72239E-03  5760   0.287E-02-0.665E-04
 gam= 1.237 trial= 0.544  step= 0.699 mean= 0.544
 gam= 1.337 g(H,U,f)=  0.209E-02 0.173E-02 0.239E-04 ort(H,U,f) =-0.992E-03 0.995E-03 0.245E-04
CGA: 250    -0.224151448803E+03   -0.97115E-03   -0.97382E-03  5760   0.384E-02 0.269E-04
 gam= 1.337 trial= 0.552  step= 0.662 mean= 0.552
 gam= 0.801 g(H,U,f)=  0.190E-02 0.117E-02 0.645E-06 ort(H,U,f) =-0.110E-02 0.110E-02 0.732E-05
CGA: 251    -0.224152723368E+03   -0.12746E-02   -0.12821E-02  5760   0.308E-02 0.947E-05
 gam= 0.801 trial= 0.557  step= 0.510 mean= 0.557
 gam= 0.842 g(H,U,f)=  0.150E-02 0.108E-02 0.572E-05 ort(H,U,f) =-0.318E-03 0.327E-03-0.203E-04
CGA: 252    -0.224153510628E+03   -0.78726E-03   -0.78655E-03  5760   0.259E-02-0.114E-04
 gam= 0.842 trial= 0.555  step= 0.634 mean= 0.555
 gam= 1.179 g(H,U,f)=  0.127E-02 0.177E-02 0.545E-05 ort(H,U,f) =-0.262E-03 0.273E-03-0.111E-04
CGA: 253    -0.224154318893E+03   -0.80827E-03   -0.81818E-03  5760   0.305E-02 0.208E-06
 gam= 1.179 trial= 0.559  step= 0.478 mean= 0.559
 gam= 0.659 g(H,U,f)=  0.109E-02 0.921E-03 0.321E-05 ort(H,U,f) =-0.697E-03 0.690E-03-0.981E-07
CGA: 254    -0.224155055390E+03   -0.73650E-03   -0.73010E-03  5760   0.201E-02-0.666E-05
 gam= 0.659 trial= 0.555  step= 0.577 mean= 0.555
 gam= 1.029 g(H,U,f)=  0.984E-03 0.109E-02 0.314E-05 ort(H,U,f) =-0.321E-03 0.310E-03 0.760E-05
CGA: 255    -0.224155633004E+03   -0.57761E-03   -0.57947E-03  5760   0.207E-02-0.313E-05
 gam= 1.029 trial= 0.556  step= 0.819 mean= 0.556
 gam= 1.094 g(H,U,f)=  0.116E-02 0.110E-02 0.175E-06 ort(H,U,f) =-0.659E-03 0.667E-03 0.295E-05
CGA: 256    -0.224156479445E+03   -0.84644E-03   -0.84726E-03  5760   0.227E-02 0.108E-04
 gam= 1.094 trial= 0.569  step= 0.496 mean= 0.569
 gam= 0.819 g(H,U,f)=  0.114E-02 0.716E-03 0.114E-05 ort(H,U,f) =-0.517E-03 0.516E-03-0.573E-05
CGA: 257    -0.224157047049E+03   -0.56760E-03   -0.56466E-03  5760   0.186E-02-0.634E-05
 gam= 0.819 trial= 0.565  step= 0.659 mean= 0.565
 gam= 1.106 g(H,U,f)=  0.106E-02 0.990E-03 0.109E-05 ort(H,U,f) =-0.262E-03 0.279E-03-0.406E-05
CGA: 258    -0.224157650854E+03   -0.60380E-03   -0.60974E-03  5760   0.205E-02 0.128E-04
 gam= 1.106 trial= 0.570  step= 0.491 mean= 0.570
 gam= 0.685 g(H,U,f)=  0.849E-03 0.557E-03 0.603E-06 ort(H,U,f) =-0.367E-03 0.352E-03-0.517E-05
CGA: 259    -0.224158164794E+03   -0.51394E-03   -0.50735E-03  5760   0.141E-02-0.202E-04
 gam= 0.685 trial= 0.566  step= 0.579 mean= 0.566
 gam= 0.852 g(H,U,f)=  0.692E-03 0.506E-03 0.266E-06 ort(H,U,f) =-0.146E-03 0.129E-03 0.267E-06
CGA: 260    -0.224158567545E+03   -0.40275E-03   -0.40328E-03  5760   0.120E-02-0.163E-04
 gam= 0.852 trial= 0.567  step= 0.548 mean= 0.567
 gam= 0.774 g(H,U,f)=  0.558E-03 0.370E-03 0.517E-07 ort(H,U,f) =-0.108E-03 0.105E-03 0.255E-06
CGA: 261    -0.224158892336E+03   -0.32479E-03   -0.32441E-03  5760   0.928E-03-0.302E-05
 gam= 0.774 trial= 0.566  step= 0.543 mean= 0.566
 gam= 0.825 g(H,U,f)=  0.407E-03 0.358E-03 0.808E-06 ort(H,U,f) =-0.499E-04 0.475E-04-0.112E-05
CGA: 262    -0.224159143779E+03   -0.25144E-03   -0.25131E-03  5760   0.766E-03-0.354E-05
 gam= 0.825 trial= 0.565  step= 0.522 mean= 0.565
 gam= 0.641 g(H,U,f)=  0.285E-03 0.204E-03 0.203E-05 ort(H,U,f) =-0.115E-03 0.111E-03-0.373E-07
CGA: 263    -0.224159343147E+03   -0.19937E-03   -0.19911E-03  5760   0.491E-03-0.423E-05
 gam= 0.641 trial= 0.562  step= 0.546 mean= 0.562
 gam= 0.875 g(H,U,f)=  0.233E-03 0.197E-03 0.188E-06 ort(H,U,f) =-0.659E-04 0.752E-04-0.375E-06
CGA: 264    -0.224159476610E+03   -0.13346E-03   -0.13329E-03  5760   0.430E-03 0.894E-05
 gam= 0.875 trial= 0.562  step= 0.689 mean= 0.562
 gam= 1.120 g(H,U,f)=  0.229E-03 0.251E-03 0.418E-06 ort(H,U,f) =-0.126E-03 0.123E-03-0.984E-06
CGA: 265    -0.224159625416E+03   -0.14881E-03   -0.15062E-03  5760   0.481E-03-0.423E-05
 gam= 1.120 trial= 0.568  step= 0.488 mean= 0.568
 gam= 0.841 g(H,U,f)=  0.233E-03 0.171E-03 0.847E-06 ort(H,U,f) =-0.176E-03 0.178E-03-0.107E-05
CGA: 266    -0.224159742379E+03   -0.11696E-03   -0.11625E-03  5760   0.404E-03 0.339E-06
 gam= 0.841 trial= 0.564  step= 0.685 mean= 0.564
 gam= 1.487 g(H,U,f)=  0.304E-03 0.297E-03 0.950E-07 ort(H,U,f) =-0.136E-03 0.133E-03 0.205E-07
CGA: 267    -0.224159880208E+03   -0.13783E-03   -0.13864E-03  5760   0.601E-03-0.318E-05
 gam= 1.487 trial= 0.570  step= 0.684 mean= 0.570
 gam= 0.911 g(H,U,f)=  0.369E-03 0.178E-03 0.977E-06 ort(H,U,f) =-0.286E-03 0.281E-03 0.169E-06
CGA: 268    -0.224160083532E+03   -0.20332E-03   -0.20389E-03  5760   0.548E-03-0.452E-05
 gam= 0.911 trial= 0.576  step= 0.648 mean= 0.576
 gam= 1.309 g(H,U,f)=  0.447E-03 0.270E-03 0.200E-06 ort(H,U,f) =-0.161E-03 0.165E-03 0.172E-06
CGA: 269    -0.224160259798E+03   -0.17627E-03   -0.17625E-03  5760   0.717E-03 0.467E-05
 gam= 1.309 trial= 0.579  step= 0.791 mean= 0.579
 gam= 1.090 g(H,U,f)=  0.506E-03 0.271E-03 0.513E-05 ort(H,U,f) =-0.233E-03 0.229E-03-0.318E-05
CGA: 270    -0.224160545038E+03   -0.28524E-03   -0.28613E-03  5760   0.782E-03-0.680E-05
 gam= 1.090 trial= 0.590  step= 0.636 mean= 0.590
 gam= 1.008 g(H,U,f)=  0.496E-03 0.289E-03 0.318E-05 ort(H,U,f) =-0.201E-03 0.193E-03 0.130E-05
CGA: 271    -0.224160790978E+03   -0.24594E-03   -0.24617E-03  5760   0.788E-03-0.620E-05
 gam= 1.008 trial= 0.592  step= 0.625 mean= 0.592
 gam= 0.895 g(H,U,f)=  0.454E-03 0.251E-03 0.457E-06 ort(H,U,f) =-0.179E-03 0.184E-03-0.140E-05
CGA: 272    -0.224161035395E+03   -0.24442E-03   -0.24426E-03  5760   0.705E-03 0.433E-05
 gam= 0.895 trial= 0.594  step= 0.616 mean= 0.594
 gam= 0.000 g(H,U,f)=  0.426E-03 0.281E-03 0.258E-05 ort(H,U,f) =-0.127E-03 0.128E-03-0.299E-05
SDA: 273    -0.224161253731E+03   -0.21834E-03   -0.21832E-03  5760   0.710E-03-0.112E-05
 gam= 0.000 trial= 0.595  step= 0.487 mean= 0.595
 gam= 0.597 g(H,U,f)=  0.185E-03 0.239E-03 0.318E-06 ort(H,U,f) = 0.711E-04-0.662E-04-0.831E-06
CGA: 274    -0.224161427251E+03   -0.17352E-03   -0.17279E-03  5760   0.424E-03 0.409E-05
 gam= 0.597 trial= 0.590  step= 0.551 mean= 0.590
 gam= 0.804 g(H,U,f)=  0.112E-03 0.226E-03 0.258E-05 ort(H,U,f) =-0.851E-05 0.176E-04-0.693E-06
CGA: 275    -0.224161545068E+03   -0.11782E-03   -0.11749E-03  5760   0.341E-03 0.840E-05
 gam= 0.804 trial= 0.588  step= 0.391 mean= 0.588
 gam= 0.669 g(H,U,f)=  0.884E-04 0.137E-03 0.278E-05 ort(H,U,f) =-0.415E-04 0.559E-04 0.209E-05
CGA: 276    -0.224161616549E+03   -0.71481E-04   -0.67972E-04  5760   0.228E-03 0.166E-04
 gam= 0.669 trial= 0.578  step= 0.569 mean= 0.578
 gam= 0.851 g(H,U,f)=  0.791E-04 0.115E-03 0.188E-06 ort(H,U,f) =-0.585E-04 0.597E-04-0.866E-06
CGA: 277    -0.224161684560E+03   -0.68011E-04   -0.67989E-04  5760   0.194E-03 0.295E-06
 gam= 0.851 trial= 0.577  step= 0.664 mean= 0.577
 gam= 1.196 g(H,U,f)=  0.969E-04 0.134E-03 0.140E-05 ort(H,U,f) =-0.520E-04 0.480E-04-0.187E-05
CGA: 278    -0.224161748743E+03   -0.64183E-04   -0.64540E-04  5760   0.232E-03-0.580E-05
 gam= 1.196 trial= 0.582  step= 0.833 mean= 0.582
 gam= 1.088 g(H,U,f)=  0.112E-03 0.140E-03 0.234E-06 ort(H,U,f) =-0.637E-04 0.620E-04-0.330E-06
CGA: 279    -0.224161841815E+03   -0.93072E-04   -0.93807E-04  5760   0.252E-03-0.197E-05
 gam= 1.088 trial= 0.594  step= 0.638 mean= 0.594
 gam= 0.776 g(H,U,f)=  0.104E-03 0.917E-04 0.503E-06 ort(H,U,f) =-0.523E-04 0.523E-04 0.603E-06
CGA: 280    -0.224161921709E+03   -0.79894E-04   -0.79898E-04  5760   0.196E-03 0.614E-06
 gam= 0.776 trial= 0.597  step= 1.208 mean= 0.597
 gam= 1.379 g(H,U,f)=  0.128E-03 0.142E-03 0.127E-06 ort(H,U,f) =-0.487E-04 0.462E-04 0.521E-06
CGA: 281    -0.224162039062E+03   -0.11735E-03   -0.11866E-03  5760   0.270E-03-0.196E-05
 gam= 1.379 trial= 0.627  step= 0.538 mean= 0.627
 gam= 0.668 g(H,U,f)=  0.927E-04 0.866E-04 0.132E-05 ort(H,U,f) =-0.612E-04 0.642E-04-0.142E-05
CGA: 282    -0.224162111030E+03   -0.71967E-04   -0.71992E-04  5760   0.181E-03 0.150E-05
 gam= 0.668 trial= 0.623  step= 0.629 mean= 0.623
 gam= 1.693 g(H,U,f)=  0.947E-04 0.209E-03 0.160E-05 ort(H,U,f) =-0.103E-04 0.204E-04 0.423E-06
CGA: 283    -0.224162168108E+03   -0.57078E-04   -0.57131E-04  5760   0.306E-03 0.105E-04
 gam= 1.693 trial= 0.623  step= 0.494 mean= 0.623
 gam= 0.580 g(H,U,f)=  0.894E-04 0.856E-04 0.219E-05 ort(H,U,f) =-0.732E-04 0.710E-04 0.200E-05
CGA: 284    -0.224162249290E+03   -0.81182E-04   -0.79913E-04  5760   0.177E-03-0.234E-06
 gam= 0.580 trial= 0.617  step= 0.733 mean= 0.617
 gam= 0.975 g(H,U,f)=  0.842E-04 0.885E-04 0.319E-07 ort(H,U,f) =-0.286E-04 0.310E-04 0.379E-06
CGA: 285    -0.224162313861E+03   -0.64571E-04   -0.64861E-04  5760   0.173E-03 0.283E-05
 gam= 0.975 trial= 0.622  step= 0.740 mean= 0.622
 gam= 1.169 g(H,U,f)=  0.815E-04 0.120E-03 0.133E-06 ort(H,U,f) =-0.304E-04 0.355E-04 0.625E-06
CGA: 286    -0.224162378202E+03   -0.64341E-04   -0.64945E-04  5760   0.202E-03 0.574E-05
 gam= 1.169 trial= 0.628  step= 0.458 mean= 0.628
 gam= 0.985 g(H,U,f)=  0.748E-04 0.124E-03 0.759E-07 ort(H,U,f) =-0.342E-04 0.445E-04 0.274E-06
CGA: 287    -0.224162429067E+03   -0.50865E-04   -0.47785E-04  5760   0.199E-03 0.106E-04
 gam= 0.985 trial= 0.620  step= 0.626 mean= 0.620
 gam= 1.040 g(H,U,f)=  0.844E-04 0.122E-03 0.439E-06 ort(H,U,f) =-0.535E-04 0.493E-04 0.130E-05
CGA: 288    -0.224162494556E+03   -0.65489E-04   -0.65526E-04  5760   0.207E-03-0.294E-05
 gam= 1.040 trial= 0.620  step= 0.623 mean= 0.620
 gam= 1.045 g(H,U,f)=  0.925E-04 0.123E-03 0.835E-07 ort(H,U,f) =-0.500E-04 0.514E-04 0.659E-06
CGA: 289    -0.224162558033E+03   -0.63476E-04   -0.63474E-04  5760   0.216E-03 0.213E-05
 gam= 1.045 trial= 0.620  step= 0.723 mean= 0.620
 gam= 0.810 g(H,U,f)=  0.825E-04 0.919E-04 0.542E-06 ort(H,U,f) =-0.548E-04 0.567E-04-0.301E-05
CGA: 290    -0.224162636898E+03   -0.78865E-04   -0.78839E-04  5760   0.175E-03-0.115E-05
 gam= 0.810 trial= 0.625  step= 0.628 mean= 0.625
 gam= 1.052 g(H,U,f)=  0.821E-04 0.999E-04 0.210E-05 ort(H,U,f) =-0.309E-04 0.278E-04-0.357E-05
CGA: 291    -0.224162691554E+03   -0.54656E-04   -0.54672E-04  5760   0.184E-03-0.668E-05
 gam= 1.052 trial= 0.625  step= 0.840 mean= 0.625
 gam= 1.029 g(H,U,f)=  0.839E-04 0.105E-03 0.350E-06 ort(H,U,f) =-0.396E-04 0.364E-04-0.812E-06
CGA: 292    -0.224162765073E+03   -0.73519E-04   -0.74349E-04  5760   0.189E-03-0.401E-05
 gam= 1.029 trial= 0.636  step= 0.375 mean= 0.636
 gam= 0.741 g(H,U,f)=  0.609E-04 0.790E-04 0.422E-06 ort(H,U,f) =-0.171E-04 0.304E-04-0.463E-06
CGA: 293    -0.224162801998E+03   -0.36925E-04   -0.34728E-04  5760   0.140E-03 0.129E-04
 gam= 0.741 trial= 0.623  step= 0.635 mean= 0.623
 gam= 1.243 g(H,U,f)=  0.636E-04 0.110E-03 0.295E-06 ort(H,U,f) =-0.205E-04 0.211E-04-0.252E-06
CGA: 294    -0.224162849460E+03   -0.47463E-04   -0.47540E-04  5760   0.174E-03 0.323E-06
 gam= 1.243 trial= 0.624  step= 0.704 mean= 0.624
 gam= 0.797 g(H,U,f)=  0.764E-04 0.619E-04 0.648E-06 ort(H,U,f) =-0.598E-04 0.531E-04 0.182E-06
CGA: 295    -0.224162910229E+03   -0.60769E-04   -0.61455E-04  5760   0.139E-03-0.653E-05
 gam= 0.797 trial= 0.628  step= 0.722 mean= 0.628
 gam= 1.353 g(H,U,f)=  0.872E-04 0.101E-03 0.942E-07 ort(H,U,f) =-0.242E-04 0.266E-04 0.210E-06
CGA: 296    -0.224162958556E+03   -0.48327E-04   -0.48292E-04  5760   0.188E-03 0.263E-05
 gam= 1.353 trial= 0.632  step= 0.524 mean= 0.632
 gam= 0.980 g(H,U,f)=  0.756E-04 0.108E-03 0.122E-06 ort(H,U,f) =-0.243E-04 0.413E-04 0.459E-06
CGA: 297    -0.224163010511E+03   -0.51955E-04   -0.50185E-04  5760   0.184E-03 0.175E-04
 gam= 0.980 trial= 0.627  step= 0.500 mean= 0.627
 gam= 0.793 g(H,U,f)=  0.619E-04 0.840E-04 0.212E-06 ort(H,U,f) =-0.342E-04 0.335E-04-0.990E-06
CGA: 298    -0.224163062730E+03   -0.52219E-04   -0.50297E-04  5760   0.146E-03-0.166E-05
 gam= 0.793 trial= 0.621  step= 0.539 mean= 0.621
 gam= 0.964 g(H,U,f)=  0.625E-04 0.782E-04 0.738E-07 ort(H,U,f) =-0.261E-04 0.227E-04-0.364E-06
CGA: 299    -0.224163102214E+03   -0.39484E-04   -0.39031E-04  5760   0.141E-03-0.385E-05
 gam= 0.964 trial= 0.617  step= 0.713 mean= 0.617
 gam= 0.823 g(H,U,f)=  0.530E-04 0.626E-04 0.213E-06 ort(H,U,f) =-0.299E-04 0.296E-04-0.465E-06
CGA: 300    -0.224163150978E+03   -0.48764E-04   -0.48825E-04  5760   0.116E-03-0.708E-06
 gam= 0.823 trial= 0.621  step= 0.515 mean= 0.621
 gam= 0.934 g(H,U,f)=  0.454E-04 0.627E-04 0.111E-06 ort(H,U,f) =-0.147E-04 0.245E-04-0.139E-06
CGA: 301    -0.224163181382E+03   -0.30404E-04   -0.29675E-04  5760   0.108E-03 0.970E-05
 gam= 0.934 trial= 0.616  step= 0.517 mean= 0.616
 gam= 1.211 g(H,U,f)=  0.485E-04 0.819E-04 0.633E-06 ort(H,U,f) =-0.180E-04 0.190E-04-0.132E-06
CGA: 302    -0.224163212909E+03   -0.31527E-04   -0.30336E-04  5760   0.131E-03 0.882E-06
 gam= 1.211 trial= 0.611  step= 0.682 mean= 0.611
 gam= 0.930 g(H,U,f)=  0.649E-04 0.566E-04 0.311E-06 ort(H,U,f) =-0.508E-04 0.463E-04 0.330E-06
CGA: 303    -0.224163257665E+03   -0.44756E-04   -0.45073E-04  5760   0.122E-03-0.413E-05
 gam= 0.930 trial= 0.615  step= 0.796 mean= 0.615
 gam= 0.000 g(H,U,f)=  0.792E-04 0.973E-04 0.227E-06 ort(H,U,f) =-0.373E-04 0.396E-04 0.380E-06
SDA: 304    -0.224163304450E+03   -0.46785E-04   -0.46967E-04  5760   0.177E-03 0.268E-05
 gam= 0.000 trial= 0.624  step= 0.289 mean= 0.624
 gam= 0.574 g(H,U,f)=  0.382E-04 0.631E-04 0.803E-07 ort(H,U,f) = 0.309E-04-0.182E-04 0.949E-07
CGA: 305    -0.224163331757E+03   -0.27306E-04   -0.25504E-04  5760   0.101E-03 0.128E-04
 gam= 0.574 trial= 0.607  step= 0.548 mean= 0.607
 gam= 0.961 g(H,U,f)=  0.325E-04 0.646E-04 0.271E-06 ort(H,U,f) =-0.701E-05 0.807E-05 0.218E-06
CGA: 306    -0.224163361835E+03   -0.30078E-04   -0.29808E-04  5760   0.975E-04 0.127E-05
 gam= 0.961 trial= 0.604  step= 0.557 mean= 0.604
 gam= 0.604 g(H,U,f)=  0.326E-04 0.263E-04 0.137E-07 ort(H,U,f) =-0.312E-04 0.322E-04 0.693E-07
CGA: 307    -0.224163389416E+03   -0.27581E-04   -0.27460E-04  5760   0.589E-04 0.108E-05
 gam= 0.604 trial= 0.602  step= 0.789 mean= 0.602
 gam= 1.583 g(H,U,f)=  0.399E-04 0.532E-04 0.476E-07 ort(H,U,f) =-0.138E-04 0.142E-04 0.633E-07
CGA: 308    -0.224163412160E+03   -0.22744E-04   -0.23486E-04  5760   0.932E-04 0.431E-06
 gam= 1.583 trial= 0.611  step= 0.598 mean= 0.611
 gam= 0.987 g(H,U,f)=  0.408E-04 0.510E-04 0.136E-06 ort(H,U,f) =-0.265E-04 0.262E-04-0.971E-07
CGA: 309    -0.224163440287E+03   -0.28127E-04   -0.28081E-04  5760   0.920E-04-0.418E-06
 gam= 0.987 trial= 0.610  step= 0.449 mean= 0.610
 gam= 0.881 g(H,U,f)=  0.354E-04 0.456E-04 0.724E-07 ort(H,U,f) =-0.187E-04 0.198E-04 0.117E-06
CGA: 310    -0.224163461276E+03   -0.20989E-04   -0.20547E-04  5760   0.810E-04 0.114E-05
 gam= 0.881 trial= 0.602  step= 0.631 mean= 0.602
 gam= 1.163 g(H,U,f)=  0.380E-04 0.561E-04 0.110E-06 ort(H,U,f) =-0.175E-04 0.183E-04-0.353E-06
CGA: 311    -0.224163487112E+03   -0.25835E-04   -0.25868E-04  5760   0.942E-04 0.443E-06
 gam= 1.163 trial= 0.604  step= 0.660 mean= 0.604
 gam= 1.058 g(H,U,f)=  0.471E-04 0.524E-04 0.161E-06 ort(H,U,f) =-0.252E-04 0.228E-04-0.347E-06
CGA: 312    -0.224163518187E+03   -0.31075E-04   -0.31252E-04  5760   0.997E-04-0.273E-05
 gam= 1.058 trial= 0.607  step= 0.716 mean= 0.607
 gam= 0.875 g(H,U,f)=  0.473E-04 0.394E-04 0.541E-06 ort(H,U,f) =-0.239E-04 0.230E-04 0.746E-08
CGA: 313    -0.224163552805E+03   -0.34618E-04   -0.34659E-04  5760   0.873E-04-0.890E-06
 gam= 0.875 trial= 0.612  step= 0.725 mean= 0.612
 gam= 0.858 g(H,U,f)=  0.362E-04 0.384E-04 0.206E-06 ort(H,U,f) =-0.148E-04 0.169E-04 0.447E-06
CGA: 314    -0.224163584191E+03   -0.31386E-04   -0.31344E-04  5760   0.749E-04 0.259E-05
 gam= 0.858 trial= 0.618  step= 0.576 mean= 0.618
 gam= 1.228 g(H,U,f)=  0.317E-04 0.600E-04 0.235E-06 ort(H,U,f) =-0.818E-05 0.126E-04 0.333E-06
CGA: 315    -0.224163606539E+03   -0.22349E-04   -0.22215E-04  5760   0.919E-04 0.475E-05
 gam= 1.228 trial= 0.616  step= 0.438 mean= 0.616
 gam= 0.806 g(H,U,f)=  0.332E-04 0.407E-04 0.124E-06 ort(H,U,f) =-0.180E-04 0.185E-04 0.295E-06
CGA: 316    -0.224163629209E+03   -0.22670E-04   -0.21415E-04  5760   0.740E-04 0.851E-06
 gam= 0.806 trial= 0.607  step= 0.832 mean= 0.607
 gam= 1.237 g(H,U,f)=  0.398E-04 0.515E-04 0.357E-06 ort(H,U,f) =-0.213E-04 0.222E-04 0.623E-06
CGA: 317    -0.224163660409E+03   -0.31200E-04   -0.31078E-04  5760   0.916E-04 0.151E-05
 gam= 1.237 trial= 0.618  step= 0.603 mean= 0.618
 gam= 0.997 g(H,U,f)=  0.421E-04 0.492E-04 0.697E-07 ort(H,U,f) =-0.246E-04 0.270E-04 0.636E-06
CGA: 318    -0.224163688601E+03   -0.28192E-04   -0.28199E-04  5760   0.913E-04 0.297E-05
 gam= 0.997 trial= 0.617  step= 0.722 mean= 0.617
 gam= 1.164 g(H,U,f)=  0.487E-04 0.575E-04 0.755E-07 ort(H,U,f) =-0.218E-04 0.227E-04 0.218E-06
CGA: 319    -0.224163722528E+03   -0.33927E-04   -0.34046E-04  5760   0.106E-03 0.109E-05
 gam= 1.164 trial= 0.623  step= 0.700 mean= 0.623
 gam= 1.206 g(H,U,f)=  0.502E-04 0.776E-04 0.348E-06 ort(H,U,f) =-0.238E-04 0.242E-04-0.140E-05
CGA: 320    -0.224163759928E+03   -0.37400E-04   -0.37627E-04  5760   0.128E-03-0.967E-06
 gam= 1.206 trial= 0.626  step= 0.412 mean= 0.626
 gam= 0.730 g(H,U,f)=  0.445E-04 0.489E-04 0.176E-06 ort(H,U,f) =-0.218E-04 0.244E-04-0.145E-05
CGA: 321    -0.224163786972E+03   -0.27044E-04   -0.26162E-04  5760   0.935E-04 0.117E-05
 gam= 0.730 trial= 0.616  step= 0.668 mean= 0.616
 gam= 0.998 g(H,U,f)=  0.419E-04 0.513E-04 0.203E-06 ort(H,U,f) =-0.164E-04 0.148E-04-0.945E-06
CGA: 322    -0.224163818080E+03   -0.31108E-04   -0.31499E-04  5760   0.934E-04-0.247E-05
 gam= 0.998 trial= 0.618  step= 0.791 mean= 0.618
 gam= 1.034 g(H,U,f)=  0.452E-04 0.513E-04 0.669E-07 ort(H,U,f) =-0.249E-04 0.211E-04-0.262E-06
CGA: 323    -0.224163852748E+03   -0.34668E-04   -0.35960E-04  5760   0.966E-04-0.413E-05
 gam= 1.034 trial= 0.627  step= 0.473 mean= 0.627
 gam= 0.977 g(H,U,f)=  0.448E-04 0.489E-04 0.667E-06 ort(H,U,f) =-0.155E-04 0.174E-04-0.786E-06
CGA: 324    -0.224163875518E+03   -0.22770E-04   -0.21811E-04  5760   0.944E-04 0.112E-05
 gam= 0.977 trial= 0.619  step= 0.652 mean= 0.619
 gam= 1.311 g(H,U,f)=  0.430E-04 0.799E-04 0.719E-06 ort(H,U,f) =-0.147E-04 0.145E-04-0.509E-06
CGA: 325    -0.224163906596E+03   -0.31078E-04   -0.31137E-04  5760   0.124E-03-0.641E-06
 gam= 1.311 trial= 0.621  step= 0.535 mean= 0.621
 gam= 0.717 g(H,U,f)=  0.459E-04 0.423E-04 0.496E-06 ort(H,U,f) =-0.380E-04 0.364E-04-0.719E-07
CGA: 326    -0.224163939736E+03   -0.33140E-04   -0.32889E-04  5760   0.887E-04-0.170E-05
 gam= 0.717 trial= 0.617  step= 0.801 mean= 0.617
 gam= 1.296 g(H,U,f)=  0.553E-04 0.596E-04 0.332E-07 ort(H,U,f) =-0.221E-04 0.227E-04-0.241E-06
CGA: 327    -0.224163974876E+03   -0.35140E-04   -0.35048E-04  5760   0.115E-03 0.343E-06
 gam= 1.296 trial= 0.626  step= 0.856 mean= 0.626
 gam= 1.234 g(H,U,f)=  0.663E-04 0.754E-04 0.667E-07 ort(H,U,f) =-0.335E-04 0.349E-04 0.104E-06
CGA: 328    -0.224164024285E+03   -0.49409E-04   -0.49377E-04  5760   0.142E-03 0.145E-05
 gam= 1.234 trial= 0.637  step= 0.719 mean= 0.637
 gam= 0.891 g(H,U,f)=  0.673E-04 0.590E-04 0.350E-07 ort(H,U,f) =-0.420E-04 0.434E-04 0.103E-06
CGA: 329    -0.224164075917E+03   -0.51632E-04   -0.51606E-04  5760   0.126E-03 0.146E-05
 gam= 0.891 trial= 0.641  step= 0.824 mean= 0.641
 gam= 1.473 g(H,U,f)=  0.689E-04 0.117E-03 0.388E-06 ort(H,U,f) =-0.298E-04 0.328E-04-0.107E-05
CGA: 330    -0.224164127358E+03   -0.51440E-04   -0.52630E-04  5760   0.186E-03 0.190E-05
 gam= 1.473 trial= 0.651  step= 0.419 mean= 0.651
 gam= 0.939 g(H,U,f)=  0.697E-04 0.105E-03 0.384E-06 ort(H,U,f) =-0.388E-04 0.407E-04-0.119E-05
CGA: 331    -0.224164168720E+03   -0.41363E-04   -0.39532E-04  5760   0.175E-03 0.685E-06
 gam= 0.939 trial= 0.639  step= 0.745 mean= 0.639
 gam= 1.018 g(H,U,f)=  0.823E-04 0.952E-04 0.244E-06 ort(H,U,f) =-0.567E-04 0.536E-04-0.125E-06
CGA: 332    -0.224164233604E+03   -0.64883E-04   -0.65283E-04  5760   0.178E-03-0.327E-05
 gam= 1.018 trial= 0.644  step= 0.851 mean= 0.644
 gam= 1.642 g(H,U,f)=  0.118E-03 0.174E-03 0.409E-06 ort(H,U,f) =-0.549E-04 0.542E-04 0.594E-06
CGA: 333    -0.224164307458E+03   -0.73854E-04   -0.74273E-04  5760   0.292E-03-0.734E-07
 gam= 1.642 trial= 0.655  step= 0.801 mean= 0.655
 gam= 2.186 g(H,U,f)=  0.211E-03 0.427E-03 0.951E-07 ort(H,U,f) =-0.100E-03 0.105E-03 0.557E-06
CGA: 334    -0.224164424201E+03   -0.11674E-03   -0.11688E-03  5760   0.638E-03 0.554E-05
 gam= 2.186 trial= 0.662  step= 0.753 mean= 0.662
 gam= 0.000 g(H,U,f)=  0.551E-03 0.601E-03 0.137E-05 ort(H,U,f) =-0.374E-03 0.365E-03-0.684E-05
SDA: 335    -0.224164664086E+03   -0.23988E-03   -0.24493E-03  5760   0.115E-02-0.162E-04
 gam= 0.000 trial= 0.667  step= 0.298 mean= 0.667
 gam= 0.662 g(H,U,f)=  0.310E-03 0.453E-03 0.111E-06 ort(H,U,f) = 0.258E-03-0.822E-04 0.365E-06
CGA: 336    -0.224164867971E+03   -0.20389E-03   -0.17189E-03  5760   0.764E-03 0.177E-03
 gam= 0.662 trial= 0.648  step= 0.665 mean= 0.648
 gam= 0.869 g(H,U,f)=  0.223E-03 0.441E-03 0.445E-06 ort(H,U,f) =-0.788E-04 0.665E-04-0.633E-06
CGA: 337    -0.224165160250E+03   -0.29228E-03   -0.29253E-03  5760   0.664E-03-0.129E-04
 gam= 0.869 trial= 0.649  step= 0.472 mean= 0.649
 gam= 0.695 g(H,U,f)=  0.229E-03 0.232E-03 0.320E-06 ort(H,U,f) =-0.147E-03 0.150E-03-0.386E-07
CGA: 338    -0.224165314775E+03   -0.15452E-03   -0.15400E-03  5760   0.461E-03 0.315E-05
 gam= 0.695 trial= 0.640  step= 0.618 mean= 0.640
 gam= 0.913 g(H,U,f)=  0.190E-03 0.231E-03 0.324E-06 ort(H,U,f) =-0.727E-04 0.734E-04-0.239E-07
CGA: 339    -0.224165458046E+03   -0.14327E-03   -0.14321E-03  5760   0.421E-03 0.683E-06
 gam= 0.913 trial= 0.639  step= 0.586 mean= 0.639
 gam= 0.778 g(H,U,f)=  0.133E-03 0.193E-03 0.145E-05 ort(H,U,f) =-0.813E-04 0.905E-04 0.446E-06
CGA: 340    -0.224165581787E+03   -0.12374E-03   -0.12356E-03  5760   0.328E-03 0.961E-05
 gam= 0.778 trial= 0.636  step= 0.444 mean= 0.636
 gam= 1.104 g(H,U,f)=  0.134E-03 0.228E-03 0.344E-06 ort(H,U,f) =-0.394E-04 0.517E-04 0.834E-06
CGA: 341    -0.224165659535E+03   -0.77748E-04   -0.74408E-04  5760   0.362E-03 0.132E-04
 gam= 1.104 trial= 0.627  step= 0.606 mean= 0.627
 gam= 0.956 g(H,U,f)=  0.165E-03 0.180E-03 0.328E-06 ort(H,U,f) =-0.846E-04 0.850E-04-0.110E-05
CGA: 342    -0.224165773471E+03   -0.11394E-03   -0.11394E-03  5760   0.346E-03-0.742E-06
 gam= 0.956 trial= 0.626  step= 0.766 mean= 0.626
 gam= 1.093 g(H,U,f)=  0.176E-03 0.201E-03 0.419E-06 ort(H,U,f) =-0.107E-03 0.104E-03-0.675E-06
CGA: 343    -0.224165905235E+03   -0.13176E-03   -0.13208E-03  5760   0.378E-03-0.387E-05
 gam= 1.093 trial= 0.633  step= 0.521 mean= 0.633
 gam= 1.212 g(H,U,f)=  0.185E-03 0.273E-03 0.136E-06 ort(H,U,f) =-0.824E-04 0.906E-04 0.435E-06
CGA: 344    -0.224166002940E+03   -0.97705E-04   -0.97201E-04  5760   0.458E-03 0.864E-05
 gam= 1.212 trial= 0.627  step= 0.457 mean= 0.627
 gam= 0.749 g(H,U,f)=  0.184E-03 0.157E-03 0.241E-05 ort(H,U,f) =-0.103E-03 0.114E-03 0.221E-05
CGA: 345    -0.224166112431E+03   -0.10949E-03   -0.10708E-03  5760   0.343E-03 0.130E-04
 gam= 0.749 trial= 0.619  step= 0.866 mean= 0.619
 gam= 1.505 g(H,U,f)=  0.234E-03 0.281E-03 0.749E-06 ort(H,U,f) =-0.833E-04 0.736E-04 0.144E-05
CGA: 346    -0.224166258952E+03   -0.14652E-03   -0.15265E-03  5760   0.516E-03-0.832E-05
 gam= 1.505 trial= 0.631  step= 0.569 mean= 0.631
 gam= 0.763 g(H,U,f)=  0.212E-03 0.181E-03 0.184E-06 ort(H,U,f) =-0.129E-03 0.128E-03 0.342E-06
CGA: 347    -0.224166402412E+03   -0.14346E-03   -0.14324E-03  5760   0.394E-03-0.887E-06
 gam= 0.763 trial= 0.628  step= 0.661 mean= 0.628
 gam= 1.223 g(H,U,f)=  0.200E-03 0.281E-03 0.133E-06 ort(H,U,f) =-0.712E-04 0.720E-04-0.103E-05
CGA: 348    -0.224166532225E+03   -0.12981E-03   -0.12983E-03  5760   0.481E-03-0.274E-06
 gam= 1.223 trial= 0.630  step= 0.725 mean= 0.630
 gam= 1.150 g(H,U,f)=  0.275E-03 0.278E-03 0.451E-06 ort(H,U,f) =-0.177E-03 0.175E-03-0.783E-06
CGA: 349    -0.224166705939E+03   -0.17371E-03   -0.17443E-03  5760   0.554E-03-0.269E-05
 gam= 1.150 trial= 0.634  step= 0.686 mean= 0.634
 gam= 1.530 g(H,U,f)=  0.380E-03 0.465E-03 0.176E-05 ort(H,U,f) =-0.183E-03 0.189E-03 0.481E-05
CGA: 350    -0.224166894628E+03   -0.18869E-03   -0.18891E-03  5760   0.847E-03 0.104E-04
 gam= 1.530 trial= 0.637  step= 0.533 mean= 0.637
 gam= 1.155 g(H,U,f)=  0.470E-03 0.508E-03 0.594E-06 ort(H,U,f) =-0.264E-03 0.300E-03 0.413E-05
CGA: 351    -0.224167129704E+03   -0.23508E-03   -0.22996E-03  5760   0.978E-03 0.409E-04
 gam= 1.155 trial= 0.632  step= 0.803 mean= 0.632
 gam= 1.311 g(H,U,f)=  0.598E-03 0.684E-03 0.110E-05 ort(H,U,f) =-0.375E-03 0.370E-03-0.964E-05
CGA: 352    -0.224167539418E+03   -0.40971E-03   -0.41195E-03  5760   0.128E-02-0.148E-04
 gam= 1.311 trial= 0.640  step= 0.498 mean= 0.640
 gam= 1.045 g(H,U,f)=  0.686E-03 0.648E-03 0.670E-05 ort(H,U,f) =-0.354E-03 0.348E-03-0.293E-04
CGA: 353    -0.224167857501E+03   -0.31808E-03   -0.31458E-03  5760   0.134E-02-0.349E-04
 gam= 1.045 trial= 0.633  step= 0.794 mean= 0.633
 gam= 1.239 g(H,U,f)=  0.769E-03 0.891E-03 0.148E-05 ort(H,U,f) =-0.384E-03 0.329E-03-0.357E-05
CGA: 354    -0.224168367384E+03   -0.50988E-03   -0.51795E-03  5760   0.166E-02-0.590E-04
 gam= 1.239 trial= 0.641  step= 0.692 mean= 0.641
 gam= 0.937 g(H,U,f)=  0.832E-03 0.723E-03 0.426E-06 ort(H,U,f) =-0.601E-03 0.601E-03 0.637E-05
CGA: 355    -0.224168911407E+03   -0.54402E-03   -0.54924E-03  5760   0.156E-02 0.631E-05
 gam= 0.937 trial= 0.644  step= 0.563 mean= 0.644
 gam= 1.553 g(H,U,f)=  0.998E-03 0.142E-02 0.740E-07 ort(H,U,f) =-0.283E-03 0.297E-03-0.224E-05
CGA: 356    -0.224169354142E+03   -0.44273E-03   -0.43965E-03  5760   0.242E-02 0.117E-04
 gam= 1.553 trial= 0.640  step= 0.605 mean= 0.640
 gam= 1.012 g(H,U,f)=  0.106E-02 0.138E-02 0.696E-05 ort(H,U,f) =-0.748E-03 0.649E-03-0.440E-04
CGA: 357    -0.224170098380E+03   -0.74424E-03   -0.73713E-03  5760   0.245E-02-0.143E-03
 gam= 1.012 trial= 0.638  step= 0.471 mean= 0.638
 gam= 0.997 g(H,U,f)=  0.114E-02 0.129E-02 0.646E-05 ort(H,U,f) =-0.568E-03 0.554E-03-0.366E-04
CGA: 358    -0.224170655864E+03   -0.55748E-03   -0.54235E-03  5760   0.244E-02-0.503E-04
 gam= 0.997 trial= 0.630  step= 0.527 mean= 0.630
 gam= 0.978 g(H,U,f)=  0.124E-02 0.114E-02 0.133E-05 ort(H,U,f) =-0.390E-03 0.321E-03-0.975E-05
CGA: 359    -0.224171293688E+03   -0.63782E-03   -0.62904E-03  5760   0.238E-02-0.787E-04
 gam= 0.978 trial= 0.625  step= 0.552 mean= 0.625
 gam= 1.161 g(H,U,f)=  0.106E-02 0.171E-02 0.417E-06 ort(H,U,f) =-0.133E-03 0.146E-03 0.477E-05
CGA: 360    -0.224171940596E+03   -0.64691E-03   -0.63618E-03  5760   0.277E-02 0.179E-04
 gam= 1.161 trial= 0.621  step= 0.315 mean= 0.621
 gam= 0.787 g(H,U,f)=  0.846E-03 0.133E-02 0.129E-06 ort(H,U,f) =-0.118E-03 0.175E-03 0.461E-05
CGA: 361    -0.224172398596E+03   -0.45800E-03   -0.43974E-03  5760   0.218E-02 0.618E-04
 gam= 0.787 trial= 0.606  step= 0.444 mean= 0.606
 gam= 1.158 g(H,U,f)=  0.867E-03 0.165E-02 0.116E-05 ort(H,U,f) =-0.264E-03 0.265E-03-0.115E-04
CGA: 362    -0.224172896690E+03   -0.49809E-03   -0.49436E-03  5760   0.252E-02-0.103E-04
 gam= 1.158 trial= 0.598  step= 0.331 mean= 0.598
 gam= 0.954 g(H,U,f)=  0.932E-03 0.147E-02 0.433E-05 ort(H,U,f) =-0.390E-03 0.445E-03-0.217E-04
CGA: 363    -0.224173321897E+03   -0.42521E-03   -0.41488E-03  5760   0.241E-02 0.338E-04
 gam= 0.954 trial= 0.584  step= 0.386 mean= 0.584
 gam= 0.981 g(H,U,f)=  0.905E-03 0.145E-02 0.570E-05 ort(H,U,f) =-0.394E-03 0.395E-03-0.189E-04
CGA: 364    -0.224173798627E+03   -0.47673E-03   -0.47126E-03  5760   0.236E-02-0.183E-04
 gam= 0.981 trial= 0.574  step= 0.341 mean= 0.574
 gam= 0.857 g(H,U,f)=  0.761E-03 0.126E-02 0.352E-05 ort(H,U,f) =-0.357E-03 0.365E-03-0.989E-05
CGA: 365    -0.224174201366E+03   -0.40274E-03   -0.39904E-03  5760   0.202E-02-0.233E-05
 gam= 0.857 trial= 0.563  step= 0.326 mean= 0.563
 gam= 0.000 g(H,U,f)=  0.631E-03 0.110E-02 0.908E-06 ort(H,U,f) =-0.263E-03 0.306E-03-0.256E-05
SDA: 366    -0.224174540748E+03   -0.33938E-03   -0.32938E-03  5760   0.173E-02 0.408E-04
 gam= 0.000 trial= 0.551  step= 0.602 mean= 0.551
 gam= 1.529 g(H,U,f)=  0.538E-03 0.211E-02 0.119E-05 ort(H,U,f) = 0.757E-04 0.215E-04 0.924E-06
CGA: 367    -0.224175059890E+03   -0.51914E-03   -0.52177E-03  5760   0.265E-02 0.981E-04
 gam= 1.529 trial= 0.553  step= 0.617 mean= 0.553
 gam= 1.263 g(H,U,f)=  0.941E-03 0.240E-02 0.451E-05 ort(H,U,f) =-0.592E-03 0.605E-03 0.467E-05
CGA: 368    -0.224175904820E+03   -0.84493E-03   -0.86368E-03  5760   0.335E-02 0.178E-04
 gam= 1.263 trial= 0.557  step= 0.421 mean= 0.557
 gam= 0.981 g(H,U,f)=  0.112E-02 0.216E-02 0.347E-05 ort(H,U,f) =-0.819E-03 0.861E-03 0.904E-05
CGA: 369    -0.224176660385E+03   -0.75557E-03   -0.70902E-03  5760   0.328E-02 0.511E-04
 gam= 0.981 trial= 0.550  step= 0.511 mean= 0.550
 gam= 0.776 g(H,U,f)=  0.114E-02 0.140E-02 0.127E-05 ort(H,U,f) =-0.670E-03 0.681E-03 0.771E-05
CGA: 370    -0.224177511987E+03   -0.85160E-03   -0.85068E-03  5760   0.255E-02 0.192E-04
 gam= 0.776 trial= 0.548  step= 0.886 mean= 0.548
 gam= 1.358 g(H,U,f)=  0.132E-02 0.214E-02 0.113E-05 ort(H,U,f) =-0.537E-03 0.583E-03 0.236E-05
CGA: 371    -0.224178647261E+03   -0.11353E-02   -0.11351E-02  5760   0.346E-02 0.485E-04
 gam= 1.358 trial= 0.565  step= 0.486 mean= 0.565
 gam= 1.352 g(H,U,f)=  0.149E-02 0.319E-02 0.181E-05 ort(H,U,f) =-0.531E-03 0.940E-03 0.523E-05
CGA: 372    -0.224179528870E+03   -0.88161E-03   -0.85653E-03  5760   0.468E-02 0.415E-03
 gam= 1.352 trial= 0.561  step= 0.500 mean= 0.561
 gam= 1.182 g(H,U,f)=  0.192E-02 0.360E-02 0.553E-05 ort(H,U,f) =-0.106E-02 0.927E-03 0.292E-04
CGA: 373    -0.224180857675E+03   -0.13288E-02   -0.13110E-02  5760   0.553E-02-0.104E-03
 gam= 1.182 trial= 0.558  step= 0.776 mean= 0.558
 gam= 1.086 g(H,U,f)=  0.266E-02 0.333E-02 0.933E-05 ort(H,U,f) =-0.178E-02 0.176E-02 0.565E-04
CGA: 374    -0.224182952469E+03   -0.20948E-02   -0.20981E-02  5760   0.601E-02 0.413E-04
 gam= 1.086 trial= 0.569  step= 0.490 mean= 0.569
 gam= 0.926 g(H,U,f)=  0.265E-02 0.291E-02 0.130E-05 ort(H,U,f) =-0.111E-02 0.142E-02 0.101E-04
CGA: 375    -0.224184458077E+03   -0.15056E-02   -0.14839E-02  5760   0.556E-02 0.323E-03
 gam= 0.926 trial= 0.565  step= 0.426 mean= 0.565
 gam= 0.874 g(H,U,f)=  0.188E-02 0.298E-02 0.344E-05 ort(H,U,f) =-0.207E-03 0.318E-03-0.143E-04
CGA: 376    -0.224185733042E+03   -0.12750E-02   -0.12479E-02  5760   0.486E-02 0.959E-04
 gam= 0.874 trial= 0.558  step= 0.399 mean= 0.558
 gam= 0.547 g(H,U,f)=  0.123E-02 0.142E-02 0.344E-05 ort(H,U,f) =-0.199E-03 0.119E-03-0.416E-05
CGA: 377    -0.224186751125E+03   -0.10181E-02   -0.98727E-03  5760   0.266E-02-0.845E-04
 gam= 0.547 trial= 0.550  step= 0.529 mean= 0.550
 gam= 0.574 g(H,U,f)=  0.640E-03 0.882E-03 0.181E-05 ort(H,U,f) =-0.881E-05 0.601E-04 0.967E-05
CGA: 378    -0.224187441279E+03   -0.69015E-03   -0.69035E-03  5760   0.152E-02 0.609E-04
 gam= 0.574 trial= 0.549  step= 0.381 mean= 0.549
 gam= 0.757 g(H,U,f)=  0.451E-03 0.702E-03 0.535E-06 ort(H,U,f) = 0.105E-03-0.178E-04 0.390E-05
CGA: 379    -0.224187750908E+03   -0.30963E-03   -0.29750E-03  5760   0.115E-02 0.913E-04
 gam= 0.757 trial= 0.540  step= 0.436 mean= 0.540
 gam= 0.842 g(H,U,f)=  0.320E-03 0.651E-03 0.267E-06 ort(H,U,f) =-0.750E-05-0.373E-05-0.659E-06
CGA: 380    -0.224188025128E+03   -0.27422E-03   -0.26641E-03  5760   0.971E-03-0.119E-04
 gam= 0.842 trial= 0.535  step= 0.544 mean= 0.535
 gam= 0.629 g(H,U,f)=  0.293E-03 0.318E-03 0.303E-07 ort(H,U,f) =-0.193E-03 0.195E-03 0.317E-06
CGA: 381    -0.224188286558E+03   -0.26143E-03   -0.26146E-03  5760   0.611E-03 0.202E-05
 gam= 0.629 trial= 0.536  step= 0.569 mean= 0.536
 gam= 1.013 g(H,U,f)=  0.249E-03 0.369E-03 0.962E-06 ort(H,U,f) =-0.692E-04 0.895E-04 0.175E-05
CGA: 382    -0.224188460231E+03   -0.17367E-03   -0.17428E-03  5760   0.619E-03 0.221E-04
 gam= 1.013 trial= 0.537  step= 0.389 mean= 0.537
 gam= 0.871 g(H,U,f)=  0.208E-03 0.331E-03 0.125E-06 ort(H,U,f) =-0.442E-04 0.623E-04 0.358E-06
CGA: 383    -0.224188591405E+03   -0.13117E-03   -0.12460E-03  5760   0.539E-03 0.184E-04
 gam= 0.871 trial= 0.530  step= 0.529 mean= 0.530
 gam= 0.629 g(H,U,f)=  0.172E-03 0.167E-03 0.338E-07 ort(H,U,f) =-0.914E-04 0.814E-04 0.532E-06
CGA: 384    -0.224188738172E+03   -0.14677E-03   -0.14675E-03  5760   0.339E-03-0.941E-05
 gam= 0.629 trial= 0.530  step= 0.490 mean= 0.530
 gam= 0.788 g(H,U,f)=  0.135E-03 0.132E-03 0.197E-06 ort(H,U,f) =-0.161E-04 0.295E-04 0.510E-06
CGA: 385    -0.224188819998E+03   -0.81827E-04   -0.81671E-04  5760   0.267E-03 0.139E-04
 gam= 0.788 trial= 0.528  step= 0.438 mean= 0.528
 gam= 0.888 g(H,U,f)=  0.869E-04 0.150E-03 0.411E-06 ort(H,U,f) = 0.196E-05 0.500E-05-0.681E-06
CGA: 386    -0.224188882812E+03   -0.62813E-04   -0.60920E-04  5760   0.238E-03 0.628E-05
 gam= 0.888 trial= 0.523  step= 0.387 mean= 0.523
 gam= 0.589 g(H,U,f)=  0.625E-04 0.772E-04 0.112E-06 ort(H,U,f) =-0.220E-04 0.175E-04-0.506E-06
CGA: 387    -0.224188931199E+03   -0.48387E-04   -0.47036E-04  5760   0.140E-03-0.500E-05
 gam= 0.589 trial= 0.516  step= 0.514 mean= 0.516
 gam= 0.723 g(H,U,f)=  0.482E-04 0.529E-04 0.305E-07 ort(H,U,f) =-0.124E-04 0.139E-04-0.146E-06
CGA: 388    -0.224188966381E+03   -0.35182E-04   -0.35177E-04  5760   0.101E-03 0.134E-05
 gam= 0.723 trial= 0.516  step= 0.498 mean= 0.516
 gam= 1.114 g(H,U,f)=  0.371E-04 0.755E-04 0.856E-07 ort(H,U,f) =-0.603E-05 0.978E-05-0.330E-07
CGA: 389    -0.224188991883E+03   -0.25501E-04   -0.25417E-04  5760   0.113E-03 0.372E-05
 gam= 1.114 trial= 0.515  step= 0.368 mean= 0.515
 gam= 0.650 g(H,U,f)=  0.307E-04 0.425E-04 0.939E-08 ort(H,U,f) =-0.188E-04 0.179E-04 0.312E-07
CGA: 390    -0.224189014197E+03   -0.22315E-04   -0.21525E-04  5760   0.732E-04-0.897E-06
 gam= 0.650 trial= 0.508  step= 0.625 mean= 0.508
 gam= 0.972 g(H,U,f)=  0.326E-04 0.385E-04 0.119E-07 ort(H,U,f) =-0.167E-04 0.166E-04-0.162E-08
CGA: 391    -0.224189036874E+03   -0.22677E-04   -0.22683E-04  5760   0.711E-04-0.113E-06
 gam= 0.972 trial= 0.514  step= 0.488 mean= 0.514
 gam= 1.172 g(H,U,f)=  0.318E-04 0.515E-04 0.704E-07 ort(H,U,f) =-0.103E-04 0.142E-04-0.528E-07
CGA: 392    -0.224189054323E+03   -0.17449E-04   -0.17339E-04  5760   0.834E-04 0.376E-05
 gam= 1.172 trial= 0.513  step= 0.484 mean= 0.513
 gam= 1.025 g(H,U,f)=  0.307E-04 0.547E-04 0.685E-07 ort(H,U,f) =-0.177E-04 0.151E-04-0.423E-08
CGA: 393    -0.224189075725E+03   -0.21402E-04   -0.21243E-04  5760   0.854E-04-0.264E-05
 gam= 1.025 trial= 0.511  step= 0.492 mean= 0.511
 gam= 0.711 g(H,U,f)=  0.317E-04 0.289E-04 0.465E-07 ort(H,U,f) =-0.232E-04 0.232E-04 0.287E-07
CGA: 394    -0.224189096096E+03   -0.20372E-04   -0.20355E-04  5760   0.607E-04 0.525E-07
 gam= 0.711 trial= 0.510  step= 0.609 mean= 0.510
 gam= 1.467 g(H,U,f)=  0.349E-04 0.542E-04 0.151E-07 ort(H,U,f) =-0.968E-05 0.115E-04 0.171E-07
CGA: 395    -0.224189114427E+03   -0.18331E-04   -0.18508E-04  5760   0.890E-04 0.186E-05
 gam= 1.467 trial= 0.515  step= 0.410 mean= 0.515
 gam= 0.891 g(H,U,f)=  0.332E-04 0.461E-04 0.259E-07 ort(H,U,f) =-0.161E-04 0.164E-04-0.988E-07
CGA: 396    -0.224189133817E+03   -0.19389E-04   -0.18796E-04  5760   0.793E-04 0.150E-06
 gam= 0.891 trial= 0.510  step= 0.549 mean= 0.510
 gam= 0.000 g(H,U,f)=  0.345E-04 0.305E-04 0.281E-07 ort(H,U,f) =-0.199E-04 0.192E-04-0.728E-07
SDA: 397    -0.224189155602E+03   -0.21786E-04   -0.21815E-04  5760   0.650E-04-0.786E-06
 gam= 0.000 trial= 0.512  step= 0.395 mean= 0.512
 gam= 0.636 g(H,U,f)=  0.160E-04 0.253E-04 0.892E-08 ort(H,U,f) = 0.106E-04-0.929E-05-0.721E-09
CGA: 398    -0.224189168613E+03   -0.13010E-04   -0.12838E-04  5760   0.413E-04 0.126E-05
 gam= 0.636 trial= 0.506  step= 0.582 mean= 0.506
 gam= 0.854 g(H,U,f)=  0.117E-04 0.235E-04 0.132E-07 ort(H,U,f) =-0.307E-05 0.227E-05 0.680E-08
CGA: 399    -0.224189180642E+03   -0.12030E-04   -0.12274E-04  5760   0.353E-04-0.787E-06
 gam= 0.854 trial= 0.510  step= 0.424 mean= 0.510
 gam= 0.770 g(H,U,f)=  0.110E-04 0.162E-04 0.131E-07 ort(H,U,f) =-0.558E-05 0.584E-05 0.164E-07
CGA: 400    -0.224189188185E+03   -0.75427E-05   -0.73481E-05  5760   0.272E-04 0.278E-06
 gam= 0.770 trial= 0.506  step= 0.480 mean= 0.506
 gam= 0.948 g(H,U,f)=  0.985E-05 0.159E-04 0.368E-08 ort(H,U,f) =-0.363E-05 0.335E-05 0.887E-08
CGA: 401    -0.224189194782E+03   -0.65972E-05   -0.65767E-05  5760   0.258E-04-0.269E-06
 gam= 0.948 trial= 0.504  step= 0.637 mean= 0.504
 gam= 0.677 g(H,U,f)=  0.940E-05 0.804E-05 0.413E-08 ort(H,U,f) =-0.739E-05 0.749E-05 0.153E-08
CGA: 402    -0.224189202906E+03   -0.81241E-05   -0.81242E-05  5760   0.174E-04 0.102E-06
 gam= 0.677 trial= 0.511  step= 0.777 mean= 0.511
 gam= 1.359 g(H,U,f)=  0.900E-05 0.147E-04 0.316E-08 ort(H,U,f) =-0.348E-05 0.372E-05-0.112E-08
CGA: 403    -0.224189209638E+03   -0.67318E-05   -0.68059E-05  5760   0.237E-04 0.243E-06
 gam= 1.359 trial= 0.524  step= 0.411 mean= 0.524
 gam= 1.029 g(H,U,f)=  0.869E-05 0.157E-04 0.386E-08 ort(H,U,f) =-0.367E-05 0.465E-05-0.228E-08
CGA: 404    -0.224189214838E+03   -0.52000E-05   -0.49367E-05  5760   0.244E-04 0.973E-06
 gam= 1.029 trial= 0.519  step= 0.684 mean= 0.519
 gam= 0.957 g(H,U,f)=  0.111E-04 0.123E-04 0.138E-07 ort(H,U,f) =-0.840E-05 0.756E-05-0.679E-09
CGA: 405    -0.224189223393E+03   -0.85549E-05   -0.86863E-05  5760   0.234E-04-0.845E-06
 gam= 0.957 trial= 0.527  step= 0.712 mean= 0.527
 gam= 1.325 g(H,U,f)=  0.136E-04 0.173E-04 0.314E-07 ort(H,U,f) =-0.583E-05 0.530E-05-0.800E-07
CGA: 406    -0.224189231331E+03   -0.79379E-05   -0.80301E-05  5760   0.309E-04-0.611E-06
 gam= 1.325 trial= 0.536  step= 0.678 mean= 0.536
 gam= 1.007 g(H,U,f)=  0.142E-04 0.169E-04 0.429E-07 ort(H,U,f) =-0.786E-05 0.806E-05-0.939E-07
CGA: 407    -0.224189241413E+03   -0.10083E-04   -0.10212E-04  5760   0.312E-04 0.103E-06
 gam= 1.007 trial= 0.543  step= 0.502 mean= 0.543
 gam= 0.980 g(H,U,f)=  0.140E-04 0.163E-04 0.192E-06 ort(H,U,f) =-0.480E-05 0.574E-05-0.121E-06
CGA: 408    -0.224189249329E+03   -0.79153E-05   -0.78442E-05  5760   0.305E-04 0.812E-06
 gam= 0.980 trial= 0.541  step= 0.489 mean= 0.541
 gam= 1.180 g(H,U,f)=  0.130E-04 0.230E-04 0.983E-07 ort(H,U,f) =-0.174E-05 0.127E-05 0.624E-07
CGA: 409    -0.224189257102E+03   -0.77736E-05   -0.76635E-05  5760   0.360E-04-0.407E-06
 gam= 1.180 trial= 0.539  step= 0.548 mean= 0.539
 gam= 0.492 g(H,U,f)=  0.985E-05 0.783E-05 0.596E-07 ort(H,U,f) =-0.720E-05 0.679E-05 0.134E-06
CGA: 410    -0.224189266846E+03   -0.97440E-05   -0.97461E-05  5760   0.177E-04-0.284E-06
 gam= 0.492 trial= 0.539  step= 0.684 mean= 0.539
 gam= 1.208 g(H,U,f)=  0.883E-05 0.125E-04 0.715E-07 ort(H,U,f) =-0.175E-05 0.248E-05 0.118E-06
CGA: 411    -0.224189272834E+03   -0.59882E-05   -0.60193E-05  5760   0.214E-04 0.844E-06
 gam= 1.208 trial= 0.546  step= 0.388 mean= 0.546
 gam= 0.863 g(H,U,f)=  0.665E-05 0.118E-04 0.184E-07 ort(H,U,f) =-0.214E-05 0.313E-05 0.933E-07
CGA: 412    -0.224189277409E+03   -0.45744E-05   -0.43513E-05  5760   0.185E-04 0.108E-05
 gam= 0.863 trial= 0.538  step= 0.548 mean= 0.538
 gam= 0.855 g(H,U,f)=  0.660E-05 0.919E-05 0.270E-07 ort(H,U,f) =-0.406E-05 0.376E-05 0.122E-06
CGA: 413    -0.224189282721E+03   -0.53123E-05   -0.53164E-05  5760   0.158E-04-0.176E-06
 gam= 0.855 trial= 0.539  step= 0.623 mean= 0.539
 gam= 0.808 g(H,U,f)=  0.613E-05 0.664E-05 0.680E-08 ort(H,U,f) =-0.343E-05 0.396E-05 0.563E-07
CGA: 414    -0.224189287613E+03   -0.48917E-05   -0.48783E-05  5760   0.128E-04 0.585E-06
 gam= 0.808 trial= 0.543  step= 0.565 mean= 0.543
 gam= 1.181 g(H,U,f)=  0.574E-05 0.932E-05 0.241E-07 ort(H,U,f) =-0.133E-05 0.172E-05-0.731E-07
CGA: 415    -0.224189291344E+03   -0.37310E-05   -0.37425E-05  5760   0.151E-04 0.321E-06
 gam= 1.181 trial= 0.544  step= 0.425 mean= 0.544
 gam= 0.759 g(H,U,f)=  0.432E-05 0.712E-05 0.871E-08 ort(H,U,f) =-0.221E-05 0.229E-05-0.644E-07
CGA: 416    -0.224189294727E+03   -0.33831E-05   -0.32871E-05  5760   0.115E-04 0.156E-07
 gam= 0.759 trial= 0.538  step= 0.469 mean= 0.538
 gam= 0.754 g(H,U,f)=  0.403E-05 0.458E-05 0.246E-07 ort(H,U,f) =-0.183E-05 0.167E-05-0.834E-07
CGA: 417    -0.224189297438E+03   -0.27108E-05   -0.26898E-05  5760   0.864E-05-0.245E-06
 gam= 0.754 trial= 0.535  step= 0.547 mean= 0.535
 gam= 0.777 g(H,U,f)=  0.311E-05 0.358E-05 0.262E-07 ort(H,U,f) =-0.930E-06 0.110E-05-0.423E-07
CGA: 418    -0.224189299750E+03   -0.23121E-05   -0.23127E-05  5760   0.671E-05 0.124E-06
 gam= 0.777 trial= 0.535  step= 0.582 mean= 0.535
 gam= 1.102 g(H,U,f)=  0.245E-05 0.494E-05 0.979E-08 ort(H,U,f) =-0.694E-06 0.926E-06-0.523E-08
CGA: 419    -0.224189301718E+03   -0.19682E-05   -0.19819E-05  5760   0.739E-05 0.227E-06
 gam= 1.102 trial= 0.538  step= 0.311 mean= 0.538
 gam= 0.495 g(H,U,f)=  0.190E-05 0.174E-05 0.198E-07 ort(H,U,f) =-0.988E-06 0.109E-05 0.759E-08
CGA: 420    -0.224189303016E+03   -0.12979E-05   -0.11881E-05  5760   0.366E-05 0.110E-06
 gam= 0.495 trial= 0.526  step= 0.700 mean= 0.526
 gam= 0.944 g(H,U,f)=  0.163E-05 0.181E-05 0.164E-07 ort(H,U,f) =-0.336E-06 0.613E-06 0.209E-07
CGA: 421    -0.224189304340E+03   -0.13243E-05   -0.13004E-05  5760   0.346E-05 0.298E-06
 gam= 0.944 trial= 0.535  step= 0.524 mean= 0.535
 gam= 0.987 g(H,U,f)=  0.126E-05 0.215E-05 0.825E-08 ort(H,U,f) =-0.304E-06 0.423E-06 0.184E-07
CGA: 422    -0.224189305321E+03   -0.98104E-06   -0.97990E-06  5760   0.341E-05 0.137E-06
 gam= 0.987 trial= 0.535  step= 0.340 mean= 0.535
 final diagonalization
   1 F= -.23345149E+03 E0= -.23344897E+03  d E =-.503200E-02  mag=     6.0000
