       N       E                     dE             d eps       ncg     rms          ort
DAV:   1     0.347401290877E+04    0.34740E+04   -0.13911E+05  5760   0.217E+03
DAV:   2     0.414765964599E+03   -0.30592E+04   -0.28199E+04  5760   0.529E+02
DAV:   3    -0.218989550150E+03   -0.63376E+03   -0.58162E+03  5760   0.254E+02
DAV:   4    -0.269821109841E+03   -0.50832E+02   -0.49675E+02  5760   0.738E+01
DAV:   5    -0.271602043053E+03   -0.17809E+01   -0.17775E+01  5760   0.138E+01
SDA:   6     0.676471368739E+02    0.33925E+03   -0.17775E+01  5760   0.243E+04 0.000E+00
CGA:   7    -0.159439890948E+03   -0.22709E+03   -0.24078E+03  5760   0.892E+03 0.657E+02
CGA:   8    -0.187548329147E+03   -0.28108E+02   -0.46599E+02  5760   0.584E+03-0.343E+03
CGA:   9    -0.186993126955E+03    0.55520E+00   -0.14765E+02  5760   0.336E+03-0.263E+03
CGA:  10    -0.201667919668E+03   -0.14675E+02   -0.17244E+02  5760   0.195E+03-0.989E+01
CGA:  11    -0.211309946033E+03   -0.96420E+01   -0.93319E+01  5760   0.108E+03 0.785E+01
CGA:  12    -0.217273263587E+03   -0.59633E+01   -0.70606E+01  5760   0.256E+02-0.936E+01
CGA:  13    -0.218245950154E+03   -0.97269E+00   -0.12537E+01  5760   0.173E+02-0.430E+01
CGA:  14    -0.219902280376E+03   -0.16563E+01   -0.17005E+01  5760   0.103E+02 0.191E+00
CGA:  15    -0.220658820397E+03   -0.75654E+00   -0.76840E+00  5760   0.399E+01 0.909E-01
CGA:  16    -0.220923585344E+03   -0.26476E+00   -0.28886E+00  5760   0.204E+01-0.147E+00
CGA:  17    -0.221144911766E+03   -0.22133E+00   -0.22276E+00  5760   0.221E+01 0.686E-02
CGA:  18    -0.221311799651E+03   -0.16689E+00   -0.18397E+00  5760   0.111E+01-0.864E-01
CGA:  19    -0.221521825310E+03   -0.21003E+00   -0.20875E+00  5760   0.118E+01 0.228E-01
CGA:  20    -0.221720188485E+03   -0.19836E+00   -0.19399E+00  5760   0.114E+01 0.168E+00
CGA:  21    -0.221903125667E+03   -0.18294E+00   -0.18422E+00  5760   0.207E+01 0.102E+00
CGA:  22    -0.222206960568E+03   -0.30383E+00   -0.30619E+00  5760   0.112E+01 0.929E-01
CGA:  23    -0.222424444509E+03   -0.21748E+00   -0.21399E+00  5760   0.953E+00 0.639E-01
CGA:  24    -0.222632643012E+03   -0.20820E+00   -0.20665E+00  5760   0.709E+00 0.178E-01
CGA:  25    -0.222798997225E+03   -0.16635E+00   -0.16481E+00  5760   0.538E+00-0.498E-02
CGA:  26    -0.222934189901E+03   -0.13519E+00   -0.13694E+00  5760   0.443E+00-0.841E-01
CGA:  27    -0.223026859001E+03   -0.92669E-01   -0.11768E+00  5760   0.591E+00-0.191E+00
CGA:  28    -0.223066755674E+03   -0.39897E-01   -0.39957E-01  5760   0.313E+00-0.467E-02
CGA:  29    -0.223112059077E+03   -0.45303E-01   -0.45797E-01  5760   0.235E+00 0.105E-01
CGA:  30    -0.223156363591E+03   -0.44305E-01   -0.44302E-01  5760   0.218E+00 0.598E-02
CGA:  31    -0.223188358717E+03   -0.31995E-01   -0.32799E-01  5760   0.128E+00 0.201E-01
CGA:  32    -0.223213051893E+03   -0.24693E-01   -0.24638E-01  5760   0.120E+00-0.967E-02
CGA:  33    -0.223231395427E+03   -0.18344E-01   -0.18344E-01  5760   0.104E+00-0.279E-02
CGA:  34    -0.223246884365E+03   -0.15489E-01   -0.15596E-01  5760   0.104E+00 0.204E-01
CGA:  35    -0.223257314016E+03   -0.10430E-01   -0.13127E-01  5760   0.587E-01 0.473E-02
CGA:  36    -0.223268532713E+03   -0.11219E-01   -0.11315E-01  5760   0.894E-01-0.239E-01
SDA:  37    -0.223273448169E+03   -0.49155E-02   -0.47502E-02  5760   0.775E-01-0.128E-02
CGA:  38    -0.223282130492E+03   -0.86823E-02   -0.95388E-02  5760   0.215E-01 0.638E-02
CGA:  39    -0.223289474699E+03   -0.73442E-02   -0.72089E-02  5760   0.446E-01 0.279E-02
CGA:  40    -0.223294796859E+03   -0.53222E-02   -0.63766E-02  5760   0.244E-01 0.158E-01
CGA:  41    -0.223299508639E+03   -0.47118E-02   -0.48526E-02  5760   0.267E-01-0.646E-02
CGA:  42    -0.223303156334E+03   -0.36477E-02   -0.40680E-02  5760   0.294E-01-0.683E-02
CGA:  43    -0.223306298610E+03   -0.31423E-02   -0.31206E-02  5760   0.340E-01 0.872E-03
CGA:  44    -0.223310400097E+03   -0.41015E-02   -0.45295E-02  5760   0.357E-01 0.112E-01
CGA:  45    -0.223314958169E+03   -0.45581E-02   -0.51470E-02  5760   0.308E-01-0.111E-01
CGA:  46    -0.223317912302E+03   -0.29541E-02   -0.26855E-02  5760   0.600E-01-0.119E-01
CGA:  47    -0.223319218613E+03   -0.13063E-02   -0.18724E-02  5760   0.539E-01 0.301E-02
CGA:  48    -0.223321591910E+03   -0.23733E-02   -0.40133E-02  5760   0.414E-01-0.409E-02
CGA:  49    -0.223326175791E+03   -0.45839E-02   -0.45996E-02  5760   0.587E-01-0.120E-01
CGA:  50    -0.223329229404E+03   -0.30536E-02   -0.27610E-02  5760   0.564E-01-0.464E-02
CGA:  51    -0.223333031106E+03   -0.38017E-02   -0.43648E-02  5760   0.434E-01-0.905E-02
CGA:  52    -0.223340679493E+03   -0.76484E-02   -0.76567E-02  5760   0.129E+00-0.846E-02
CGA:  53    -0.223352569515E+03   -0.11890E-01   -0.10674E-01  5760   0.230E+00 0.189E-01
CGA:  54    -0.223359524498E+03   -0.69550E-02   -0.87021E-02  5760   0.260E+00 0.832E-01
CGA:  55    -0.223370162706E+03   -0.10638E-01   -0.12374E-01  5760   0.297E+00 0.479E-01
CGA:  56    -0.223381544643E+03   -0.11382E-01   -0.93778E-02  5760   0.321E+00 0.856E-01
CGA:  57    -0.223394078905E+03   -0.12534E-01   -0.10194E-01  5760   0.319E+00 0.899E-01
CGA:  58    -0.223404910666E+03   -0.10832E-01   -0.95280E-02  5760   0.303E+00 0.560E-01
CGA:  59    -0.223413267533E+03   -0.83569E-02   -0.80402E-02  5760   0.281E+00 0.185E-01
CGA:  60    -0.223419746632E+03   -0.64791E-02   -0.68161E-02  5760   0.255E+00-0.746E-02
CGA:  61    -0.223425084073E+03   -0.53374E-02   -0.60032E-02  5760   0.224E+00-0.190E-01
CGA:  62    -0.223429886918E+03   -0.48028E-02   -0.54971E-02  5760   0.191E+00-0.183E-01
CGA:  63    -0.223434592844E+03   -0.47059E-02   -0.52240E-02  5760   0.163E+00-0.116E-01
CGA:  64    -0.223439551326E+03   -0.49585E-02   -0.52636E-02  5760   0.150E+00-0.535E-02
CGA:  65    -0.223445211387E+03   -0.56601E-02   -0.58053E-02  5760   0.155E+00-0.175E-02
CGA:  66    -0.223451965374E+03   -0.67540E-02   -0.67740E-02  5760   0.170E+00 0.347E-04
CGA:  67    -0.223459551512E+03   -0.75861E-02   -0.74969E-02  5760   0.180E+00 0.123E-02
SDA:  68    -0.223467142683E+03   -0.75912E-02   -0.74387E-02  5760   0.178E+00 0.211E-02
CGA:  69    -0.223511988541E+03   -0.44846E-01   -0.44554E-01  5760   0.117E+00 0.177E-02
CGA:  70    -0.223560092569E+03   -0.48104E-01   -0.93305E-05  5760   0.222E+00-0.390E-01
CGA:  71    -0.223595592256E+03   -0.35500E-01   -0.35290E-01  5760   0.121E+00 0.217E-02
CGA:  72    -0.223620728637E+03   -0.25136E-01   -0.25062E-01  5760   0.697E-01 0.144E-02
CGA:  73    -0.223640110662E+03   -0.19382E-01   -0.19447E-01  5760   0.480E-01-0.541E-03
CGA:  74    -0.223652030883E+03   -0.11920E-01   -0.11927E-01  5760   0.320E-01-0.671E-04
CGA:  75    -0.223660307978E+03   -0.82771E-02   -0.82672E-02  5760   0.238E-01 0.112E-03
CGA:  76    -0.223669596171E+03   -0.92882E-02   -0.93034E-02  5760   0.337E-01-0.871E-04
CGA:  77    -0.223677496790E+03   -0.79006E-02   -0.79718E-02  5760   0.188E-01 0.689E-04
CGA:  78    -0.223683023802E+03   -0.55270E-02   -0.55107E-02  5760   0.181E-01 0.133E-03
CGA:  79    -0.223687696938E+03   -0.46731E-02   -0.46772E-02  5760   0.117E-01 0.361E-05
CGA:  80    -0.223690665737E+03   -0.29688E-02   -0.29709E-02  5760   0.846E-02-0.365E-04
CGA:  81    -0.223693054721E+03   -0.23890E-02   -0.23916E-02  5760   0.789E-02-0.355E-04
CGA:  82    -0.223695456977E+03   -0.24023E-02   -0.24054E-02  5760   0.778E-02-0.311E-04
CGA:  83    -0.223697773387E+03   -0.23164E-02   -0.23166E-02  5760   0.790E-02-0.295E-05
CGA:  84    -0.223700257225E+03   -0.24838E-02   -0.24841E-02  5760   0.836E-02 0.303E-05
CGA:  85    -0.223702854115E+03   -0.25969E-02   -0.25981E-02  5760   0.816E-02-0.117E-04
CGA:  86    -0.223705119903E+03   -0.22658E-02   -0.22672E-02  5760   0.734E-02-0.200E-04
CGA:  87    -0.223707253268E+03   -0.21334E-02   -0.21346E-02  5760   0.574E-02 0.192E-04
CGA:  88    -0.223708789975E+03   -0.15367E-02   -0.15352E-02  5760   0.554E-02 0.324E-04
CGA:  89    -0.223710600218E+03   -0.18102E-02   -0.18134E-02  5760   0.512E-02-0.317E-04
CGA:  90    -0.223711939102E+03   -0.13389E-02   -0.13394E-02  5760   0.395E-02-0.104E-04
CGA:  91    -0.223712971432E+03   -0.10323E-02   -0.10323E-02  5760   0.326E-02 0.315E-05
CGA:  92    -0.223714009922E+03   -0.10385E-02   -0.10400E-02  5760   0.334E-02-0.201E-04
CGA:  93    -0.223714815856E+03   -0.80593E-03   -0.80590E-03  5760   0.214E-02-0.978E-05
CGA:  94    -0.223715447372E+03   -0.63152E-03   -0.63146E-03  5760   0.241E-02 0.844E-06
CGA:  95    -0.223716214764E+03   -0.76739E-03   -0.76776E-03  5760   0.241E-02-0.494E-05
CGA:  96    -0.223716872663E+03   -0.65790E-03   -0.65806E-03  5760   0.198E-02-0.584E-05
CGA:  97    -0.223717485622E+03   -0.61296E-03   -0.61290E-03  5760   0.250E-02 0.225E-05
CGA:  98    -0.223718330969E+03   -0.84535E-03   -0.84493E-03  5760   0.267E-02 0.613E-05
SDA:  99    -0.223719052841E+03   -0.72187E-03   -0.72184E-03  5760   0.240E-02 0.318E-05
CGA: 100    -0.223719721087E+03   -0.66825E-03   -0.66834E-03  5760   0.211E-02-0.421E-05
CGA: 101    -0.223720362617E+03   -0.64153E-03   -0.64176E-03  5760   0.104E-02-0.537E-05
CGA: 102    -0.223720776535E+03   -0.41392E-03   -0.41374E-03  5760   0.143E-02 0.131E-05
CGA: 103    -0.223721404389E+03   -0.62785E-03   -0.62789E-03  5760   0.124E-02-0.416E-06
CGA: 104    -0.223722014804E+03   -0.61041E-03   -0.61076E-03  5760   0.162E-02-0.175E-05
CGA: 105    -0.223722881006E+03   -0.86620E-03   -0.86338E-03  5760   0.227E-02 0.122E-04
CGA: 106    -0.223723933986E+03   -0.10530E-02   -0.10537E-02  5760   0.296E-02-0.428E-05
CGA: 107    -0.223725222775E+03   -0.12888E-02   -0.12896E-02  5760   0.364E-02-0.558E-05
CGA: 108    -0.223726878055E+03   -0.16553E-02   -0.16612E-02  5760   0.423E-02-0.105E-04
CGA: 109    -0.223728691992E+03   -0.18139E-02   -0.18191E-02  5760   0.426E-02-0.396E-04
CGA: 110    -0.223730829978E+03   -0.21380E-02   -0.21546E-02  5760   0.606E-02-0.834E-04
CGA: 111    -0.223733450295E+03   -0.26203E-02   -0.26579E-02  5760   0.750E-02-0.242E-03
CGA: 112    -0.223735964829E+03   -0.25145E-02   -0.25161E-02  5760   0.826E-02-0.136E-03
CGA: 113    -0.223738906015E+03   -0.29412E-02   -0.29489E-02  5760   0.715E-02-0.220E-03
CGA: 114    -0.223741607889E+03   -0.27019E-02   -0.27152E-02  5760   0.841E-02-0.175E-03
CGA: 115    -0.223744010200E+03   -0.24023E-02   -0.23960E-02  5760   0.707E-02-0.332E-04
CGA: 116    -0.223746346220E+03   -0.23360E-02   -0.23357E-02  5760   0.749E-02-0.149E-04
CGA: 117    -0.223748941531E+03   -0.25953E-02   -0.25956E-02  5760   0.623E-02-0.364E-04
CGA: 118    -0.223750848606E+03   -0.19071E-02   -0.19077E-02  5760   0.591E-02 0.946E-05
CGA: 119    -0.223752767232E+03   -0.19186E-02   -0.19198E-02  5760   0.493E-02 0.264E-04
CGA: 120    -0.223754294188E+03   -0.15270E-02   -0.15281E-02  5760   0.333E-02 0.836E-05
CGA: 121    -0.223755611263E+03   -0.13171E-02   -0.13167E-02  5760   0.389E-02 0.405E-05
CGA: 122    -0.223756794358E+03   -0.11831E-02   -0.11837E-02  5760   0.286E-02 0.539E-05
CGA: 123    -0.223757835656E+03   -0.10413E-02   -0.10410E-02  5760   0.344E-02 0.612E-05
CGA: 124    -0.223759050785E+03   -0.12151E-02   -0.12151E-02  5760   0.239E-02 0.218E-05
CGA: 125    -0.223760093790E+03   -0.10430E-02   -0.10425E-02  5760   0.292E-02 0.472E-05
CGA: 126    -0.223760831993E+03   -0.73820E-03   -0.73754E-03  5760   0.190E-02-0.577E-06
CGA: 127    -0.223761613588E+03   -0.78160E-03   -0.78186E-03  5760   0.193E-02-0.274E-05
CGA: 128    -0.223762316118E+03   -0.70253E-03   -0.70243E-03  5760   0.182E-02 0.422E-05
CGA: 129    -0.223762990566E+03   -0.67445E-03   -0.67468E-03  5760   0.215E-02-0.636E-05
SDA: 130    -0.223763716231E+03   -0.72567E-03   -0.72554E-03  5760   0.191E-02-0.101E-04
CGA: 131    -0.223764338464E+03   -0.62223E-03   -0.62231E-03  5760   0.211E-02 0.426E-05
CGA: 132    -0.223765261142E+03   -0.92268E-03   -0.92257E-03  5760   0.237E-02 0.819E-06
CGA: 133    -0.223766245133E+03   -0.98399E-03   -0.98445E-03  5760   0.287E-02-0.588E-05
CGA: 134    -0.223767418678E+03   -0.11735E-02   -0.11734E-02  5760   0.285E-02 0.316E-05
CGA: 135    -0.223769098731E+03   -0.16801E-02   -0.16804E-02  5760   0.399E-02-0.974E-06
CGA: 136    -0.223770967489E+03   -0.18688E-02   -0.18711E-02  5760   0.420E-02-0.192E-04
CGA: 137    -0.223773215724E+03   -0.22482E-02   -0.22545E-02  5760   0.426E-02-0.285E-04
CGA: 138    -0.223774876650E+03   -0.16609E-02   -0.16612E-02  5760   0.329E-02-0.168E-04
CGA: 139    -0.223776186012E+03   -0.13094E-02   -0.13094E-02  5760   0.278E-02-0.263E-05
CGA: 140    -0.223777151023E+03   -0.96501E-03   -0.96503E-03  5760   0.193E-02 0.440E-05
CGA: 141    -0.223777921581E+03   -0.77056E-03   -0.77066E-03  5760   0.177E-02-0.657E-05
CGA: 142    -0.223778509333E+03   -0.58775E-03   -0.58784E-03  5760   0.125E-02 0.807E-06
CGA: 143    -0.223778967767E+03   -0.45843E-03   -0.45848E-03  5760   0.987E-03 0.338E-05
CGA: 144    -0.223779278272E+03   -0.31050E-03   -0.31034E-03  5760   0.460E-03-0.274E-05
CGA: 145    -0.223779442263E+03   -0.16399E-03   -0.16400E-03  5760   0.386E-03 0.184E-06
CGA: 146    -0.223779537177E+03   -0.94914E-04   -0.95090E-04  5760   0.139E-03 0.149E-05
CGA: 147    -0.223779593505E+03   -0.56328E-04   -0.56292E-04  5760   0.106E-03 0.106E-05
CGA: 148    -0.223779633923E+03   -0.40418E-04   -0.40421E-04  5760   0.517E-04-0.332E-06
CGA: 149    -0.223779659180E+03   -0.25256E-04   -0.25282E-04  5760   0.539E-04-0.212E-06
CGA: 150    -0.223779677379E+03   -0.18199E-04   -0.18204E-04  5760   0.356E-04 0.123E-06
CGA: 151    -0.223779697928E+03   -0.20549E-04   -0.20595E-04  5760   0.425E-04-0.225E-06
CGA: 152    -0.223779711237E+03   -0.13309E-04   -0.13306E-04  5760   0.418E-04-0.435E-07
CGA: 153    -0.223779730021E+03   -0.18784E-04   -0.18776E-04  5760   0.422E-04 0.112E-06
CGA: 154    -0.223779744426E+03   -0.14406E-04   -0.14389E-04  5760   0.330E-04-0.357E-06
CGA: 155    -0.223779758777E+03   -0.14351E-04   -0.14334E-04  5760   0.272E-04 0.301E-06
CGA: 156    -0.223779768704E+03   -0.99263E-05   -0.99378E-05  5760   0.192E-04 0.492E-06
CGA: 157    -0.223779776792E+03   -0.80884E-05   -0.80975E-05  5760   0.199E-04-0.301E-06
CGA: 158    -0.223779784176E+03   -0.73845E-05   -0.73872E-05  5760   0.164E-04 0.314E-06
CGA: 159    -0.223779790568E+03   -0.63919E-05   -0.63922E-05  5760   0.165E-04 0.329E-06
CGA: 160    -0.223779797642E+03   -0.70737E-05   -0.70816E-05  5760   0.170E-04-0.229E-06
SDA: 161    -0.223779803761E+03   -0.61188E-05   -0.61158E-05  5760   0.124E-04-0.154E-06
CGA: 162    -0.223779806443E+03   -0.26819E-05   -0.27316E-05  5760   0.749E-05 0.299E-06
CGA: 163    -0.223779809298E+03   -0.28549E-05   -0.28549E-05  5760   0.542E-05 0.159E-07
CGA: 164    -0.223779811116E+03   -0.18181E-05   -0.18114E-05  5760   0.519E-05-0.153E-06
CGA: 165    -0.223779813270E+03   -0.21539E-05   -0.21409E-05  5760   0.385E-05 0.270E-06
CGA: 166    -0.223779814963E+03   -0.16930E-05   -0.16896E-05  5760   0.391E-05 0.900E-07
CGA: 167    -0.223779816936E+03   -0.19737E-05   -0.19976E-05  5760   0.487E-05-0.198E-06
CGA: 168    -0.223779818968E+03   -0.20320E-05   -0.20194E-05  5760   0.487E-05 0.246E-06
CGA: 169    -0.223779821264E+03   -0.22960E-05   -0.23065E-05  5760   0.603E-05-0.166E-06
CGA: 170    -0.223779823416E+03   -0.21513E-05   -0.21493E-05  5760   0.507E-05-0.908E-07
CGA: 171    -0.223779825141E+03   -0.17249E-05   -0.17333E-05  5760   0.377E-05 0.199E-06
CGA: 172    -0.223779826650E+03   -0.15095E-05   -0.15096E-05  5760   0.337E-05 0.305E-07
CGA: 173    -0.223779827985E+03   -0.13346E-05   -0.13351E-05  5760   0.309E-05-0.486E-07
CGA: 174    -0.223779829256E+03   -0.12716E-05   -0.12654E-05  5760   0.358E-05 0.219E-06
CGA: 175    -0.223779830753E+03   -0.14964E-05   -0.14963E-05  5760   0.363E-05 0.153E-06
CGA: 176    -0.223779832650E+03   -0.18976E-05   -0.19295E-05  5760   0.579E-05-0.266E-06
CGA: 177    -0.223779834703E+03   -0.20524E-05   -0.20537E-05  5760   0.404E-05 0.114E-06
CGA: 178    -0.223779836757E+03   -0.20540E-05   -0.20303E-05  5760   0.486E-05 0.241E-06
CGA: 179    -0.223779838848E+03   -0.20908E-05   -0.20923E-05  5760   0.415E-05-0.235E-06
CGA: 180    -0.223779840468E+03   -0.16205E-05   -0.16203E-05  5760   0.427E-05 0.425E-09
CGA: 181    -0.223779841839E+03   -0.13714E-05   -0.13811E-05  5760   0.302E-05 0.128E-06
CGA: 182    -0.223779843052E+03   -0.12128E-05   -0.12130E-05  5760   0.249E-05 0.374E-07
CGA: 183    -0.223779843923E+03   -0.87070E-06   -0.86940E-06  5760   0.189E-05-0.286E-07
   1 F= -.23280864E+03 E0= -.23280864E+03  d E =-.968593E-08  mag=     6.0000
