 running on   64 total cores
 distrk:  each k-point on   64 cores,    1 groups
 distr:  one band on    4 cores,   16 groups
 using from now: INCAR     
 vasp.5.4.4.18Apr17-6-g9f103f2a35 (build Nov 22 2021 14:44:17) complex          
  
 POSCAR found type information on POSCAR  Li Co O 
 POSCAR found :  3 types and      42 ions
 scaLAPACK will be used
 LDA part: xc-table for Pade appr. of Perdew
 generate k-points for:    6    6    2
 POSCAR, INCAR and KPOINTS ok, starting setup
 FFT: planning ...
 WAVECAR not read
 entering main loop
       N       E                     dE             d eps       ncg     rms          ort
DAV:   1     0.347128926861E+04    0.34713E+04   -0.13943E+05  5760   0.219E+03
DAV:   2     0.403235400727E+03   -0.30681E+04   -0.28338E+04  5760   0.535E+02
DAV:   3    -0.220117573895E+03   -0.62335E+03   -0.56600E+03  5760   0.252E+02
DAV:   4    -0.270841293634E+03   -0.50724E+02   -0.49564E+02  5760   0.741E+01
DAV:   5    -0.272588982655E+03   -0.17477E+01   -0.17445E+01  5760   0.137E+01
 gam= 0.000 g(H,U,f)=  0.183E+04 0.108E+04 0.974E+03 ort(H,U,f) = 0.000E+00 0.000E+00 0.000E+00
SDA:   6     0.112551570052E+03    0.38514E+03   -0.17445E+01  5760   0.388E+04 0.000E+00
 gam= 0.000 trial= 0.400  step= 0.072 mean= 0.400
 gam= 2.170 g(H,U,f)=  0.105E+04 0.222E+04 0.516E+04 ort(H,U,f) = 0.109E+04-0.248E+03-0.205E+04
CGA:   7     0.320995712979E+02   -0.80452E+02   -0.14058E+03  5760   0.843E+04-0.121E+04
 gam= 2.170 trial= 0.384  step= 0.071 mean= 0.384
 gam= 0.000 g(H,U,f)=  0.111E+04 0.169E+04 0.926E+03 ort(H,U,f) = 0.293E+04 0.176E+04-0.172E+02
CGA:   8    -0.834917820524E+00   -0.32934E+02   -0.20591E+03  5760   0.372E+04 0.467E+04
 gam= 0.000 trial= 0.368  step= 0.070 mean= 0.368
 gam= 0.309 g(H,U,f)=  0.655E+03 0.428E+03 0.674E+02 ort(H,U,f) = 0.651E+03 0.227E+03-0.171E+02
CGA:   9    -0.744946297880E+02   -0.73660E+02   -0.12940E+03  5760   0.115E+04 0.861E+03
 gam= 0.309 trial= 0.353  step= 0.084 mean= 0.353
 gam= 0.387 g(H,U,f)=  0.258E+03 0.169E+03 0.184E+02 ort(H,U,f) = 0.440E+03-0.805E+02-0.206E+02
CGA:  10    -0.144922226823E+03   -0.70428E+02   -0.59360E+02  5760   0.445E+03 0.339E+03
 gam= 0.387 trial= 0.340  step= 0.140 mean= 0.340
 gam= 0.738 g(H,U,f)=  0.136E+03 0.161E+03 0.313E+02 ort(H,U,f) = 0.985E+02-0.110E+03 0.147E+01
CGA:  11    -0.177523221283E+03   -0.32601E+02   -0.40394E+02  5760   0.329E+03-0.104E+02
 gam= 0.738 trial= 0.330  step= 0.103 mean= 0.330
 gam= 0.981 g(H,U,f)=  0.111E+03 0.163E+03 0.487E+02 ort(H,U,f) = 0.814E+02-0.971E+02-0.511E+02
CGA:  12    -0.187648858659E+03   -0.10126E+02   -0.16478E+02  5760   0.322E+03-0.668E+02
 gam= 0.981 trial= 0.318  step= 0.122 mean= 0.318
 gam= 0.540 g(H,U,f)=  0.495E+02 0.108E+03 0.172E+02 ort(H,U,f) = 0.140E+02-0.167E+01-0.436E+01
CGA:  13    -0.203311891374E+03   -0.15663E+02   -0.15650E+02  5760   0.174E+03 0.802E+01
 gam= 0.540 trial= 0.308  step= 0.089 mean= 0.308
 gam= 0.479 g(H,U,f)=  0.224E+02 0.454E+02 0.156E+02 ort(H,U,f) =-0.378E+01-0.145E+02-0.165E+02
CGA:  14    -0.209446504176E+03   -0.61346E+01   -0.79448E+01  5760   0.834E+02-0.348E+02
 gam= 0.479 trial= 0.297  step= 0.099 mean= 0.297
 gam= 0.227 g(H,U,f)=  0.137E+02 0.407E+01 0.123E+01 ort(H,U,f) =-0.321E+01-0.147E+01-0.360E+00
CGA:  15    -0.212263787585E+03   -0.28173E+01   -0.32950E+01  5760   0.190E+02-0.504E+01
 gam= 0.227 trial= 0.288  step= 0.273 mean= 0.288
 gam= 2.982 g(H,U,f)=  0.867E+01 0.299E+02 0.180E+02 ort(H,U,f) = 0.492E+01-0.360E+01 0.363E+01
CGA:  16    -0.214679623164E+03   -0.24158E+01   -0.24308E+01  5760   0.566E+02 0.495E+01
 gam= 2.982 trial= 0.287  step= 0.095 mean= 0.287
 gam= 0.211 g(H,U,f)=  0.620E+01 0.515E+01 0.588E+00 ort(H,U,f) =-0.333E+01 0.193E+01 0.508E+01
CGA:  17    -0.216658292676E+03   -0.19787E+01   -0.33822E+01  5760   0.119E+02 0.368E+01
 gam= 0.211 trial= 0.277  step= 0.166 mean= 0.277
 gam= 1.099 g(H,U,f)=  0.324E+01 0.826E+01 0.161E+01 ort(H,U,f) = 0.105E+01 0.153E+00-0.655E+00
CGA:  18    -0.217681057936E+03   -0.10228E+01   -0.10523E+01  5760   0.131E+02 0.547E+00
 gam= 1.099 trial= 0.272  step= 0.098 mean= 0.272
 gam= 0.341 g(H,U,f)=  0.242E+01 0.180E+01 0.247E+00 ort(H,U,f) =-0.719E+00-0.272E+00-0.150E+00
CGA:  19    -0.218266882589E+03   -0.58582E+00   -0.67011E+00  5760   0.447E+01-0.114E+01
 gam= 0.341 trial= 0.263  step= 0.256 mean= 0.263
 gam= 1.012 g(H,U,f)=  0.173E+01 0.250E+01 0.292E+00 ort(H,U,f) = 0.409E-01 0.140E-01-0.123E+00
CGA:  20    -0.218790395125E+03   -0.52351E+00   -0.52314E+00  5760   0.452E+01-0.676E-01
 gam= 1.012 trial= 0.263  step= 0.158 mean= 0.263
 gam= 0.906 g(H,U,f)=  0.124E+01 0.231E+01 0.549E+00 ort(H,U,f) = 0.676E-01-0.624E-01-0.224E-01
CGA:  21    -0.219130286617E+03   -0.33989E+00   -0.35269E+00  5760   0.410E+01-0.171E-01
 gam= 0.906 trial= 0.257  step= 0.139 mean= 0.257
 gam= 0.356 g(H,U,f)=  0.828E+00 0.582E+00 0.493E-01 ort(H,U,f) =-0.408E+00 0.436E+00-0.889E-01
CGA:  22    -0.219403761697E+03   -0.27348E+00   -0.28338E+00  5760   0.146E+01-0.603E-01
 gam= 0.356 trial= 0.251  step= 0.235 mean= 0.251
 gam= 1.102 g(H,U,f)=  0.539E+00 0.869E+00 0.201E+00 ort(H,U,f) = 0.713E-01-0.493E-01-0.237E-01
CGA:  23    -0.219572793485E+03   -0.16903E+00   -0.16900E+00  5760   0.161E+01-0.167E-02
 gam= 1.102 trial= 0.251  step= 0.134 mean= 0.251
 gam= 0.501 g(H,U,f)=  0.375E+00 0.379E+00 0.527E-01 ort(H,U,f) = 0.398E-01 0.666E-01-0.925E-01
CGA:  24    -0.219680577209E+03   -0.10778E+00   -0.10732E+00  5760   0.807E+00 0.139E-01
 gam= 0.501 trial= 0.245  step= 0.244 mean= 0.245
 gam= 1.138 g(H,U,f)=  0.264E+00 0.545E+00 0.109E+00 ort(H,U,f) =-0.759E-02 0.236E-01-0.253E-01
CGA:  25    -0.219779997912E+03   -0.99421E-01   -0.99417E-01  5760   0.918E+00-0.930E-02
 gam= 1.138 trial= 0.245  step= 0.165 mean= 0.245
 gam= 0.791 g(H,U,f)=  0.227E+00 0.432E+00 0.669E-01 ort(H,U,f) =-0.119E+00 0.170E+00-0.509E-01
CGA:  26    -0.219853569679E+03   -0.73572E-01   -0.74763E-01  5760   0.726E+00 0.189E-03
 gam= 0.791 trial= 0.241  step= 0.198 mean= 0.241
 gam= 0.771 g(H,U,f)=  0.196E+00 0.302E+00 0.622E-01 ort(H,U,f) =-0.185E+00 0.210E+00-0.186E-01
CGA:  27    -0.219924984044E+03   -0.71414E-01   -0.71896E-01  5760   0.560E+00 0.701E-02
 gam= 0.771 trial= 0.239  step= 0.193 mean= 0.239
 gam= 1.791 g(H,U,f)=  0.238E+00 0.592E+00 0.173E+00 ort(H,U,f) =-0.112E+00 0.178E+00-0.872E-01
CGA:  28    -0.219981460339E+03   -0.56476E-01   -0.54466E-01  5760   0.100E+01-0.216E-01
 gam= 1.791 trial= 0.236  step= 0.316 mean= 0.236
 gam= 1.706 g(H,U,f)=  0.712E+00 0.949E+00 0.507E-01 ort(H,U,f) =-0.562E+00 0.598E+00 0.101E-01
CGA:  29    -0.220136365734E+03   -0.15491E+00   -0.15223E+00  5760   0.171E+01 0.468E-01
 gam= 1.706 trial= 0.240  step= 0.184 mean= 0.240
 gam= 1.606 g(H,U,f)=  0.111E+01 0.154E+01 0.103E+00 ort(H,U,f) =-0.102E+01 0.101E+01-0.572E-01
CGA:  30    -0.220309894476E+03   -0.17353E+00   -0.16470E+00  5760   0.275E+01-0.691E-01
 gam= 1.606 trial= 0.237  step= 0.081 mean= 0.237
 gam= 1.090 g(H,U,f)=  0.132E+01 0.162E+01 0.620E-01 ort(H,U,f) =-0.130E+01 0.165E+01-0.512E-01
CGA:  31    -0.220431536339E+03   -0.12164E+00   -0.10675E+00  5760   0.300E+01 0.301E+00
 gam= 1.090 trial= 0.230  step= 0.073 mean= 0.230
 gam= 0.965 g(H,U,f)=  0.145E+01 0.143E+01 0.202E-01 ort(H,U,f) =-0.914E+00 0.107E+01 0.205E-01
CGA:  32    -0.220560433167E+03   -0.12890E+00   -0.12177E+00  5760   0.289E+01 0.177E+00
 gam= 0.965 trial= 0.222  step= 0.075 mean= 0.222
 gam= 1.060 g(H,U,f)=  0.154E+01 0.150E+01 0.227E-01 ort(H,U,f) =-0.255E+00 0.209E+00-0.122E-01
CGA:  33    -0.220670355102E+03   -0.10992E+00   -0.11453E+00  5760   0.307E+01-0.583E-01
 gam= 1.060 trial= 0.214  step= 0.081 mean= 0.214
 gam= 1.034 g(H,U,f)=  0.156E+01 0.156E+01 0.469E-01 ort(H,U,f) = 0.189E+00-0.299E+00-0.232E-01
CGA:  34    -0.220780453786E+03   -0.11010E+00   -0.12101E+00  5760   0.317E+01-0.133E+00
 gam= 1.034 trial= 0.208  step= 0.087 mean= 0.208
 gam= 0.897 g(H,U,f)=  0.140E+01 0.140E+01 0.381E-01 ort(H,U,f) = 0.297E+00-0.423E+00-0.475E-02
CGA:  35    -0.220900027631E+03   -0.11957E+00   -0.13200E+00  5760   0.284E+01-0.130E+00
 gam= 0.897 trial= 0.202  step= 0.100 mean= 0.202
 gam= 0.757 g(H,U,f)=  0.108E+01 0.103E+01 0.478E-01 ort(H,U,f) =-0.181E-01-0.505E-01 0.160E-01
CGA:  36    -0.221026877260E+03   -0.12685E+00   -0.13567E+00  5760   0.215E+01-0.525E-01
 gam= 0.757 trial= 0.197  step= 0.101 mean= 0.197
 gam= 0.587 g(H,U,f)=  0.846E+00 0.412E+00 0.613E-02 ort(H,U,f) =-0.192E+00 0.151E+00 0.207E-01
CGA:  37    -0.221130268038E+03   -0.10339E+00   -0.10713E+00  5760   0.126E+01-0.198E-01
 gam= 0.587 trial= 0.192  step= 0.128 mean= 0.192
 gam= 1.007 g(H,U,f)=  0.760E+00 0.480E+00 0.317E-01 ort(H,U,f) = 0.675E-01-0.498E-01-0.445E-01
CGA:  38    -0.221209516963E+03   -0.79249E-01   -0.80136E-01  5760   0.127E+01-0.268E-01
 gam= 1.007 trial= 0.189  step= 0.170 mean= 0.189
 gam= 0.000 g(H,U,f)=  0.726E+00 0.653E+00 0.116E+00 ort(H,U,f) =-0.157E+00 0.135E+00-0.148E+00
SDA:  39    -0.221315886104E+03   -0.10637E+00   -0.10607E+00  5760   0.150E+01-0.170E+00
 gam= 0.000 trial= 0.188  step= 0.240 mean= 0.188
 gam= 0.619 g(H,U,f)=  0.218E+00 0.617E+00 0.901E-01 ort(H,U,f) = 0.210E+00-0.263E-01-0.674E-01
CGA:  40    -0.221501596246E+03   -0.18571E+00   -0.17923E+00  5760   0.925E+00 0.116E+00
 gam= 0.619 trial= 0.190  step= 0.239 mean= 0.190
 gam= 1.102 g(H,U,f)=  0.187E+00 0.723E+00 0.110E+00 ort(H,U,f) = 0.375E-02 0.195E-01-0.603E-01
CGA:  41    -0.221620863848E+03   -0.11927E+00   -0.11918E+00  5760   0.102E+01-0.370E-01
 gam= 1.102 trial= 0.193  step= 0.433 mean= 0.193
 gam= 0.531 g(H,U,f)=  0.270E+00 0.261E+00 0.106E-01 ort(H,U,f) =-0.316E+00 0.404E+00-0.296E-03
CGA:  42    -0.221845861200E+03   -0.22500E+00   -0.21208E+00  5760   0.541E+00 0.879E-01
 gam= 0.531 trial= 0.205  step= 0.435 mean= 0.205
 gam= 0.830 g(H,U,f)=  0.191E+00 0.254E+00 0.423E-02 ort(H,U,f) =-0.100E+00 0.942E-01-0.343E-02
CGA:  43    -0.221974167322E+03   -0.12831E+00   -0.12799E+00  5760   0.449E+00-0.950E-02
 gam= 0.830 trial= 0.216  step= 0.627 mean= 0.216
 gam= 2.442 g(H,U,f)=  0.204E+00 0.714E+00 0.179E+00 ort(H,U,f) =-0.447E-01 0.680E-02-0.647E-01
CGA:  44    -0.222101587449E+03   -0.12742E+00   -0.13831E+00  5760   0.110E+01-0.103E+00
 gam= 2.442 trial= 0.237  step= 0.120 mean= 0.237
 gam= 0.342 g(H,U,f)=  0.158E+00 0.198E+00 0.191E-01 ort(H,U,f) =-0.756E-01 0.939E-01-0.268E-01
CGA:  45    -0.222147470693E+03   -0.45883E-01   -0.50762E-01  5760   0.375E+00-0.845E-02
 gam= 0.342 trial= 0.231  step= 0.172 mean= 0.231
 gam= 1.448 g(H,U,f)=  0.113E+00 0.369E+00 0.618E-01 ort(H,U,f) = 0.475E-01-0.370E-01-0.290E-01
CGA:  46    -0.222178957205E+03   -0.31487E-01   -0.32043E-01  5760   0.543E+00-0.185E-01
 gam= 1.448 trial= 0.228  step= 0.130 mean= 0.228
 gam= 0.337 g(H,U,f)=  0.760E-01 0.102E+00 0.503E-02 ort(H,U,f) = 0.120E-02 0.115E-01-0.127E-01
CGA:  47    -0.222212735372E+03   -0.33778E-01   -0.33675E-01  5760   0.183E+00-0.977E-05
 gam= 0.337 trial= 0.223  step= 0.290 mean= 0.223
 gam= 2.102 g(H,U,f)=  0.713E-01 0.247E+00 0.672E-01 ort(H,U,f) = 0.421E-03 0.244E-02-0.179E-02
CGA:  48    -0.222239285868E+03   -0.26550E-01   -0.26574E-01  5760   0.385E+00 0.107E-02
 gam= 2.102 trial= 0.227  step= 0.125 mean= 0.227
 gam= 0.667 g(H,U,f)=  0.916E-01 0.153E+00 0.128E-01 ort(H,U,f) =-0.539E-01 0.648E-01-0.687E-02
CGA:  49    -0.222261004955E+03   -0.21719E-01   -0.24240E-01  5760   0.257E+00 0.400E-02
 gam= 0.667 trial= 0.221  step= 0.243 mean= 0.221
 gam= 1.228 g(H,U,f)=  0.891E-01 0.190E+00 0.362E-01 ort(H,U,f) =-0.487E-01 0.661E-01-0.273E-01
CGA:  50    -0.222292653727E+03   -0.31649E-01   -0.31492E-01  5760   0.315E+00-0.997E-02
 gam= 1.228 trial= 0.222  step= 0.137 mean= 0.222
 gam= 1.077 g(H,U,f)=  0.911E-01 0.185E+00 0.632E-01 ort(H,U,f) =-0.609E-01 0.747E-01-0.466E-02
CGA:  51    -0.222313554864E+03   -0.20901E-01   -0.20828E-01  5760   0.340E+00 0.910E-02
 gam= 1.077 trial= 0.218  step= 0.160 mean= 0.218
 gam= 0.541 g(H,U,f)=  0.739E-01 0.857E-01 0.243E-01 ort(H,U,f) =-0.866E-01 0.937E-01 0.321E-01
CGA:  52    -0.222340317905E+03   -0.26763E-01   -0.28000E-01  5760   0.184E+00 0.393E-01
 gam= 0.541 trial= 0.215  step= 0.134 mean= 0.215
 gam= 1.163 g(H,U,f)=  0.668E-01 0.121E+00 0.264E-01 ort(H,U,f) =-0.666E-02 0.260E-01-0.315E-01
CGA:  53    -0.222352478559E+03   -0.12161E-01   -0.13745E-01  5760   0.214E+00-0.122E-01
 gam= 1.163 trial= 0.211  step= 0.245 mean= 0.211
 gam= 0.933 g(H,U,f)=  0.845E-01 0.113E+00 0.239E-02 ort(H,U,f) =-0.389E-01 0.231E-01-0.458E-03
CGA:  54    -0.222376345466E+03   -0.23867E-01   -0.24462E-01  5760   0.200E+00-0.162E-01
 gam= 0.933 trial= 0.213  step= 0.269 mean= 0.213
 gam= 0.875 g(H,U,f)=  0.704E-01 0.865E-01 0.176E-01 ort(H,U,f) =-0.285E-01 0.323E-01 0.178E-01
CGA:  55    -0.222401470950E+03   -0.25125E-01   -0.24844E-01  5760   0.175E+00 0.216E-01
 gam= 0.875 trial= 0.216  step= 0.149 mean= 0.216
 gam= 0.909 g(H,U,f)=  0.523E-01 0.874E-01 0.190E-01 ort(H,U,f) =-0.152E-02 0.108E-01-0.910E-02
CGA:  56    -0.222414814844E+03   -0.13344E-01   -0.14376E-01  5760   0.159E+00 0.170E-03
 gam= 0.909 trial= 0.212  step= 0.192 mean= 0.212
 gam= 0.653 g(H,U,f)=  0.426E-01 0.488E-01 0.122E-01 ort(H,U,f) =-0.655E-02-0.266E-03-0.968E-02
CGA:  57    -0.222430061782E+03   -0.15247E-01   -0.15248E-01  5760   0.104E+00-0.165E-01
 gam= 0.653 trial= 0.211  step= 0.247 mean= 0.211
 gam= 1.357 g(H,U,f)=  0.431E-01 0.825E-01 0.151E-01 ort(H,U,f) =-0.972E-03-0.467E-02-0.394E-02
CGA:  58    -0.222441240044E+03   -0.11178E-01   -0.11477E-01  5760   0.141E+00-0.958E-02
 gam= 1.357 trial= 0.213  step= 0.193 mean= 0.213
 gam= 0.837 g(H,U,f)=  0.465E-01 0.660E-01 0.526E-02 ort(H,U,f) =-0.200E-01 0.337E-01-0.183E-02
CGA:  59    -0.222453271830E+03   -0.12032E-01   -0.12304E-01  5760   0.118E+00 0.119E-01
 gam= 0.837 trial= 0.212  step= 0.251 mean= 0.212
 gam= 0.922 g(H,U,f)=  0.365E-01 0.452E-01 0.268E-01 ort(H,U,f) =-0.333E-01 0.317E-01-0.728E-02
CGA:  60    -0.222469365385E+03   -0.16094E-01   -0.16050E-01  5760   0.109E+00-0.894E-02
 gam= 0.922 trial= 0.214  step= 0.206 mean= 0.214
 gam= 1.272 g(H,U,f)=  0.408E-01 0.734E-01 0.238E-01 ort(H,U,f) =-0.236E-01 0.316E-01 0.101E-01
CGA:  61    -0.222479629671E+03   -0.10264E-01   -0.10315E-01  5760   0.138E+00 0.182E-01
 gam= 1.272 trial= 0.214  step= 0.187 mean= 0.214
 gam= 1.026 g(H,U,f)=  0.492E-01 0.787E-01 0.138E-01 ort(H,U,f) =-0.257E-01 0.646E-01 0.222E-03
CGA:  62    -0.222493775680E+03   -0.14146E-01   -0.15104E-01  5760   0.142E+00 0.392E-01
 gam= 1.026 trial= 0.212  step= 0.332 mean= 0.212
 gam= 1.114 g(H,U,f)=  0.601E-01 0.892E-01 0.849E-02 ort(H,U,f) =-0.414E-01 0.924E-01 0.526E-02
CGA:  63    -0.222528618509E+03   -0.34843E-01   -0.30166E-01  5760   0.158E+00 0.563E-01
 gam= 1.114 trial= 0.218  step= 0.335 mean= 0.218
 gam= 4.760 g(H,U,f)=  0.124E+00 0.371E+00 0.257E+00 ort(H,U,f) =-0.842E-02 0.104E+00-0.156E+00
CGA:  64    -0.222564287082E+03   -0.35669E-01   -0.36969E-01  5760   0.751E+00-0.609E-01
 gam= 4.760 trial= 0.224  step= 0.053 mean= 0.224
 gam= 1.120 g(H,U,f)=  0.172E+00 0.413E+00 0.256E+00 ort(H,U,f) =-0.918E-01 0.885E+00-0.622E+00
CGA:  65    -0.222589980179E+03   -0.25693E-01   -0.12126E-01  5760   0.841E+00 0.171E+00
 gam= 1.120 trial= 0.216  step= 0.006 mean= 0.216
 gam= 0.000 g(H,U,f)=  0.166E+00 0.376E+00 0.205E+00 ort(H,U,f) = 0.219E-01 0.136E+01-0.399E+00
CGA:  66    -0.222597361783E+03   -0.73816E-02   -0.31636E-02  5760   0.747E+00 0.982E+00
 gam= 0.000 trial= 0.205  step= 0.101 mean= 0.205
 gam= 0.398 g(H,U,f)=  0.812E-01 0.150E+00 0.661E-01 ort(H,U,f) = 0.891E-01 0.547E-01-0.120E+00
CGA:  67    -0.222638001343E+03   -0.40640E-01   -0.37786E-01  5760   0.298E+00 0.242E-01
 gam= 0.398 trial= 0.200  step= 0.354 mean= 0.200
 gam= 0.938 g(H,U,f)=  0.482E-01 0.158E+00 0.734E-01 ort(H,U,f) = 0.538E-02 0.359E-01 0.122E-01
CGA:  68    -0.222696899752E+03   -0.58898E-01   -0.54329E-01  5760   0.279E+00 0.535E-01
 gam= 0.938 trial= 0.208  step= 0.216 mean= 0.208
 gam= 1.470 g(H,U,f)=  0.843E-01 0.242E+00 0.844E-01 ort(H,U,f) = 0.400E-02 0.108E+00-0.826E-01
CGA:  69    -0.222732934288E+03   -0.36035E-01   -0.35529E-01  5760   0.410E+00 0.289E-01
 gam= 1.470 trial= 0.208  step= 0.552 mean= 0.208
 gam= 0.000 g(H,U,f)=  0.541E+00 0.226E+01 0.140E+01 ort(H,U,f) =-0.289E+00-0.118E+01-0.911E-01
CGA:  70    -0.222687529502E+03    0.45405E-01   -0.12500E+00  5760   0.420E+01-0.156E+01
 gam= 0.000 trial= 0.225  step= 0.134 mean= 0.225
 gam= 0.073 g(H,U,f)=  0.141E+00 0.164E+00 0.255E-02 ort(H,U,f) = 0.120E+00-0.963E-01-0.169E-01
CGA:  71    -0.222873757601E+03   -0.18623E+00   -0.28059E+00  5760   0.307E+00 0.714E-02
 gam= 0.073 trial= 0.221  step= 0.297 mean= 0.221
 gam= 0.465 g(H,U,f)=  0.397E-01 0.103E+00 0.436E-03 ort(H,U,f) = 0.333E-01-0.354E-01-0.205E-03
CGA:  72    -0.222919306560E+03   -0.45549E-01   -0.45742E-01  5760   0.143E+00-0.234E-02
 gam= 0.465 trial= 0.224  step= 0.465 mean= 0.224
 gam= 0.453 g(H,U,f)=  0.203E-01 0.443E-01 0.945E-04 ort(H,U,f) =-0.187E-01 0.233E-01-0.620E-04
CGA:  73    -0.222952467395E+03   -0.33161E-01   -0.32955E-01  5760   0.647E-01 0.448E-02
 gam= 0.453 trial= 0.236  step= 0.724 mean= 0.236
 gam= 2.878 g(H,U,f)=  0.438E-01 0.131E+00 0.111E-01 ort(H,U,f) =-0.161E-01-0.432E-02-0.613E-03
CGA:  74    -0.222970042553E+03   -0.17575E-01   -0.24149E-01  5760   0.186E+00-0.211E-01
 gam= 2.878 trial= 0.261  step= 0.246 mean= 0.261
 gam= 0.769 g(H,U,f)=  0.554E-01 0.825E-01 0.533E-02 ort(H,U,f) =-0.443E-01 0.564E-01 0.702E-02
CGA:  75    -0.222985349599E+03   -0.15307E-01   -0.15469E-01  5760   0.143E+00 0.192E-01
 gam= 0.769 trial= 0.260  step= 0.189 mean= 0.260
 gam= 0.599 g(H,U,f)=  0.424E-01 0.428E-01 0.626E-03 ort(H,U,f) =-0.110E-01 0.147E-01-0.354E-02
CGA:  76    -0.222999813124E+03   -0.14464E-01   -0.14891E-01  5760   0.858E-01 0.233E-03
 gam= 0.599 trial= 0.257  step= 0.365 mean= 0.257
 gam= 0.762 g(H,U,f)=  0.278E-01 0.329E-01 0.467E-02 ort(H,U,f) =-0.443E-02 0.585E-02-0.359E-02
CGA:  77    -0.223015482952E+03   -0.15670E-01   -0.15667E-01  5760   0.654E-01-0.217E-02
 gam= 0.762 trial= 0.262  step= 0.263 mean= 0.262
 gam= 0.832 g(H,U,f)=  0.213E-01 0.329E-01 0.172E-03 ort(H,U,f) = 0.521E-03-0.235E-03 0.377E-03
CGA:  78    -0.223023845080E+03   -0.83621E-02   -0.83627E-02  5760   0.544E-01 0.663E-03
 gam= 0.832 trial= 0.262  step= 0.319 mean= 0.262
 gam= 0.654 g(H,U,f)=  0.154E-01 0.200E-01 0.244E-03 ort(H,U,f) =-0.572E-02 0.716E-02 0.780E-05
CGA:  79    -0.223032661615E+03   -0.88165E-02   -0.87639E-02  5760   0.356E-01 0.145E-02
 gam= 0.654 trial= 0.265  step= 0.273 mean= 0.265
 gam= 0.908 g(H,U,f)=  0.116E-01 0.204E-01 0.289E-03 ort(H,U,f) =-0.313E-02 0.357E-02 0.734E-04
CGA:  80    -0.223037644189E+03   -0.49826E-02   -0.49832E-02  5760   0.323E-01 0.513E-03
 gam= 0.908 trial= 0.265  step= 0.334 mean= 0.265
 gam= 0.761 g(H,U,f)=  0.129E-01 0.116E-01 0.154E-03 ort(H,U,f) =-0.823E-02 0.720E-02-0.441E-03
CGA:  81    -0.223043066124E+03   -0.54219E-02   -0.54804E-02  5760   0.246E-01-0.147E-02
 gam= 0.761 trial= 0.269  step= 0.361 mean= 0.269
 gam= 1.360 g(H,U,f)=  0.119E-01 0.214E-01 0.159E-03 ort(H,U,f) =-0.364E-02 0.481E-02-0.844E-04
CGA:  82    -0.223047261534E+03   -0.41954E-02   -0.42340E-02  5760   0.334E-01 0.109E-02
 gam= 1.360 trial= 0.273  step= 0.325 mean= 0.273
 gam= 0.714 g(H,U,f)=  0.126E-01 0.107E-01 0.521E-03 ort(H,U,f) =-0.951E-02 0.736E-02 0.521E-03
CGA:  83    -0.223052833493E+03   -0.55720E-02   -0.56749E-02  5760   0.239E-01-0.163E-02
 gam= 0.714 trial= 0.276  step= 0.385 mean= 0.276
 gam= 0.810 g(H,U,f)=  0.871E-02 0.104E-01 0.235E-03 ort(H,U,f) =-0.349E-02 0.552E-02 0.501E-03
CGA:  84    -0.223057349771E+03   -0.45163E-02   -0.43675E-02  5760   0.193E-01 0.253E-02
 gam= 0.810 trial= 0.281  step= 0.303 mean= 0.281
 gam= 0.891 g(H,U,f)=  0.745E-02 0.957E-02 0.197E-03 ort(H,U,f) =-0.181E-02 0.561E-03-0.584E-03
CGA:  85    -0.223060543516E+03   -0.31937E-02   -0.32449E-02  5760   0.172E-01-0.183E-02
 gam= 0.891 trial= 0.282  step= 0.383 mean= 0.282
 gam= 0.813 g(H,U,f)=  0.641E-02 0.738E-02 0.211E-03 ort(H,U,f) =-0.228E-02 0.325E-02-0.359E-03
CGA:  86    -0.223063553560E+03   -0.30100E-02   -0.29846E-02  5760   0.140E-01 0.610E-03
 gam= 0.813 trial= 0.287  step= 0.281 mean= 0.287
 gam= 0.965 g(H,U,f)=  0.499E-02 0.843E-02 0.811E-04 ort(H,U,f) =-0.115E-02 0.103E-02 0.418E-04
CGA:  87    -0.223065596920E+03   -0.20434E-02   -0.20408E-02  5760   0.135E-01-0.786E-04
 gam= 0.965 trial= 0.287  step= 0.340 mean= 0.287
 gam= 0.842 g(H,U,f)=  0.484E-02 0.622E-02 0.311E-03 ort(H,U,f) =-0.306E-02 0.280E-02 0.328E-03
CGA:  88    -0.223067873377E+03   -0.22765E-02   -0.22833E-02  5760   0.114E-01 0.736E-04
 gam= 0.842 trial= 0.290  step= 0.302 mean= 0.290
 gam= 1.066 g(H,U,f)=  0.455E-02 0.755E-02 0.258E-04 ort(H,U,f) =-0.191E-02 0.270E-02 0.779E-04
CGA:  89    -0.223069604140E+03   -0.17308E-02   -0.17260E-02  5760   0.121E-01 0.868E-03
 gam= 1.066 trial= 0.290  step= 0.331 mean= 0.290
 gam= 1.036 g(H,U,f)=  0.603E-02 0.627E-02 0.269E-03 ort(H,U,f) =-0.346E-02 0.361E-02-0.611E-03
CGA:  90    -0.223071768914E+03   -0.21648E-02   -0.21621E-02  5760   0.126E-01-0.462E-03
 gam= 1.036 trial= 0.292  step= 0.552 mean= 0.292
 gam= 1.953 g(H,U,f)=  0.998E-02 0.143E-01 0.255E-03 ort(H,U,f) =-0.471E-02 0.359E-02-0.250E-03
CGA:  91    -0.223074930281E+03   -0.31614E-02   -0.33341E-02  5760   0.245E-01-0.137E-02
 gam= 1.953 trial= 0.305  step= 0.258 mean= 0.305
 gam= 0.676 g(H,U,f)=  0.109E-01 0.563E-02 0.320E-04 ort(H,U,f) =-0.973E-02 0.921E-02-0.161E-03
CGA:  92    -0.223077850802E+03   -0.29205E-02   -0.28204E-02  5760   0.166E-01-0.685E-03
 gam= 0.676 trial= 0.303  step= 0.479 mean= 0.303
 gam= 1.685 g(H,U,f)=  0.118E-01 0.159E-01 0.182E-03 ort(H,U,f) =-0.352E-02 0.422E-02 0.179E-04
CGA:  93    -0.223081740835E+03   -0.38900E-02   -0.38598E-02  5760   0.280E-01 0.719E-03
 gam= 1.685 trial= 0.312  step= 0.280 mean= 0.312
 gam= 0.660 g(H,U,f)=  0.107E-01 0.771E-02 0.363E-04 ort(H,U,f) =-0.601E-02 0.607E-02-0.748E-04
CGA:  94    -0.223085841922E+03   -0.41011E-02   -0.40758E-02  5760   0.185E-01-0.207E-04
 gam= 0.660 trial= 0.310  step= 0.378 mean= 0.310
 gam= 0.862 g(H,U,f)=  0.817E-02 0.747E-02 0.258E-03 ort(H,U,f) =-0.273E-02 0.216E-02-0.297E-03
CGA:  95    -0.223089307139E+03   -0.34652E-02   -0.34878E-02  5760   0.159E-01-0.873E-03
 gam= 0.862 trial= 0.314  step= 0.324 mean= 0.314
 gam= 0.968 g(H,U,f)=  0.683E-02 0.842E-02 0.139E-03 ort(H,U,f) =-0.940E-03 0.116E-02-0.664E-04
CGA:  96    -0.223091753099E+03   -0.24460E-02   -0.24546E-02  5760   0.154E-01 0.158E-03
 gam= 0.968 trial= 0.314  step= 0.294 mean= 0.314
 gam= 0.573 g(H,U,f)=  0.478E-02 0.403E-02 0.143E-04 ort(H,U,f) =-0.258E-02 0.225E-02-0.271E-04
CGA:  97    -0.223094042634E+03   -0.22895E-02   -0.22849E-02  5760   0.883E-02-0.358E-03
 gam= 0.573 trial= 0.313  step= 0.409 mean= 0.313
 gam= 1.257 g(H,U,f)=  0.458E-02 0.651E-02 0.126E-04 ort(H,U,f) =-0.131E-02 0.138E-02-0.792E-05
CGA:  98    -0.223095774527E+03   -0.17319E-02   -0.17611E-02  5760   0.111E-01 0.647E-04
 gam= 1.257 trial= 0.318  step= 0.262 mean= 0.318
 gam= 0.618 g(H,U,f)=  0.381E-02 0.301E-02 0.384E-04 ort(H,U,f) =-0.236E-02 0.235E-02 0.189E-04
CGA:  99    -0.223097242685E+03   -0.14682E-02   -0.14669E-02  5760   0.685E-02 0.761E-05
 gam= 0.618 trial= 0.315  step= 0.353 mean= 0.315
 gam= 0.972 g(H,U,f)=  0.334E-02 0.326E-02 0.554E-04 ort(H,U,f) =-0.111E-02 0.113E-02 0.624E-04
CGA: 100    -0.223098455391E+03   -0.12127E-02   -0.12107E-02  5760   0.666E-02 0.857E-04
 gam= 0.972 trial= 0.317  step= 0.289 mean= 0.317
 gam= 0.000 g(H,U,f)=  0.299E-02 0.286E-02 0.109E-04 ort(H,U,f) =-0.590E-03 0.716E-03 0.214E-04
SDA: 101    -0.223099432084E+03   -0.97669E-03   -0.97397E-03  5760   0.586E-02 0.147E-03
 gam= 0.000 trial= 0.316  step= 0.246 mean= 0.316
 gam= 0.343 g(H,U,f)=  0.863E-03 0.114E-02 0.971E-05 ort(H,U,f) = 0.558E-03-0.482E-03-0.236E-05
CGA: 102    -0.223100163010E+03   -0.73093E-03   -0.72155E-03  5760   0.201E-02 0.741E-04
 gam= 0.343 trial= 0.312  step= 0.366 mean= 0.312
 gam= 0.970 g(H,U,f)=  0.744E-03 0.121E-02 0.371E-05 ort(H,U,f) = 0.562E-04-0.114E-03 0.177E-05
CGA: 103    -0.223100528363E+03   -0.36535E-03   -0.37283E-03  5760   0.195E-02-0.558E-04
 gam= 0.970 trial= 0.315  step= 0.470 mean= 0.315
 gam= 0.439 g(H,U,f)=  0.500E-03 0.354E-03 0.340E-05 ort(H,U,f) =-0.531E-03 0.494E-03 0.728E-05
CGA: 104    -0.223100970401E+03   -0.44204E-03   -0.44654E-03  5760   0.858E-03-0.290E-04
 gam= 0.439 trial= 0.323  step= 0.761 mean= 0.323
 gam= 1.215 g(H,U,f)=  0.459E-03 0.579E-03 0.454E-05 ort(H,U,f) =-0.195E-03 0.199E-03 0.748E-05
CGA: 105    -0.223101293906E+03   -0.32351E-03   -0.32142E-03  5760   0.104E-02 0.106E-04
 gam= 1.215 trial= 0.345  step= 0.542 mean= 0.345
 gam= 0.742 g(H,U,f)=  0.417E-03 0.356E-03 0.797E-06 ort(H,U,f) =-0.267E-03 0.288E-03 0.305E-05
CGA: 106    -0.223101581056E+03   -0.28715E-03   -0.28612E-03  5760   0.774E-03 0.242E-04
 gam= 0.742 trial= 0.354  step= 0.586 mean= 0.354
 gam= 1.061 g(H,U,f)=  0.349E-03 0.468E-03 0.424E-05 ort(H,U,f) =-0.123E-03 0.126E-03 0.819E-05
CGA: 107    -0.223101812716E+03   -0.23166E-03   -0.23199E-03  5760   0.821E-03 0.119E-04
 gam= 1.061 trial= 0.366  step= 0.392 mean= 0.366
 gam= 1.092 g(H,U,f)=  0.311E-03 0.585E-03 0.167E-05 ort(H,U,f) =-0.975E-04 0.105E-03-0.113E-05
CGA: 108    -0.223101974702E+03   -0.16199E-03   -0.16359E-03  5760   0.897E-03 0.625E-05
 gam= 1.092 trial= 0.367  step= 0.465 mean= 0.367
 gam= 0.617 g(H,U,f)=  0.274E-03 0.278E-03 0.741E-06 ort(H,U,f) =-0.168E-03 0.175E-03-0.682E-05
CGA: 109    -0.223102185110E+03   -0.21041E-03   -0.21001E-03  5760   0.553E-03 0.347E-07
 gam= 0.617 trial= 0.372  step= 0.635 mean= 0.372
 gam= 0.739 g(H,U,f)=  0.214E-03 0.194E-03 0.792E-07 ort(H,U,f) =-0.125E-03 0.110E-03 0.391E-06
CGA: 110    -0.223102358484E+03   -0.17337E-03   -0.17555E-03  5760   0.409E-03-0.139E-04
 gam= 0.739 trial= 0.385  step= 0.723 mean= 0.385
 gam= 1.339 g(H,U,f)=  0.218E-03 0.322E-03 0.708E-05 ort(H,U,f) =-0.769E-04 0.851E-04-0.777E-05
CGA: 111    -0.223102499350E+03   -0.14087E-03   -0.14400E-03  5760   0.547E-03 0.371E-06
 gam= 1.339 trial= 0.402  step= 0.348 mean= 0.402
 gam= 0.889 g(H,U,f)=  0.186E-03 0.299E-03 0.211E-05 ort(H,U,f) =-0.967E-04 0.957E-04-0.295E-05
CGA: 112    -0.223102596505E+03   -0.97155E-04   -0.95366E-04  5760   0.487E-03-0.400E-05
 gam= 0.889 trial= 0.400  step= 0.485 mean= 0.400
 gam= 0.785 g(H,U,f)=  0.192E-03 0.190E-03 0.374E-07 ort(H,U,f) =-0.102E-03 0.815E-04-0.101E-06
CGA: 113    -0.223102712032E+03   -0.11553E-03   -0.11719E-03  5760   0.382E-03-0.208E-04
 gam= 0.785 trial= 0.404  step= 0.686 mean= 0.404
 gam= 0.827 g(H,U,f)=  0.160E-03 0.154E-03 0.222E-05 ort(H,U,f) =-0.691E-04 0.711E-04-0.676E-06
CGA: 114    -0.223102837285E+03   -0.12525E-03   -0.12533E-03  5760   0.316E-03 0.138E-05
 gam= 0.827 trial= 0.418  step= 0.720 mean= 0.418
 gam= 1.193 g(H,U,f)=  0.167E-03 0.209E-03 0.923E-06 ort(H,U,f) =-0.685E-04 0.610E-04-0.217E-06
CGA: 115    -0.223102946569E+03   -0.10928E-03   -0.11415E-03  5760   0.377E-03-0.773E-05
 gam= 1.193 trial= 0.433  step= 0.439 mean= 0.433
 gam= 1.304 g(H,U,f)=  0.156E-03 0.334E-03 0.152E-05 ort(H,U,f) =-0.562E-04 0.573E-04 0.860E-06
CGA: 116    -0.223103027236E+03   -0.80667E-04   -0.80743E-04  5760   0.491E-03 0.197E-05
 gam= 1.304 trial= 0.433  step= 0.446 mean= 0.433
 gam= 0.687 g(H,U,f)=  0.143E-03 0.195E-03 0.125E-06 ort(H,U,f) =-0.134E-03 0.125E-03 0.448E-06
CGA: 117    -0.223103137355E+03   -0.11012E-03   -0.11029E-03  5760   0.338E-03-0.846E-05
 gam= 0.687 trial= 0.434  step= 0.580 mean= 0.434
 gam= 1.049 g(H,U,f)=  0.156E-03 0.198E-03 0.158E-06 ort(H,U,f) =-0.765E-04 0.764E-04-0.634E-06
CGA: 118    -0.223103233615E+03   -0.96260E-04   -0.96225E-04  5760   0.354E-03-0.675E-06
 gam= 1.049 trial= 0.441  step= 0.813 mean= 0.441
 gam= 1.250 g(H,U,f)=  0.180E-03 0.262E-03 0.104E-05 ort(H,U,f) =-0.825E-04 0.819E-04 0.579E-06
CGA: 119    -0.223103377106E+03   -0.14349E-03   -0.14363E-03  5760   0.443E-03-0.405E-07
 gam= 1.250 trial= 0.460  step= 0.380 mean= 0.460
 gam= 0.833 g(H,U,f)=  0.145E-03 0.222E-03 0.154E-05 ort(H,U,f) =-0.605E-04 0.776E-04-0.220E-05
CGA: 120    -0.223103462751E+03   -0.85645E-04   -0.84166E-04  5760   0.369E-03 0.149E-04
 gam= 0.833 trial= 0.456  step= 0.380 mean= 0.456
 gam= 0.837 g(H,U,f)=  0.155E-03 0.153E-03 0.289E-06 ort(H,U,f) =-0.148E-04 0.115E-04-0.523E-06
CGA: 121    -0.223103536038E+03   -0.73288E-04   -0.72420E-04  5760   0.309E-03-0.391E-05
 gam= 0.837 trial= 0.452  step= 0.674 mean= 0.452
 gam= 0.509 g(H,U,f)=  0.758E-04 0.815E-04 0.552E-07 ort(H,U,f) =-0.448E-04 0.374E-04-0.279E-07
CGA: 122    -0.223103638023E+03   -0.10198E-03   -0.10299E-03  5760   0.157E-03-0.743E-05
 gam= 0.509 trial= 0.463  step= 0.537 mean= 0.463
 gam= 0.965 g(H,U,f)=  0.558E-04 0.956E-04 0.401E-06 ort(H,U,f) =-0.169E-04 0.190E-04-0.274E-06
CGA: 123    -0.223103679167E+03   -0.41144E-04   -0.41190E-04  5760   0.152E-03 0.191E-05
 gam= 0.965 trial= 0.467  step= 0.381 mean= 0.467
 gam= 1.103 g(H,U,f)=  0.537E-04 0.113E-03 0.690E-06 ort(H,U,f) =-0.133E-04 0.185E-04-0.280E-06
CGA: 124    -0.223103708839E+03   -0.29672E-04   -0.29299E-04  5760   0.167E-03 0.491E-05
 gam= 1.103 trial= 0.463  step= 0.621 mean= 0.463
 gam= 0.839 g(H,U,f)=  0.709E-04 0.693E-04 0.276E-06 ort(H,U,f) =-0.533E-04 0.442E-04-0.274E-06
CGA: 125    -0.223103760824E+03   -0.51985E-04   -0.53719E-04  5760   0.140E-03-0.944E-05
 gam= 0.839 trial= 0.471  step= 0.703 mean= 0.471
 gam= 0.882 g(H,U,f)=  0.719E-04 0.519E-04 0.149E-06 ort(H,U,f) =-0.390E-04 0.376E-04-0.522E-07
CGA: 126    -0.223103806948E+03   -0.46124E-04   -0.46572E-04  5760   0.124E-03-0.146E-05
 gam= 0.882 trial= 0.482  step= 0.691 mean= 0.482
 gam= 1.440 g(H,U,f)=  0.602E-04 0.117E-03 0.126E-05 ort(H,U,f) =-0.132E-04 0.153E-04-0.324E-06
CGA: 127    -0.223103848710E+03   -0.41762E-04   -0.42344E-04  5760   0.178E-03 0.176E-05
 gam= 1.440 trial= 0.493  step= 0.318 mean= 0.493
 gam= 0.593 g(H,U,f)=  0.447E-04 0.607E-04 0.344E-06 ort(H,U,f) =-0.212E-04 0.246E-04-0.219E-06
CGA: 128    -0.223103878792E+03   -0.30082E-04   -0.28759E-04  5760   0.106E-03 0.314E-05
 gam= 0.593 trial= 0.484  step= 0.572 mean= 0.484
 gam= 0.820 g(H,U,f)=  0.403E-04 0.463E-04 0.824E-07 ort(H,U,f) =-0.203E-04 0.177E-04-0.287E-07
CGA: 129    -0.223103909321E+03   -0.30529E-04   -0.30756E-04  5760   0.866E-04-0.260E-05
 gam= 0.820 trial= 0.488  step= 0.843 mean= 0.488
 gam= 1.267 g(H,U,f)=  0.437E-04 0.659E-04 0.202E-06 ort(H,U,f) =-0.191E-04 0.182E-04-0.821E-07
CGA: 130    -0.223103944578E+03   -0.35257E-04   -0.35628E-04  5760   0.110E-03-0.971E-06
 gam= 1.267 trial= 0.506  step= 0.448 mean= 0.506
 gam= 0.994 g(H,U,f)=  0.414E-04 0.669E-04 0.779E-06 ort(H,U,f) =-0.215E-04 0.237E-04-0.237E-06
CGA: 131    -0.223103969014E+03   -0.24436E-04   -0.24320E-04  5760   0.109E-03 0.196E-05
 gam= 0.994 trial= 0.503  step= 0.405 mean= 0.503
 gam= 0.000 g(H,U,f)=  0.403E-04 0.444E-04 0.526E-06 ort(H,U,f) =-0.215E-04 0.229E-04-0.515E-06
SDA: 132    -0.223103992090E+03   -0.23076E-04   -0.22461E-04  5760   0.852E-04 0.848E-06
 gam= 0.000 trial= 0.498  step= 0.296 mean= 0.498
 gam= 0.752 g(H,U,f)=  0.221E-04 0.414E-04 0.553E-06 ort(H,U,f) = 0.152E-04-0.886E-05-0.539E-06
CGA: 133    -0.223104005525E+03   -0.13436E-04   -0.12612E-04  5760   0.641E-04 0.582E-05
 gam= 0.752 trial= 0.488  step= 0.446 mean= 0.488
 gam= 0.884 g(H,U,f)=  0.191E-04 0.375E-04 0.286E-07 ort(H,U,f) =-0.352E-05 0.260E-05-0.265E-07
CGA: 134    -0.223104020884E+03   -0.15358E-04   -0.15287E-04  5760   0.566E-04-0.951E-06
 gam= 0.884 trial= 0.486  step= 0.612 mean= 0.486
 gam= 0.608 g(H,U,f)=  0.199E-04 0.145E-04 0.837E-07 ort(H,U,f) =-0.190E-04 0.198E-04-0.193E-07
CGA: 135    -0.223104038023E+03   -0.17139E-04   -0.17087E-04  5760   0.344E-04 0.775E-06
 gam= 0.608 trial= 0.492  step= 0.809 mean= 0.492
 gam= 1.208 g(H,U,f)=  0.206E-04 0.207E-04 0.240E-06 ort(H,U,f) =-0.101E-04 0.107E-04-0.137E-06
CGA: 136    -0.223104052232E+03   -0.14209E-04   -0.14118E-04  5760   0.416E-04 0.524E-06
 gam= 1.208 trial= 0.508  step= 0.627 mean= 0.508
 gam= 1.514 g(H,U,f)=  0.230E-04 0.392E-04 0.729E-06 ort(H,U,f) =-0.877E-05 0.104E-04 0.139E-06
CGA: 137    -0.223104065341E+03   -0.13108E-04   -0.13244E-04  5760   0.630E-04 0.178E-05
 gam= 1.514 trial= 0.514  step= 0.345 mean= 0.514
 gam= 0.742 g(H,U,f)=  0.217E-04 0.249E-04 0.134E-06 ort(H,U,f) =-0.128E-04 0.137E-04-0.385E-06
CGA: 138    -0.223104076995E+03   -0.11655E-04   -0.11334E-04  5760   0.467E-04 0.547E-06
 gam= 0.742 trial= 0.506  step= 0.646 mean= 0.506
 gam= 0.862 g(H,U,f)=  0.209E-04 0.192E-04 0.118E-06 ort(H,U,f) =-0.102E-04 0.942E-05-0.190E-06
CGA: 139    -0.223104092124E+03   -0.15129E-04   -0.15217E-04  5760   0.403E-04-0.955E-06
 gam= 0.862 trial= 0.513  step= 0.771 mean= 0.513
 gam= 0.873 g(H,U,f)=  0.170E-04 0.181E-04 0.331E-07 ort(H,U,f) =-0.888E-05 0.878E-05 0.885E-08
CGA: 140    -0.223104107236E+03   -0.15111E-04   -0.15227E-04  5760   0.352E-04-0.950E-07
 gam= 0.873 trial= 0.526  step= 0.626 mean= 0.526
 gam= 1.163 g(H,U,f)=  0.157E-04 0.250E-04 0.242E-06 ort(H,U,f) =-0.696E-05 0.700E-05-0.986E-07
CGA: 141    -0.223104118127E+03   -0.10892E-04   -0.10988E-04  5760   0.409E-04-0.646E-07
 gam= 1.163 trial= 0.531  step= 0.330 mean= 0.531
 gam= 0.896 g(H,U,f)=  0.149E-04 0.216E-04 0.181E-06 ort(H,U,f) =-0.492E-05 0.610E-05-0.136E-06
CGA: 142    -0.223104125172E+03   -0.70443E-05   -0.67444E-05  5760   0.367E-04 0.105E-05
 gam= 0.896 trial= 0.521  step= 0.786 mean= 0.521
 gam= 0.941 g(H,U,f)=  0.151E-04 0.194E-04 0.280E-07 ort(H,U,f) =-0.929E-05 0.921E-05 0.261E-07
CGA: 143    -0.223104139910E+03   -0.14739E-04   -0.14772E-04  5760   0.345E-04-0.545E-07
 gam= 0.941 trial= 0.534  step= 0.508 mean= 0.534
 gam= 0.753 g(H,U,f)=  0.129E-04 0.128E-04 0.213E-06 ort(H,U,f) =-0.674E-05 0.661E-05-0.455E-07
CGA: 144    -0.223104148663E+03   -0.87526E-05   -0.87490E-05  5760   0.260E-04-0.171E-06
 gam= 0.753 trial= 0.533  step= 0.635 mean= 0.533
 gam= 1.646 g(H,U,f)=  0.135E-04 0.289E-04 0.388E-06 ort(H,U,f) =-0.167E-05 0.278E-05-0.249E-06
CGA: 145    -0.223104156818E+03   -0.81556E-05   -0.82106E-05  5760   0.428E-04 0.866E-06
 gam= 1.646 trial= 0.538  step= 0.403 mean= 0.538
 gam= 0.779 g(H,U,f)=  0.108E-04 0.226E-04 0.164E-07 ort(H,U,f) =-0.652E-05 0.695E-05-0.772E-08
CGA: 146    -0.223104165893E+03   -0.90742E-05   -0.88992E-05  5760   0.333E-04 0.421E-06
 gam= 0.779 trial= 0.531  step= 0.401 mean= 0.531
 gam= 0.550 g(H,U,f)=  0.960E-05 0.868E-05 0.438E-07 ort(H,U,f) =-0.573E-05 0.595E-05-0.576E-08
CGA: 147    -0.223104172660E+03   -0.67669E-05   -0.67483E-05  5760   0.183E-04 0.212E-06
 gam= 0.550 trial= 0.524  step= 0.934 mean= 0.524
 gam= 1.129 g(H,U,f)=  0.881E-05 0.117E-04 0.181E-06 ort(H,U,f) =-0.357E-05 0.374E-05-0.893E-07
CGA: 148    -0.223104181307E+03   -0.86474E-05   -0.86064E-05  5760   0.207E-04 0.872E-07
 gam= 1.129 trial= 0.545  step= 0.505 mean= 0.545
 gam= 1.000 g(H,U,f)=  0.744E-05 0.130E-04 0.223E-06 ort(H,U,f) =-0.339E-05 0.407E-05 0.551E-07
CGA: 149    -0.223104186548E+03   -0.52414E-05   -0.52466E-05  5760   0.207E-04 0.733E-06
 gam= 1.000 trial= 0.543  step= 0.317 mean= 0.543
 gam= 0.667 g(H,U,f)=  0.622E-05 0.754E-05 0.266E-07 ort(H,U,f) =-0.212E-05 0.339E-05-0.483E-07
CGA: 150    -0.223104190077E+03   -0.35287E-05   -0.33893E-05  5760   0.138E-04 0.122E-05
 gam= 0.667 trial= 0.532  step= 0.893 mean= 0.532
 gam= 1.093 g(H,U,f)=  0.730E-05 0.777E-05 0.104E-07 ort(H,U,f) =-0.358E-05 0.262E-05 0.107E-07
CGA: 151    -0.223104196303E+03   -0.62264E-05   -0.65195E-05  5760   0.151E-04-0.944E-06
 gam= 1.093 trial= 0.550  step= 0.583 mean= 0.550
 gam= 0.792 g(H,U,f)=  0.678E-05 0.499E-05 0.170E-06 ort(H,U,f) =-0.324E-05 0.314E-05 0.384E-07
CGA: 152    -0.223104200395E+03   -0.40916E-05   -0.40964E-05  5760   0.119E-04-0.646E-07
 gam= 0.792 trial= 0.551  step= 0.528 mean= 0.551
 gam= 1.345 g(H,U,f)=  0.493E-05 0.110E-04 0.109E-06 ort(H,U,f) =-0.403E-06 0.105E-05 0.375E-07
CGA: 153    -0.223104203542E+03   -0.31473E-05   -0.31385E-05  5760   0.160E-04 0.680E-06
 gam= 1.345 trial= 0.550  step= 0.392 mean= 0.550
 gam= 0.621 g(H,U,f)=  0.424E-05 0.571E-05 0.874E-08 ort(H,U,f) =-0.312E-05 0.329E-05 0.572E-07
CGA: 154    -0.223104206899E+03   -0.33564E-05   -0.33266E-05  5760   0.996E-05 0.223E-06
 gam= 0.621 trial= 0.542  step= 0.631 mean= 0.542
 gam= 0.925 g(H,U,f)=  0.435E-05 0.484E-05 0.206E-07 ort(H,U,f) =-0.255E-05 0.243E-05 0.715E-07
CGA: 155    -0.223104210073E+03   -0.31747E-05   -0.31872E-05  5760   0.921E-05-0.532E-07
 gam= 0.925 trial= 0.547  step= 0.712 mean= 0.547
 gam= 1.269 g(H,U,f)=  0.450E-05 0.706E-05 0.134E-06 ort(H,U,f) =-0.189E-05 0.193E-05-0.880E-07
CGA: 156    -0.223104213339E+03   -0.32657E-05   -0.32623E-05  5760   0.117E-04-0.459E-07
 gam= 1.269 trial= 0.555  step= 0.384 mean= 0.555
 gam= 0.853 g(H,U,f)=  0.415E-05 0.578E-05 0.446E-07 ort(H,U,f) =-0.165E-05 0.225E-05-0.153E-06
CGA: 157    -0.223104215710E+03   -0.23709E-05   -0.22354E-05  5760   0.997E-05 0.441E-06
 gam= 0.853 trial= 0.546  step= 0.532 mean= 0.546
 gam= 0.762 g(H,U,f)=  0.355E-05 0.402E-05 0.222E-07 ort(H,U,f) =-0.185E-05 0.170E-05-0.743E-08
CGA: 158    -0.223104218468E+03   -0.27586E-05   -0.27551E-05  5760   0.759E-05-0.154E-06
 gam= 0.762 trial= 0.546  step= 0.563 mean= 0.546
 gam= 0.963 g(H,U,f)=  0.319E-05 0.406E-05 0.588E-07 ort(H,U,f) =-0.916E-06 0.883E-06-0.882E-07
CGA: 159    -0.223104220572E+03   -0.21031E-05   -0.21062E-05  5760   0.731E-05-0.121E-06
 gam= 0.963 trial= 0.547  step= 0.524 mean= 0.547
 gam= 1.138 g(H,U,f)=  0.281E-05 0.545E-05 0.633E-07 ort(H,U,f) =-0.711E-06 0.748E-06-0.445E-07
CGA: 160    -0.223104222462E+03   -0.18900E-05   -0.18842E-05  5760   0.832E-05-0.696E-08
 gam= 1.138 trial= 0.545  step= 0.431 mean= 0.545
 gam= 0.676 g(H,U,f)=  0.236E-05 0.318E-05 0.888E-07 ort(H,U,f) =-0.159E-05 0.161E-05-0.315E-07
CGA: 161    -0.223104224296E+03   -0.18342E-05   -0.17907E-05  5760   0.563E-05-0.798E-08
 gam= 0.676 trial= 0.540  step= 0.575 mean= 0.540
 gam= 1.191 g(H,U,f)=  0.274E-05 0.393E-05 0.320E-07 ort(H,U,f) =-0.102E-05 0.976E-06 0.270E-07
CGA: 162    -0.223104225906E+03   -0.16097E-05   -0.16166E-05  5760   0.670E-05-0.216E-07
 gam= 1.191 trial= 0.542  step= 0.652 mean= 0.542
 gam= 0.000 g(H,U,f)=  0.269E-05 0.492E-05 0.207E-07 ort(H,U,f) =-0.174E-05 0.157E-05 0.202E-07
SDA: 163    -0.223104228063E+03   -0.21572E-05   -0.21747E-05  5760   0.763E-05-0.144E-06
 gam= 0.000 trial= 0.547  step= 0.212 mean= 0.547
 gam= 0.452 g(H,U,f)=  0.137E-05 0.204E-05 0.398E-07 ort(H,U,f) = 0.128E-05-0.722E-06-0.316E-08
CGA: 164    -0.223104228963E+03   -0.90058E-06   -0.80877E-06  5760   0.345E-05 0.553E-06
 gam= 0.452 trial= 0.530  step= 0.568 mean= 0.530
 gam= 0.826 g(H,U,f)=  0.918E-06 0.190E-05 0.361E-07 ort(H,U,f) =-0.871E-07 0.737E-07 0.788E-08
CGA: 165    -0.223104230015E+03   -0.10520E-05   -0.10523E-05  5760   0.285E-05-0.550E-08
 gam= 0.826 trial= 0.532  step= 0.631 mean= 0.532
 gam= 0.791 g(H,U,f)=  0.899E-06 0.131E-05 0.440E-07 ort(H,U,f) =-0.585E-06 0.678E-06 0.177E-07
CGA: 166    -0.223104230920E+03   -0.90476E-06   -0.89824E-06  5760   0.226E-05 0.110E-06
 gam= 0.791 trial= 0.537  step= 0.447 mean= 0.537
 final diagonalization
   1 F= -.23287780E+03 E0= -.23287649E+03  d E =-.261984E-02  mag=     6.0000
